 Gaussian 16, Revision A.03,
 Gaussian 16:  ES64L-G16RevA.03 25-Dec-2016

 --------------------------------------------------------
 #p PBE1PBE/Def2SVP td=(nstates=5) density=(transition=1)
 --------------------------------------------------------

 --------------------------------
 TDDFT excited states in gaussian
 --------------------------------
 Symbolic Z-matrix:
 Charge =  0 Multiplicity = 1

                         Standard orientation:
 ---------------------------------------------------------------------
 Center     Atomic      Atomic             Coordinates (Angstroms)
 Number     Number       Type             X           Y           Z
 ---------------------------------------------------------------------
      1         12           0       -9.391737    0.219897    0.877165
      2          6           0       -9.171203   -2.253969   -1.674010
      3          6           0       -7.247415   -1.620879    2.812668
      4          6           0       -8.792650    3.061732    2.829631
      5          6           0      -11.094955    2.302470   -1.383456
      6          7           0       -8.126874   -1.680816    0.387992
      7          6           0       -8.375788   -2.604050   -0.555103
      8          6           0       -7.831114   -3.945882   -0.100810
      9          6           0       -7.136291   -3.745565    1.330982
     10          6           0       -7.684482   -2.249338    1.574624
     11          6           0       -7.712743   -4.788971    2.314234
     12          6           0       -6.867610   -4.515581   -1.129493
     13          6           0       -5.934624   -3.509826   -1.844884
     14          1           0       -4.436450   -3.530372   -1.435820
     15          7           0       -8.233829    0.653650    2.672981
     16          6           0       -7.416245   -0.285964    3.262364
     17          6           0       -6.972030    0.300886    4.487621
     18          6           0       -7.308169    1.707944    4.516517
     19          6           0       -8.191707    1.884930    3.336342
     20          6           0       -6.051218   -0.416584    5.447335
     21          6           0       -6.757198    2.786691    5.450396
     22          8           0       -5.908337    2.503222    6.273556
     23          6           0       -7.175896    4.155758    5.408803
     24          7           0       -9.780787    2.395963    0.702987
     25          6           0       -9.569541    3.265197    1.680232
     26          6           0      -10.025449    4.675283    1.342107
     27          6           0      -10.431763    4.464288   -0.179734
     28          6           0      -10.510855    2.985505   -0.304786
     29          6           0      -11.237120    5.203344    2.254945
     30          6           0       -9.389648    5.197784   -1.143679
     31          6           0       -9.806713    6.397469   -1.946380
     32          7           0      -10.204104    0.016253   -0.949855
     33          6           0      -10.986003    0.915376   -1.703318
     34          6           0      -11.493141    0.265120   -2.926027
     35          6           0      -10.813348   -0.952380   -2.895496
     36          6           0       -9.934037   -1.057451   -1.761670
     37          6           0      -12.593156    0.748932   -3.932930
     38          6           0      -10.639901   -2.186661   -3.668054
     39          8           0      -11.140020   -2.604114   -4.725654
     40          6           0       -9.599250   -3.084611   -2.921101
     41          6           0       -8.526165   -3.135919   -3.953227
     42          8           0       -7.959576   -2.179365   -4.416232
     43          8           0       -8.370375   -4.383358   -4.387213
     44          6           0       -7.277457   -4.690309   -5.374757
     45          1           0       -6.823423   -2.311391    3.544502
     46          1           0       -8.747588    4.006412    3.375176
     47          1           0      -11.517549    3.059889   -2.047720
     48          1           0       -8.769053   -4.501217   -0.095550
     49          1           0       -6.048550   -3.800344    1.279714
     50          1           0       -6.888985   -5.403054    2.677586
     51          1           0       -8.430486   -5.480148    1.871644
     52          1           0       -8.124715   -4.216850    3.145099
     53          1           0       -7.429669   -5.032441   -1.907388
     54          1           0       -6.181266   -5.221342   -0.660682
     55          1           0       -6.103872   -2.447564   -1.669207
     56          1           0       -6.043620   -3.746953   -2.903243
     57          1           0       -5.751926   -1.394087    5.068302
     58          1           0       -6.539482   -0.431162    6.422355
     59          1           0       -5.194941    0.234461    5.619973
     60          1           0       -6.937265    4.690500    4.489200
     61          1           0       -6.698954    4.702332    6.222142
     62          1           0       -8.259842    4.076206    5.498289
     63          1           0       -9.220550    5.409580    1.322019
     64          1           0      -11.332367    5.075474   -0.241275
     65          1           0      -11.471169    4.457447    3.015086
     66          1           0      -12.108431    5.299618    1.606864
     67          1           0      -11.100092    6.184653    2.711823
     68          1           0       -9.079843    4.544719   -1.959621
     69          1           0       -8.498964    5.502643   -0.595989
     70          1           0      -10.017576    6.177043   -2.992857
     71          1           0       -8.897788    6.993815   -1.860288
     72          1           0      -10.537827    7.043391   -1.459932
     73          1           0      -12.149881    1.523349   -4.558341
     74          1           0      -13.447462    1.075291   -3.339616
     75          1           0      -12.835965   -0.079082   -4.598669
     76          1           0      -10.114104   -4.021210   -2.703940
     77          1           0       -7.577320   -4.509103   -6.407165
     78          1           0       -6.960212   -5.731239   -5.300083
     79          1           0       -6.449460   -4.046555   -5.077989
     80         12           0        9.145661    0.612928   -0.122516
     81          6           0        7.638635   -2.310580    1.140366
     82          6           0        6.057553    1.898834   -0.706243
     83          6           0       10.644850    3.347300   -1.432322
     84          6           0       12.232803   -0.961963    0.096137
     85          7           0        7.117767   -0.141805    0.083269
     86          6           0        6.731717   -1.319182    0.729734
     87          6           0        5.243298   -1.322776    0.909096
     88          6           0        4.783360   -0.244561   -0.100697
     89          6           0        6.089786    0.575689   -0.256990
     90          6           0        4.297771   -0.729840   -1.503015
     91          6           0        4.726435   -1.056059    2.372882
     92          6           0        3.673728   -2.009685    2.841082
     93          1           0        2.459776   -1.394520    3.562108
     94          7           0        8.446798    2.368811   -0.833305
     95          6           0        7.105692    2.778187   -0.919272
     96          6           0        7.034313    4.099891   -1.400890
     97          6           0        8.405998    4.587633   -1.630920
     98          6           0        9.217418    3.453455   -1.292122
     99          6           0        5.777209    4.835112   -1.763469
    100          6           0        8.980042    5.951614   -2.213087
    101          8           0       10.170826    6.139851   -2.292464
    102          6           0        8.049904    7.095955   -2.589775
    103          7           0       11.150753    1.071896   -0.700803
    104          6           0       11.487885    2.273345   -1.236865
    105          6           0       13.056009    2.309943   -1.568538
    106          6           0       13.611927    1.035548   -0.794597
    107          6           0       12.246077    0.310419   -0.433702
    108          6           0       13.442640    2.286849   -3.073231
    109          6           0       14.470146    1.375508    0.475654
    110          6           0       15.777830    0.703179    0.435289
    111          7           0        9.820973   -1.260626    0.439920
    112          6           0       11.128254   -1.723863    0.580657
    113          6           0       11.119085   -3.051239    1.132604
    114          6           0        9.782330   -3.325806    1.337716
    115          6           0        9.047112   -2.250373    0.949814
    116          6           0       12.421224   -3.827679    1.459913
    117          6           0        8.842321   -4.334700    1.790530
    118          8           0        9.072553   -5.482467    2.101815
    119          6           0        7.368068   -3.704977    1.654561
    120          6           0        6.570584   -4.547135    0.744258
    121          8           0        6.884734   -4.805199   -0.447301
    122          8           0        5.485630   -5.011580    1.428352
    123          6           0        4.799981   -6.161589    0.781526
    124          1           0        5.035544    2.228356   -0.904464
    125          1           0       11.206829    4.180705   -1.858625
    126          1           0       13.200134   -1.467630    0.091774
    127          1           0        4.755074   -2.229104    0.548857
    128          1           0        3.963785    0.373712    0.265954
    129          1           0        3.785611   -1.692741   -1.484909
    130          1           0        5.177130   -0.765889   -2.146598
    131          1           0        3.669828   -0.030883   -2.054918
    132          1           0        4.381152   -0.022402    2.364389
    133          1           0        5.546251   -1.043913    3.091705
    134          1           0        4.259911   -2.664043    3.486493
    135          1           0        3.230111   -2.513893    1.982648
    136          1           0        5.477528    5.626454   -1.076042
    137          1           0        4.935718    4.144868   -1.719499
    138          1           0        5.715335    5.301358   -2.746407
    139          1           0        8.701378    7.939517   -2.814692
    140          1           0        7.286190    7.260645   -1.829135
    141          1           0        7.381772    6.777937   -3.390663
    142          1           0       13.482072    3.258000   -1.239869
    143          1           0       14.186094    0.431862   -1.499024
    144          1           0       12.623662    2.170132   -3.783747
    145          1           0       14.142062    1.488599   -3.322885
    146          1           0       13.942405    3.233494   -3.280374
    147          1           0       13.953133    0.990995    1.355617
    148          1           0       14.691559    2.434829    0.604077
    149          1           0       16.525633    1.420898    0.096963
    150          1           0       15.878132   -0.230018   -0.117824
    151          1           0       16.028747    0.343697    1.433304
    152          1           0       13.253935   -3.124458    1.487130
    153          1           0       12.545902   -4.693449    0.807920
    154          1           0       12.274034   -4.169380    2.483774
    155          1           0        6.871398   -3.631966    2.622410
    156          1           0        4.033105   -6.564786    1.442707
    157          1           0        5.556599   -6.944814    0.729932
    158          1           0        4.461079   -5.815287   -0.195257
 ---------------------------------------------------------------------

 SCF Done:  E(RPBE1PBE) =  -4067.35863757     A.U. after   16 cycles

 Excitation energies and oscillator strengths:

 Excited State   1:      Singlet-A      1.8531 eV  669.06 nm  f=0.3434  <S**2>=0.000
     309 -> 315       -0.19392
     311 -> 313        0.68725
 This state for optimization and/or second-order correction.
 Total Energy, E(TD-HF/TD-DFT) =  -4067.29053695
 Copying the excited state density for this state as the 1-particle RhoCI density.

 Excited State   2:      Singlet-A      1.8769 eV  660.58 nm  f=0.0000  <S**2>=0.000
     312 -> 313        0.70707

 Excited State   3:      Singlet-A      1.8992 eV  652.84 nm  f=0.3691  <S**2>=0.000
     310 -> 316       -0.17450
     312 -> 314        0.69187
     312 <- 314       -0.10896

 Excited State   4:      Singlet-A      1.9283 eV  642.99 nm  f=0.0000  <S**2>=0.000
     311 -> 314        0.70710

 Excited State   5:      Singlet-A      2.2132 eV  560.21 nm  f=0.1302  <S**2>=0.000
     309 -> 313       -0.22001
     310 -> 314        0.62141
     311 -> 315       -0.10263
     312 -> 316        0.21481

 The electronic state is 1-A.
 Alpha  occ. eigenvalues --  -46.93731 -46.90533 -19.26259 -19.25842 -19.19912
 Alpha  occ. eigenvalues --  -19.19722 -19.19303 -19.19268 -19.19221 -19.18408
 Alpha  occ. eigenvalues --  -14.42077 -14.41607 -14.41411 -14.40988 -14.39989
 Alpha  occ. eigenvalues --  -14.39344 -14.38874 -14.38244 -10.36392 -10.35877
 Alpha  occ. eigenvalues --  -10.33316 -10.32323 -10.32231 -10.31559 -10.29920
 Alpha  occ. eigenvalues --  -10.29802 -10.29351 -10.29292 -10.28943 -10.28793
 Alpha  occ. eigenvalues --  -10.28699 -10.28652 -10.28501 -10.28227 -10.28199
 Alpha  occ. eigenvalues --  -10.28101 -10.28091 -10.27856 -10.27619 -10.27338
 Alpha  occ. eigenvalues --  -10.26941 -10.26861 -10.26714 -10.26692 -10.26344
 Alpha  occ. eigenvalues --  -10.26174 -10.26161 -10.26078 -10.26008 -10.25907
 Alpha  occ. eigenvalues --  -10.25831 -10.25811 -10.25768 -10.25705 -10.25701
 Alpha  occ. eigenvalues --  -10.25649 -10.25475 -10.25458 -10.25411 -10.25410
 Alpha  occ. eigenvalues --  -10.25367 -10.25252 -10.25233 -10.24874 -10.24710
 Alpha  occ. eigenvalues --  -10.24565 -10.24446 -10.24429 -10.24362 -10.24333
 Alpha  occ. eigenvalues --  -10.24248 -10.24011 -10.23971 -10.23860 -10.23794
 Alpha  occ. eigenvalues --  -10.23700 -10.23627 -10.23405 -10.23374 -10.23298
 Alpha  occ. eigenvalues --  -10.23121 -10.23074 -10.22749 -10.22617 -10.22120
 Alpha  occ. eigenvalues --  -10.22047  -3.15624  -3.12835  -1.88426  -1.88029
 Alpha  occ. eigenvalues --   -1.87823  -1.85683  -1.85198  -1.85085  -1.11967
 Alpha  occ. eigenvalues --   -1.10477  -1.06279  -1.05116  -1.05080  -1.03709
 Alpha  occ. eigenvalues --   -1.02659  -1.01075  -0.99432  -0.99362  -0.98425
 Alpha  occ. eigenvalues --   -0.98039  -0.97232  -0.97129  -0.96373  -0.95906
 Alpha  occ. eigenvalues --   -0.86918  -0.86450  -0.83400  -0.83350  -0.83208
 Alpha  occ. eigenvalues --   -0.82869  -0.82708  -0.82228  -0.81551  -0.81295
 Alpha  occ. eigenvalues --   -0.80622  -0.80577  -0.80148  -0.79762  -0.79060
 Alpha  occ. eigenvalues --   -0.78481  -0.78460  -0.78056  -0.77228  -0.77109
 Alpha  occ. eigenvalues --   -0.76986  -0.76146  -0.75575  -0.75432  -0.74935
 Alpha  occ. eigenvalues --   -0.74752  -0.72402  -0.72382  -0.71780  -0.71565
 Alpha  occ. eigenvalues --   -0.71032  -0.70837  -0.70714  -0.69972  -0.69447
 Alpha  occ. eigenvalues --   -0.69135  -0.67449  -0.67284  -0.66329  -0.65319
 Alpha  occ. eigenvalues --   -0.63380  -0.63078  -0.62972  -0.62691  -0.62420
 Alpha  occ. eigenvalues --   -0.61868  -0.61289  -0.60814  -0.60159  -0.59863
 Alpha  occ. eigenvalues --   -0.59775  -0.59534  -0.59484  -0.59005  -0.58720
 Alpha  occ. eigenvalues --   -0.58528  -0.57148  -0.56482  -0.54994  -0.54748
 Alpha  occ. eigenvalues --   -0.54529  -0.54000  -0.53771  -0.53742  -0.53222
 Alpha  occ. eigenvalues --   -0.52658  -0.52546  -0.52338  -0.52032  -0.51988
 Alpha  occ. eigenvalues --   -0.50896  -0.50609  -0.50509  -0.50200  -0.49977
 Alpha  occ. eigenvalues --   -0.49748  -0.49624  -0.49431  -0.49258  -0.48604
 Alpha  occ. eigenvalues --   -0.48353  -0.48237  -0.47976  -0.47880  -0.47842
 Alpha  occ. eigenvalues --   -0.47348  -0.47237  -0.47080  -0.47079  -0.46817
 Alpha  occ. eigenvalues --   -0.46566  -0.46381  -0.46356  -0.46221  -0.45784
 Alpha  occ. eigenvalues --   -0.45698  -0.45401  -0.45356  -0.44952  -0.44929
 Alpha  occ. eigenvalues --   -0.44570  -0.44510  -0.44426  -0.44280  -0.44177
 Alpha  occ. eigenvalues --   -0.43982  -0.43952  -0.43930  -0.43672  -0.43478
 Alpha  occ. eigenvalues --   -0.43294  -0.43270  -0.43069  -0.42589  -0.42586
 Alpha  occ. eigenvalues --   -0.42338  -0.42107  -0.41862  -0.41778  -0.41756
 Alpha  occ. eigenvalues --   -0.41479  -0.41356  -0.41255  -0.41179  -0.41088
 Alpha  occ. eigenvalues --   -0.40715  -0.40675  -0.40492  -0.40436  -0.40402
 Alpha  occ. eigenvalues --   -0.40240  -0.40072  -0.40017  -0.39956  -0.39774
 Alpha  occ. eigenvalues --   -0.39726  -0.39427  -0.39382  -0.39287  -0.39149
 Alpha  occ. eigenvalues --   -0.39058  -0.38913  -0.38714  -0.38502  -0.38194
 Alpha  occ. eigenvalues --   -0.38139  -0.38106  -0.37898  -0.37781  -0.37576
 Alpha  occ. eigenvalues --   -0.37404  -0.37373  -0.37025  -0.36955  -0.36692
 Alpha  occ. eigenvalues --   -0.36649  -0.36487  -0.36364  -0.36268  -0.36038
 Alpha  occ. eigenvalues --   -0.35861  -0.35773  -0.35278  -0.35161  -0.35115
 Alpha  occ. eigenvalues --   -0.34884  -0.34785  -0.34006  -0.33801  -0.33679
 Alpha  occ. eigenvalues --   -0.33272  -0.33086  -0.32768  -0.32729  -0.32556
 Alpha  occ. eigenvalues --   -0.32249  -0.31934  -0.31666  -0.31569  -0.31325
 Alpha  occ. eigenvalues --   -0.30968  -0.30885  -0.29431  -0.29405  -0.29278
 Alpha  occ. eigenvalues --   -0.29057  -0.28980  -0.28515  -0.27166  -0.26860
 Alpha  occ. eigenvalues --   -0.26401  -0.26163  -0.25825  -0.25671  -0.25557
 Alpha  occ. eigenvalues --   -0.25523  -0.25062  -0.24639  -0.21377  -0.20844
 Alpha  occ. eigenvalues --   -0.19136  -0.19038
 Alpha virt. eigenvalues --   -0.11418  -0.11331  -0.06080  -0.04755  -0.04114
 Alpha virt. eigenvalues --   -0.03472  -0.02216  -0.01807  -0.01611  -0.00122
 Alpha virt. eigenvalues --    0.00261   0.00769   0.00780   0.01584   0.02056

 Mulliken charges:
               1
     1  Mg  12.005393
     2  C    6.011428
     3  C    5.976139
     4  C    5.987117
     5  C    6.018417
     6  N    7.006237
     7  C    5.973101
     8  C    6.001072
     9  C    5.986454
    10  C    6.040337
    11  C    5.999142
    12  C    6.002689
    13  C    6.007085
    14  H    0.987086
    15  N    6.991855
    16  C    6.040982
    17  C    6.017932
    18  C    6.010501
    19  C    6.034994
    20  C    5.996984
    21  C    6.011582
    22  O    8.017071
    23  C    5.996314
    24  N    7.003620
    25  C    6.026158
    26  C    5.987826
    27  C    6.014225
    28  C    5.963067
    29  C    5.997410
    30  C    6.000692
    31  C    6.001609
    32  N    7.003259
    33  C    5.960311
    34  C    5.973581
    35  C    5.998443
    36  C    5.970139
    37  C    5.995822
    38  C    5.984029
    39  O    7.967967
    40  C    6.000168
    41  C    5.993590
    42  O    7.997569
    43  O    7.998637
    44  C    6.001638
    45  H    1.006499
    46  H    1.009556
    47  H    0.991121
    48  H    1.005471
    49  H    1.005422
    50  H    1.004087
    51  H    1.010048
    52  H    0.996010
    53  H    1.004853
    54  H    0.992704
    55  H    1.000052
    56  H    1.003821
    57  H    1.017822
    58  H    1.017993
    59  H    1.015554
    60  H    1.010552
    61  H    1.011609
    62  H    1.006381
    63  H    1.001567
    64  H    0.995631
    65  H    0.996731
    66  H    1.011524
    67  H    1.001380
    68  H    1.003475
    69  H    0.987466
    70  H    1.002422
    71  H    0.995174
    72  H    0.995601
    73  H    0.984498
    74  H    0.986057
    75  H    0.990202
    76  H    0.990625
    77  H    0.998196
    78  H    0.994402
    79  H    0.995818
    80  Mg  11.999948
    81  C    5.999600
    82  C    5.999481
    83  C    6.000498
    84  C    6.000556
    85  N    6.999871
    86  C    5.999929
    87  C    6.000158
    88  C    5.999840
    89  C    6.000170
    90  C    5.999899
    91  C    5.999941
    92  C    6.001269
    93  H    0.996339
    94  N    7.000116
    95  C    5.999989
    96  C    5.999897
    97  C    6.000176
    98  C    5.999872
    99  C    6.000005
   100  C    6.000133
   101  O    8.000121
   102  C    5.999984
   103  N    7.000303
   104  C    5.999889
   105  C    5.999930
   106  C    6.000021
   107  C    5.999822
   108  C    5.999887
   109  C    5.999915
   110  C    5.999933
   111  N    7.000058
   112  C    5.999841
   113  C    6.000165
   114  C    5.999979
   115  C    6.000154
   116  C    6.000022
   117  C    5.999994
   118  O    8.000056
   119  C    5.999916
   120  C    5.999982
   121  O    8.000468
   122  O    7.999598
   123  C    5.999900
   124  H    0.999596
   125  H    1.000316
   126  H    1.000355
   127  H    1.000123
   128  H    0.999044
   129  H    1.000132
   130  H    1.000534
   131  H    1.000363
   132  H    0.999455
   133  H    1.000047
   134  H    1.000305
   135  H    1.000402
   136  H    0.999571
   137  H    0.999954
   138  H    1.000474
   139  H    1.000225
   140  H    0.999768
   141  H    1.000342
   142  H    1.000118
   143  H    1.000257
   144  H    1.000231
   145  H    1.000264
   146  H    1.000211
   147  H    0.999866
   148  H    1.000088
   149  H    1.000209
   150  H    1.000146
   151  H    1.000025
   152  H    1.000053
   153  H    1.000302
   154  H    0.999969
   155  H    0.999399
   156  H    0.999520
   157  H    1.000290
   158  H    1.000424
 Sum of Mulliken charges = 624.00000

 Dipole moment (field-independent basis, Debye):
    X=              4.3619    Y=              1.4136    Z=              8.7576  Tot=              9.8853
 Quadrupole moment (field-independent basis, Debye-Ang):
   XX=            -75.6366   YY=              0.0481   ZZ=             12.0134
   XY=            -10.2005   XZ=            -76.9224   YZ=              2.2811

 Normal termination of Gaussian 16 at Wed Oct 13 22:41:56 2021.
