 Gaussian 16, Revision A.03,
 Gaussian 16:  ES64L-G16RevA.03 25-Dec-2016

 --------------------------------------------------------
 #p PBE1PBE/Def2SVP td=(nstates=5) density=(transition=1)
 --------------------------------------------------------

 --------------------------------
 TDDFT excited states in gaussian
 --------------------------------
 Symbolic Z-matrix:
 Charge =  0 Multiplicity = 1

                         Standard orientation:
 ---------------------------------------------------------------------
 Center     Atomic      Atomic             Coordinates (Angstroms)
 Number     Number       Type             X           Y           Z
 ---------------------------------------------------------------------
      1         12           0       -9.808785   -0.011630   -0.475944
      2          6           0       -8.101271    0.002516    2.549503
      3          6           0       -9.489994    3.552811   -0.407560
      4          6           0      -10.964345    0.109135   -3.550904
      5          6           0       -9.347479   -3.492982   -0.634411
      6          7           0       -8.792181    1.554333    0.858066
      7          6           0       -8.243753    1.274321    2.089568
      8          6           0       -7.732816    2.561023    2.743488
      9          6           0       -8.447791    3.650499    1.897272
     10          6           0       -8.914798    2.903962    0.675432
     11          6           0       -9.654023    4.437506    2.544882
     12          6           0       -6.199957    2.679458    2.725386
     13          6           0       -5.635477    3.815002    3.490272
     14          1           0       -4.131481    3.696199    3.947413
     15          7           0      -10.178349    1.614934   -1.836382
     16          6           0      -10.010223    2.989947   -1.610168
     17          6           0      -10.432809    3.689804   -2.791151
     18          6           0      -10.742191    2.687072   -3.782577
     19          6           0      -10.656561    1.377707   -3.047996
     20          6           0      -10.355631    5.235282   -2.930582
     21          6           0      -11.146877    3.039190   -5.217580
     22          8           0      -11.372753    4.187825   -5.560551
     23          6           0      -11.275719    1.951509   -6.214495
     24          7           0      -10.310382   -1.522334   -1.792771
     25          6           0      -10.811999   -1.199457   -2.989686
     26          6           0      -10.952439   -2.501106   -3.878359
     27          6           0      -10.390931   -3.685543   -3.001422
     28          6           0       -9.918771   -2.835153   -1.699178
     29          6           0      -12.334704   -2.783398   -4.523578
     30          6           0       -9.195735   -4.356365   -3.711708
     31          6           0       -8.999691   -5.844210   -3.396149
     32          7           0       -8.919990   -1.523791    0.678592
     33          6           0       -8.916193   -2.885776    0.564086
     34          6           0       -8.360869   -3.453527    1.798489
     35          6           0       -8.127055   -2.375681    2.609635
     36          6           0       -8.404495   -1.230852    1.897568
     37          6           0       -8.234692   -4.944231    2.128996
     38          6           0       -7.614143   -1.987027    3.888893
     39          8           0       -7.227379   -2.628412    4.834630
     40          6           0       -7.589995   -0.422073    3.908379
     41          6           0       -8.538461    0.027868    4.964035
     42          8           0       -9.672112   -0.331594    5.122378
     43          8           0       -7.937359    1.071984    5.688207
     44          6           0       -8.756007    1.676914    6.700046
     45          1           0       -9.430074    4.631320   -0.250214
     46          1           0      -11.368369   -0.008516   -4.559019
     47          1           0       -9.252416   -4.580844   -0.619409
     48          1           0       -8.165344    2.576839    3.742955
     49          1           0       -7.807501    4.429515    1.484912
     50          1           0       -9.400203    5.484767    2.382193
     51          1           0      -10.048186    4.074702    3.494529
     52          1           0      -10.510962    4.272592    1.891930
     53          1           0       -5.753359    2.866570    1.748463
     54          1           0       -5.753659    1.750505    3.080472
     55          1           0       -6.272515    3.948202    4.364652
     56          1           0       -5.757756    4.727209    2.906555
     57          1           0       -9.482885    5.265439   -3.583670
     58          1           0      -10.033064    5.779843   -2.042936
     59          1           0      -11.162319    5.843954   -3.339500
     60          1           0      -10.353877    1.378643   -6.113907
     61          1           0      -11.281144    2.396804   -7.209505
     62          1           0      -12.173426    1.421856   -5.894659
     63          1           0      -10.291762   -2.340245   -4.730726
     64          1           0      -11.127658   -4.429324   -2.699569
     65          1           0      -12.258195   -2.567482   -5.589711
     66          1           0      -13.090925   -2.212817   -3.985463
     67          1           0      -12.546238   -3.852005   -4.486294
     68          1           0       -8.327417   -3.776031   -3.400756
     69          1           0       -9.191680   -4.226832   -4.794162
     70          1           0       -9.040487   -6.307995   -4.382312
     71          1           0       -9.712344   -6.254414   -2.680527
     72          1           0       -7.995319   -6.019392   -3.010405
     73          1           0       -7.295745   -5.262357    2.580860
     74          1           0       -8.405796   -5.402308    1.154547
     75          1           0       -9.144473   -5.208103    2.668458
     76          1           0       -6.565233   -0.136256    4.145904
     77          1           0       -8.336070    1.369646    7.657869
     78          1           0       -9.828520    1.481200    6.709517
     79          1           0       -8.673770    2.756642    6.578420
     80         12           0        9.955359    0.080905   -0.246896
     81          6           0        7.397974   -2.114622    0.789255
     82          6           0        7.867509    2.717354    0.461222
     83          6           0       12.310438    2.236339   -1.290078
     84          6           0       11.805466   -2.619232   -1.483645
     85          7           0        7.962949    0.185559    0.647886
     86          6           0        7.072921   -0.732607    1.013413
     87          6           0        5.744196   -0.210533    1.598645
     88          6           0        5.927741    1.321393    1.156235
     89          6           0        7.354496    1.410581    0.672429
     90          6           0        4.947357    1.770176    0.099933
     91          6           0        5.605436   -0.389076    3.210611
     92          6           0        4.151197   -0.482387    3.681705
     93          1           0        3.797807   -1.816451    4.388288
     94          7           0       10.164641    2.228016   -0.253655
     95          6           0        9.118491    3.134471    0.048835
     96          6           0        9.716763    4.448194    0.125855
     97          6           0       11.018374    4.340852   -0.355684
     98          6           0       11.247710    2.891087   -0.647880
     99          6           0        8.941368    5.713326    0.441525
    100          6           0       12.112437    5.369510   -0.527883
    101          8           0       13.198913    5.025688   -0.892140
    102          6           0       11.909083    6.811512   -0.184641
    103          7           0       11.694249   -0.116262   -1.414144
    104          6           0       12.550299    0.918540   -1.655150
    105          6           0       13.796555    0.301666   -2.348741
    106          6           0       13.861625   -1.144372   -1.890849
    107          6           0       12.361744   -1.369316   -1.586664
    108          6           0       13.604401    0.343715   -3.864046
    109          6           0       14.767042   -1.392044   -0.741551
    110          6           0       14.701148   -0.475721    0.455151
    111          7           0        9.727842   -1.964674   -0.327959
    112          6           0       10.534917   -2.952727   -0.859809
    113          6           0        9.897853   -4.258871   -0.631227
    114          6           0        8.693253   -3.960262    0.028962
    115          6           0        8.640968   -2.601871    0.183939
    116          6           0       10.408732   -5.565439   -1.062305
    117          6           0        7.565818   -4.512382    0.731067
    118          8           0        7.238737   -5.714274    0.957876
    119          6           0        6.698932   -3.282092    1.278738
    120          6           0        5.343708   -3.395559    0.630033
    121          8           0        5.198166   -3.581862   -0.541637
    122          8           0        4.232188   -3.205559    1.495105
    123          6           0        2.921693   -2.995053    0.808002
    124          1           0        7.201972    3.565686    0.630592
    125          1           0       13.053628    2.903300   -1.732811
    126          1           0       12.401593   -3.511843   -1.685796
    127          1           0        4.905374   -0.756667    1.165316
    128          1           0        5.765609    1.878959    2.079523
    129          1           0        4.145498    2.283005    0.630847
    130          1           0        4.622546    0.957149   -0.549709
    131          1           0        5.473180    2.572426   -0.417657
    132          1           0        6.058287    0.463704    3.717321
    133          1           0        6.172153   -1.256056    3.550739
    134          1           0        3.611903   -0.310636    2.749939
    135          1           0        3.868667    0.360699    4.311878
    136          1           0        8.037220    5.355936    0.932905
    137          1           0        8.661878    6.075739   -0.547328
    138          1           0        9.489738    6.384253    1.103085
    139          1           0       11.880138    6.731803    0.902191
    140          1           0       10.966404    7.233026   -0.532567
    141          1           0       12.750154    7.408082   -0.539582
    142          1           0       14.734954    0.825650   -2.170558
    143          1           0       14.225476   -1.853042   -2.634084
    144          1           0       13.313403   -0.560883   -4.398114
    145          1           0       14.538499    0.699608   -4.298552
    146          1           0       12.859285    1.108614   -4.085699
    147          1           0       15.810047   -1.457573   -1.052210
    148          1           0       14.488726   -2.389739   -0.402584
    149          1           0       14.294213   -1.080982    1.265700
    150          1           0       14.131900    0.454095    0.474633
    151          1           0       15.721874   -0.228888    0.746770
    152          1           0       10.327773   -5.618796   -2.147932
    153          1           0        9.785716   -6.277042   -0.520600
    154          1           0       11.470397   -5.673733   -0.836364
    155          1           0        6.724664   -3.393301    2.362902
    156          1           0        2.524384   -3.945680    0.452397
    157          1           0        2.983675   -2.302932   -0.033014
    158          1           0        2.105379   -2.639315    1.435986
 ---------------------------------------------------------------------

 SCF Done:  E(RPBE1PBE) =  -4067.37364177     A.U. after   16 cycles

 Excitation energies and oscillator strengths:

 Excited State   1:      Singlet-A      1.8120 eV  684.24 nm  f=0.0000  <S**2>=0.000
     312 -> 313        0.70708
 This state for optimization and/or second-order correction.
 Total Energy, E(TD-HF/TD-DFT) =  -4067.30705234
 Copying the excited state density for this state as the 1-particle RhoCI density.

 Excited State   2:      Singlet-A      1.8245 eV  679.53 nm  f=0.3279  <S**2>=0.000
     310 -> 316        0.17170
     312 -> 314        0.69386
     312 <- 314       -0.10908

 Excited State   3:      Singlet-A      1.9035 eV  651.34 nm  f=0.3980  <S**2>=0.000
     309 -> 315        0.17008
     311 -> 313        0.69282
     311 <- 313       -0.10640

 Excited State   4:      Singlet-A      1.9766 eV  627.25 nm  f=0.0000  <S**2>=0.000
     311 -> 314        0.70710

 Excited State   5:      Singlet-A      2.1780 eV  569.26 nm  f=0.1142  <S**2>=0.000
     310 -> 314        0.65716
     312 -> 316       -0.25101

 The electronic state is 1-A.
 Alpha  occ. eigenvalues --  -46.93123 -46.92008 -19.25773 -19.25120 -19.20838
 Alpha  occ. eigenvalues --  -19.20210 -19.19038 -19.19027 -19.18785 -19.18699
 Alpha  occ. eigenvalues --  -14.42692 -14.42299 -14.41883 -14.41047 -14.39814
 Alpha  occ. eigenvalues --  -14.39221 -14.38981 -14.38867 -10.36670 -10.36417
 Alpha  occ. eigenvalues --  -10.32084 -10.32048 -10.31880 -10.31573 -10.29964
 Alpha  occ. eigenvalues --  -10.29317 -10.29135 -10.29007 -10.29003 -10.28870
 Alpha  occ. eigenvalues --  -10.28802 -10.28704 -10.28621 -10.28597 -10.28551
 Alpha  occ. eigenvalues --  -10.28492 -10.28246 -10.27926 -10.27475 -10.27378
 Alpha  occ. eigenvalues --  -10.26982 -10.26680 -10.26660 -10.26416 -10.26356
 Alpha  occ. eigenvalues --  -10.26277 -10.26237 -10.26221 -10.26198 -10.26094
 Alpha  occ. eigenvalues --  -10.26032 -10.26029 -10.25923 -10.25845 -10.25794
 Alpha  occ. eigenvalues --  -10.25572 -10.25553 -10.25551 -10.25389 -10.25345
 Alpha  occ. eigenvalues --  -10.25321 -10.25259 -10.25225 -10.24898 -10.24882
 Alpha  occ. eigenvalues --  -10.24817 -10.24751 -10.24566 -10.24504 -10.24347
 Alpha  occ. eigenvalues --  -10.24165 -10.24008 -10.23957 -10.23833 -10.23766
 Alpha  occ. eigenvalues --  -10.23757 -10.23658 -10.23332 -10.23313 -10.23129
 Alpha  occ. eigenvalues --  -10.23059 -10.22796 -10.22566 -10.22385 -10.22014
 Alpha  occ. eigenvalues --  -10.21890  -3.15127  -3.14086  -1.87974  -1.87505
 Alpha  occ. eigenvalues --   -1.87336  -1.86949  -1.86436  -1.86325  -1.11520
 Alpha  occ. eigenvalues --   -1.10319  -1.06618  -1.05365  -1.04742  -1.03819
 Alpha  occ. eigenvalues --   -1.02189  -1.01534  -0.99805  -0.99376  -0.98519
 Alpha  occ. eigenvalues --   -0.98383  -0.97953  -0.97816  -0.97541  -0.96396
 Alpha  occ. eigenvalues --   -0.87851  -0.87387  -0.84242  -0.83796  -0.83694
 Alpha  occ. eigenvalues --   -0.83555  -0.83174  -0.82968  -0.82530  -0.81965
 Alpha  occ. eigenvalues --   -0.81278  -0.80950  -0.80777  -0.80280  -0.79515
 Alpha  occ. eigenvalues --   -0.78856  -0.78410  -0.77883  -0.77447  -0.76837
 Alpha  occ. eigenvalues --   -0.76800  -0.76544  -0.75767  -0.75472  -0.75322
 Alpha  occ. eigenvalues --   -0.74186  -0.72966  -0.72183  -0.71787  -0.71632
 Alpha  occ. eigenvalues --   -0.71479  -0.71369  -0.70628  -0.70543  -0.69911
 Alpha  occ. eigenvalues --   -0.69314  -0.67865  -0.66985  -0.66575  -0.65730
 Alpha  occ. eigenvalues --   -0.64037  -0.63872  -0.63481  -0.63268  -0.62411
 Alpha  occ. eigenvalues --   -0.62267  -0.61360  -0.61165  -0.60560  -0.60221
 Alpha  occ. eigenvalues --   -0.60166  -0.59519  -0.59417  -0.59216  -0.58805
 Alpha  occ. eigenvalues --   -0.57876  -0.57407  -0.56352  -0.54788  -0.54752
 Alpha  occ. eigenvalues --   -0.54636  -0.54427  -0.53967  -0.53733  -0.53592
 Alpha  occ. eigenvalues --   -0.53438  -0.53199  -0.53029  -0.52320  -0.52266
 Alpha  occ. eigenvalues --   -0.51190  -0.50895  -0.50510  -0.50306  -0.50029
 Alpha  occ. eigenvalues --   -0.49567  -0.49206  -0.49078  -0.49050  -0.48682
 Alpha  occ. eigenvalues --   -0.48608  -0.48470  -0.48259  -0.48086  -0.47917
 Alpha  occ. eigenvalues --   -0.47917  -0.47663  -0.47613  -0.47430  -0.47097
 Alpha  occ. eigenvalues --   -0.46652  -0.46496  -0.46364  -0.46222  -0.46005
 Alpha  occ. eigenvalues --   -0.45935  -0.45547  -0.45443  -0.45390  -0.45320
 Alpha  occ. eigenvalues --   -0.45086  -0.44948  -0.44719  -0.44605  -0.44587
 Alpha  occ. eigenvalues --   -0.44274  -0.44045  -0.43940  -0.43834  -0.43802
 Alpha  occ. eigenvalues --   -0.43685  -0.43435  -0.42995  -0.42983  -0.42852
 Alpha  occ. eigenvalues --   -0.42808  -0.42357  -0.42323  -0.42162  -0.42108
 Alpha  occ. eigenvalues --   -0.41989  -0.41899  -0.41820  -0.41413  -0.41210
 Alpha  occ. eigenvalues --   -0.41202  -0.41045  -0.40999  -0.40736  -0.40650
 Alpha  occ. eigenvalues --   -0.40397  -0.40197  -0.40124  -0.39971  -0.39945
 Alpha  occ. eigenvalues --   -0.39579  -0.39483  -0.39142  -0.39095  -0.38839
 Alpha  occ. eigenvalues --   -0.38728  -0.38550  -0.38479  -0.38370  -0.38291
 Alpha  occ. eigenvalues --   -0.38093  -0.38002  -0.37870  -0.37815  -0.37727
 Alpha  occ. eigenvalues --   -0.37616  -0.37361  -0.37285  -0.37253  -0.37248
 Alpha  occ. eigenvalues --   -0.36940  -0.36759  -0.36646  -0.36469  -0.36372
 Alpha  occ. eigenvalues --   -0.35853  -0.35804  -0.35532  -0.35337  -0.35239
 Alpha  occ. eigenvalues --   -0.35163  -0.34857  -0.34776  -0.34684  -0.34413
 Alpha  occ. eigenvalues --   -0.33807  -0.33263  -0.33143  -0.32775  -0.32679
 Alpha  occ. eigenvalues --   -0.32312  -0.32132  -0.32054  -0.31616  -0.31405
 Alpha  occ. eigenvalues --   -0.31225  -0.31174  -0.30248  -0.29791  -0.29653
 Alpha  occ. eigenvalues --   -0.29493  -0.29334  -0.28784  -0.27487  -0.27104
 Alpha  occ. eigenvalues --   -0.26110  -0.25967  -0.25886  -0.25691  -0.25561
 Alpha  occ. eigenvalues --   -0.25266  -0.25232  -0.25205  -0.21645  -0.21005
 Alpha  occ. eigenvalues --   -0.19360  -0.18936
 Alpha virt. eigenvalues --   -0.11597  -0.11413  -0.05562  -0.05225  -0.03792
 Alpha virt. eigenvalues --   -0.03410  -0.02209  -0.01810  -0.00815   0.00076
 Alpha virt. eigenvalues --    0.00103   0.00569   0.00774   0.00971   0.01426

 Mulliken charges:
               1
     1  Mg  12.000000
     2  C    6.000000
     3  C    6.000000
     4  C    6.000000
     5  C    6.000000
     6  N    7.000000
     7  C    6.000000
     8  C    6.000000
     9  C    6.000000
    10  C    6.000000
    11  C    6.000000
    12  C    6.000000
    13  C    6.000000
    14  H    1.000000
    15  N    7.000000
    16  C    6.000000
    17  C    6.000000
    18  C    6.000000
    19  C    6.000000
    20  C    6.000000
    21  C    6.000000
    22  O    8.000000
    23  C    6.000000
    24  N    7.000000
    25  C    6.000000
    26  C    6.000000
    27  C    6.000000
    28  C    6.000000
    29  C    6.000000
    30  C    6.000000
    31  C    6.000000
    32  N    7.000000
    33  C    6.000000
    34  C    6.000000
    35  C    6.000000
    36  C    6.000000
    37  C    6.000000
    38  C    6.000000
    39  O    8.000000
    40  C    6.000000
    41  C    6.000000
    42  O    8.000000
    43  O    8.000000
    44  C    6.000000
    45  H    1.000000
    46  H    1.000000
    47  H    1.000000
    48  H    1.000000
    49  H    1.000000
    50  H    1.000000
    51  H    1.000000
    52  H    1.000000
    53  H    1.000000
    54  H    1.000000
    55  H    1.000000
    56  H    1.000000
    57  H    1.000000
    58  H    1.000000
    59  H    1.000000
    60  H    1.000000
    61  H    1.000000
    62  H    1.000000
    63  H    1.000000
    64  H    1.000000
    65  H    1.000000
    66  H    1.000000
    67  H    1.000000
    68  H    1.000000
    69  H    1.000000
    70  H    1.000000
    71  H    1.000000
    72  H    1.000000
    73  H    1.000000
    74  H    1.000000
    75  H    1.000000
    76  H    1.000000
    77  H    1.000000
    78  H    1.000000
    79  H    1.000000
    80  Mg  12.000000
    81  C    6.000000
    82  C    6.000000
    83  C    6.000000
    84  C    6.000000
    85  N    7.000000
    86  C    6.000000
    87  C    6.000000
    88  C    6.000000
    89  C    6.000000
    90  C    6.000000
    91  C    6.000000
    92  C    6.000000
    93  H    1.000000
    94  N    7.000000
    95  C    6.000000
    96  C    6.000000
    97  C    6.000000
    98  C    6.000000
    99  C    6.000000
   100  C    6.000000
   101  O    8.000000
   102  C    6.000000
   103  N    7.000000
   104  C    6.000000
   105  C    6.000000
   106  C    6.000000
   107  C    6.000000
   108  C    6.000000
   109  C    6.000000
   110  C    6.000000
   111  N    7.000000
   112  C    6.000000
   113  C    6.000000
   114  C    6.000000
   115  C    6.000000
   116  C    6.000000
   117  C    6.000000
   118  O    8.000000
   119  C    6.000000
   120  C    6.000000
   121  O    8.000000
   122  O    8.000000
   123  C    6.000000
   124  H    1.000000
   125  H    1.000000
   126  H    1.000000
   127  H    1.000000
   128  H    1.000000
   129  H    1.000000
   130  H    1.000000
   131  H    1.000000
   132  H    1.000000
   133  H    1.000000
   134  H    1.000000
   135  H    1.000000
   136  H    1.000000
   137  H    1.000000
   138  H    1.000000
   139  H    1.000000
   140  H    1.000000
   141  H    1.000000
   142  H    1.000000
   143  H    1.000000
   144  H    1.000000
   145  H    1.000000
   146  H    1.000000
   147  H    1.000000
   148  H    1.000000
   149  H    1.000000
   150  H    1.000000
   151  H    1.000000
   152  H    1.000000
   153  H    1.000000
   154  H    1.000000
   155  H    1.000000
   156  H    1.000000
   157  H    1.000000
   158  H    1.000000
 Sum of Mulliken charges = 624.00000

 Dipole moment (field-independent basis, Debye):
    X=              0.0000    Y=              0.0000    Z=              0.0000  Tot=              0.0000
 Quadrupole moment (field-independent basis, Debye-Ang):
   XX=              0.0000   YY=              0.0000   ZZ=              0.0000
   XY=              0.0000   XZ=             -0.0000   YZ=             -0.0000

 Normal termination of Gaussian 16 at Fri Oct 15 14:41:20 2021.
