 Gaussian 16, Revision A.03,
 Gaussian 16:  ES64L-G16RevA.03 25-Dec-2016

 --------------------------------------------------------
 #p PBE1PBE/Def2SVP td=(nstates=5) density=(transition=1)
 --------------------------------------------------------

 --------------------------------
 TDDFT excited states in gaussian
 --------------------------------
 Symbolic Z-matrix:
 Charge =  0 Multiplicity = 1

                         Standard orientation:
 ---------------------------------------------------------------------
 Center     Atomic      Atomic             Coordinates (Angstroms)
 Number     Number       Type             X           Y           Z
 ---------------------------------------------------------------------
      1         12           0      -30.675452   -0.279993   -0.401908
      2          6           0      -27.613523    1.266037    0.428006
      3          6           0      -29.401564   -3.305448    0.777716
      4          6           0      -33.878890   -1.433838   -0.256944
      5          6           0      -31.923078    3.012638   -1.059075
      6          7           0      -28.752993   -0.910111    0.445215
      7          6           0      -27.687065   -0.126021    0.712277
      8          6           0      -26.572826   -0.928201    1.460048
      9          6           0      -27.065772   -2.422779    1.184461
     10          6           0      -28.547106   -2.235351    0.722280
     11          6           0      -26.374745   -3.301203    0.116957
     12          6           0      -26.576861   -0.510788    2.979251
     13          6           0      -25.165633   -0.468940    3.628374
     14          1           0      -25.076049   -1.031627    5.105199
     15          7           0      -31.539266   -2.223357   -0.004232
     16          6           0      -30.804674   -3.301707    0.412353
     17          6           0      -31.701993   -4.389806    0.507536
     18          6           0      -33.029996   -3.915943    0.290762
     19          6           0      -32.880795   -2.464591   -0.063144
     20          6           0      -31.314483   -5.801645    0.879018
     21          6           0      -34.296952   -4.664893    0.527689
     22          8           0      -34.303501   -5.785659    1.010995
     23          6           0      -35.617857   -4.144744    0.287931
     24          7           0      -32.645484    0.735186   -0.529290
     25          6           0      -33.803708   -0.053103   -0.598190
     26          6           0      -34.981777    0.776808   -1.002783
     27          6           0      -34.400151    2.225029   -1.203544
     28          6           0      -32.921952    2.016221   -0.923270
     29          6           0      -35.612767    0.167666   -2.261377
     30          6           0      -35.203319    3.342888   -0.437807
     31          6           0      -35.752384    4.467623   -1.262120
     32          7           0      -29.943555    1.783652   -0.380330
     33          6           0      -30.567284    2.957765   -0.724367
     34          6           0      -29.592839    4.070579   -0.753265
     35          6           0      -28.446476    3.411884   -0.234774
     36          6           0      -28.689040    2.056075   -0.117885
     37          6           0      -29.817064    5.546738   -1.041458
     38          6           0      -27.125049    3.667606    0.273760
     39          8           0      -26.515611    4.740780    0.403153
     40          6           0      -26.495543    2.343730    0.706473
     41          6           0      -25.213079    2.110450    0.016564
     42          8           0      -24.198455    1.968114    0.596962
     43          8           0      -25.345439    1.880221   -1.322263
     44          6           0      -24.071549    1.398478   -1.899010
     45          1           0      -29.011508   -4.284256    1.066104
     46          1           0      -34.868249   -1.893231   -0.283340
     47          1           0      -32.125259    4.078888   -1.184867
     48          1           0      -25.616286   -0.692589    0.993226
     49          1           0      -27.303770   -3.005520    2.074183
     50          1           0      -25.911645   -2.675865   -0.647171
     51          1           0      -26.998440   -4.048076   -0.374356
     52          1           0      -25.568212   -3.815322    0.638640
     53          1           0      -27.244912   -1.151923    3.555065
     54          1           0      -27.011395    0.488882    2.985027
     55          1           0      -24.913644    0.591519    3.609964
     56          1           0      -24.550112   -0.986775    2.892459
     57          1           0      -32.000723   -6.589292    0.567649
     58          1           0      -31.246119   -5.766013    1.965953
     59          1           0      -30.281521   -6.091071    0.685730
     60          1           0      -35.678486   -3.921925   -0.778097
     61          1           0      -35.819592   -3.276085    0.915355
     62          1           0      -36.343764   -4.914821    0.549134
     63          1           0      -35.675969    0.888728   -0.170257
     64          1           0      -34.236474    2.566546   -2.225876
     65          1           0      -35.275123   -0.849043   -2.463836
     66          1           0      -35.364319    0.740148   -3.155043
     67          1           0      -36.667999   -0.032307   -2.077758
     68          1           0      -34.500658    3.720907    0.304812
     69          1           0      -36.129799    2.990642    0.014218
     70          1           0      -35.380550    5.394468   -0.826143
     71          1           0      -36.840126    4.516822   -1.208800
     72          1           0      -35.561473    4.351616   -2.329026
     73          1           0      -30.184771    6.094126   -0.173315
     74          1           0      -30.449587    5.724072   -1.912178
     75          1           0      -28.790363    5.885025   -1.180722
     76          1           0      -26.190916    2.407432    1.750309
     77          1           0      -24.233710    1.231026   -2.964113
     78          1           0      -23.749176    0.480142   -1.408456
     79          1           0      -23.272974    2.139516   -1.906083
     80         12           0       30.851530    0.266475   -0.333429
     81          6           0       27.813192   -1.505920   -0.190033
     82          6           0       29.057858    3.051487    0.724993
     83          6           0       33.713323    1.936759    0.001017
     84          6           0       32.497324   -2.785846   -0.467940
     85          7           0       28.678268    0.615865    0.355199
     86          6           0       27.564766   -0.190348    0.220942
     87          6           0       26.232023    0.523770    0.303806
     88          6           0       26.633994    1.993246    0.574533
     89          6           0       28.196365    1.924504    0.575067
     90          6           0       26.066479    3.029752   -0.478149
     91          6           0       25.211688    0.000239    1.410592
     92          6           0       25.793093   -0.581938    2.709300
     93          1           0       25.739979    0.290098    3.998605
     94          7           0       31.302914    2.183499    0.257305
     95          6           0       30.438681    3.186833    0.592195
     96          6           0       31.180915    4.437616    0.803406
     97          6           0       32.559852    4.131062    0.590637
     98          6           0       32.565014    2.670266    0.271873
     99          6           0       30.517528    5.763746    1.155640
    100          6           0       33.640819    5.247837    0.840527
    101          8           0       33.256745    6.336205    1.245487
    102          6           0       35.182919    4.923257    0.657167
    103          7           0       32.776106   -0.351745   -0.123210
    104          6           0       33.842819    0.543431   -0.158223
    105          6           0       35.261560   -0.255727   -0.262870
    106          6           0       34.733530   -1.791065   -0.250801
    107          6           0       33.249291   -1.617718   -0.289781
    108          6           0       36.073206    0.126328   -1.535591
    109          6           0       35.189394   -2.655711    1.001723
    110          6           0       35.853198   -4.020607    0.762078
    111          7           0       30.309819   -1.770810   -0.456416
    112          6           0       31.057044   -2.920104   -0.494244
    113          6           0       30.137412   -4.077135   -0.516711
    114          6           0       28.832526   -3.515265   -0.516259
    115          6           0       29.023830   -2.107990   -0.428947
    116          6           0       30.495970   -5.537363   -0.517984
    117          6           0       27.406231   -3.888513   -0.469318
    118          8           0       26.814842   -4.972141   -0.582775
    119          6           0       26.694029   -2.544123   -0.455689
    120          6           0       25.912619   -2.318285   -1.624705
    121          8           0       26.429244   -1.951438   -2.711824
    122          8           0       24.540649   -2.521912   -1.376546
    123          6           0       23.589316   -2.174276   -2.427206
    124          1           0       28.529489    3.992952    0.887089
    125          1           0       34.657351    2.482114   -0.053863
    126          1           0       33.088453   -3.697815   -0.570134
    127          1           0       25.816990    0.362538   -0.690387
    128          1           0       26.375409    2.177867    1.616571
    129          1           0       25.315379    3.657972    0.000613
    130          1           0       25.628944    2.432718   -1.278731
    131          1           0       26.853182    3.681771   -0.859169
    132          1           0       24.726143   -0.817401    0.876344
    133          1           0       24.475681    0.778725    1.612778
    134          1           0       26.832856   -0.877638    2.565564
    135          1           0       25.290589   -1.527342    2.909449
    136          1           0       30.607428    6.055986    2.201901
    137          1           0       29.514249    5.824440    0.733734
    138          1           0       30.963706    6.580657    0.588741
    139          1           0       35.284923    4.413266   -0.301051
    140          1           0       35.480722    4.283605    1.487559
    141          1           0       35.839757    5.773863    0.839196
    142          1           0       35.866533    0.104263    0.568772
    143          1           0       35.047802   -2.240256   -1.193178
    144          1           0       35.836811   -0.608484   -2.304900
    145          1           0       37.140436    0.232972   -1.340963
    146          1           0       35.847545    1.118235   -1.926777
    147          1           0       34.313673   -2.755875    1.643760
    148          1           0       35.926514   -1.995366    1.458541
    149          1           0       35.804961   -4.660142    1.643851
    150          1           0       36.881321   -3.739069    0.535597
    151          1           0       35.296560   -4.442671   -0.074915
    152          1           0       31.473399   -5.568413   -0.037317
    153          1           0       30.626655   -5.741173   -1.580740
    154          1           0       29.730272   -6.206001   -0.123526
    155          1           0       26.069437   -2.643293    0.431815
    156          1           0       23.630387   -2.750348   -3.351665
    157          1           0       23.693883   -1.121123   -2.689688
    158          1           0       22.604786   -2.171290   -1.959166
 ---------------------------------------------------------------------

 SCF Done:  E(RPBE1PBE) =  -4067.34451885     A.U. after   16 cycles

 Excitation energies and oscillator strengths:

 Excited State   1:      Singlet-A      1.7633 eV  703.12 nm  f=0.0000  <S**2>=0.000
     312 -> 313        0.70711
 This state for optimization and/or second-order correction.
 Total Energy, E(TD-HF/TD-DFT) =  -4067.27971715
 Copying the excited state density for this state as the 1-particle RhoCI density.

 Excited State   2:      Singlet-A      1.8469 eV  671.32 nm  f=0.3891  <S**2>=0.000
     309 -> 315        0.16872
     311 -> 313        0.69416
     311 <- 313       -0.11313

 Excited State   3:      Singlet-A      1.8697 eV  663.14 nm  f=0.3700  <S**2>=0.000
     310 -> 316        0.17514
     312 -> 314        0.69211
     312 <- 314       -0.10391

 Excited State   4:      Singlet-A      2.2121 eV  560.47 nm  f=0.1077  <S**2>=0.000
     309 -> 313        0.65180
     311 -> 315       -0.25478

 Excited State   5:      Singlet-A      2.2573 eV  549.26 nm  f=0.0000  <S**2>=0.000
     311 -> 314        0.70711

 The electronic state is 1-A.
 Alpha  occ. eigenvalues --  -46.94199 -46.92346 -19.26407 -19.25712 -19.20427
 Alpha  occ. eigenvalues --  -19.20112 -19.19790 -19.19463 -19.18987 -19.17632
 Alpha  occ. eigenvalues --  -14.42425 -14.42302 -14.42054 -14.41718 -14.39593
 Alpha  occ. eigenvalues --  -14.39524 -14.39012 -14.38885 -10.36967 -10.35711
 Alpha  occ. eigenvalues --  -10.33638 -10.32531 -10.31833 -10.30696 -10.29931
 Alpha  occ. eigenvalues --  -10.29677 -10.29658 -10.29553 -10.29306 -10.29074
 Alpha  occ. eigenvalues --  -10.29030 -10.28903 -10.28804 -10.28453 -10.28434
 Alpha  occ. eigenvalues --  -10.28433 -10.27961 -10.27800 -10.27680 -10.27442
 Alpha  occ. eigenvalues --  -10.27148 -10.26869 -10.26854 -10.26848 -10.26625
 Alpha  occ. eigenvalues --  -10.26486 -10.26293 -10.26291 -10.26273 -10.26237
 Alpha  occ. eigenvalues --  -10.26210 -10.26113 -10.26105 -10.26092 -10.26024
 Alpha  occ. eigenvalues --  -10.25927 -10.25900 -10.25825 -10.25570 -10.25475
 Alpha  occ. eigenvalues --  -10.25370 -10.25317 -10.25169 -10.25013 -10.24987
 Alpha  occ. eigenvalues --  -10.24651 -10.24583 -10.24520 -10.24476 -10.24424
 Alpha  occ. eigenvalues --  -10.24414 -10.24410 -10.24383 -10.24260 -10.24251
 Alpha  occ. eigenvalues --  -10.24058 -10.24039 -10.23913 -10.23529 -10.23386
 Alpha  occ. eigenvalues --  -10.23161 -10.23048 -10.23020 -10.22836 -10.22827
 Alpha  occ. eigenvalues --  -10.22652  -3.15938  -3.14546  -1.88790  -1.88291
 Alpha  occ. eigenvalues --   -1.88153  -1.87344  -1.86938  -1.86773  -1.12722
 Alpha  occ. eigenvalues --   -1.09673  -1.05109  -1.04371  -1.03867  -1.03812
 Alpha  occ. eigenvalues --   -1.03595  -1.01770  -0.99737  -0.98855  -0.98403
 Alpha  occ. eigenvalues --   -0.98176  -0.98029  -0.97270  -0.97217  -0.96485
 Alpha  occ. eigenvalues --   -0.87519  -0.86937  -0.83708  -0.83482  -0.83365
 Alpha  occ. eigenvalues --   -0.83088  -0.82559  -0.82352  -0.82335  -0.81273
 Alpha  occ. eigenvalues --   -0.81126  -0.80447  -0.80218  -0.79807  -0.79173
 Alpha  occ. eigenvalues --   -0.78932  -0.78822  -0.78169  -0.77054  -0.77014
 Alpha  occ. eigenvalues --   -0.76752  -0.75857  -0.75231  -0.75224  -0.74922
 Alpha  occ. eigenvalues --   -0.74419  -0.72997  -0.72519  -0.71902  -0.71501
 Alpha  occ. eigenvalues --   -0.71193  -0.71004  -0.70834  -0.70790  -0.69815
 Alpha  occ. eigenvalues --   -0.69269  -0.67602  -0.66988  -0.66809  -0.66186
 Alpha  occ. eigenvalues --   -0.63791  -0.63643  -0.63636  -0.63335  -0.62833
 Alpha  occ. eigenvalues --   -0.62420  -0.61331  -0.61232  -0.60772  -0.60198
 Alpha  occ. eigenvalues --   -0.60156  -0.59677  -0.59593  -0.59224  -0.59107
 Alpha  occ. eigenvalues --   -0.58735  -0.57827  -0.57030  -0.54783  -0.54678
 Alpha  occ. eigenvalues --   -0.54557  -0.54135  -0.53611  -0.53587  -0.53498
 Alpha  occ. eigenvalues --   -0.53221  -0.52862  -0.52342  -0.51771  -0.51667
 Alpha  occ. eigenvalues --   -0.51012  -0.50662  -0.50615  -0.50178  -0.50069
 Alpha  occ. eigenvalues --   -0.49637  -0.49498  -0.49111  -0.48979  -0.48793
 Alpha  occ. eigenvalues --   -0.48388  -0.48212  -0.47991  -0.47779  -0.47604
 Alpha  occ. eigenvalues --   -0.47408  -0.47177  -0.47096  -0.46947  -0.46883
 Alpha  occ. eigenvalues --   -0.46673  -0.46313  -0.46162  -0.46022  -0.45882
 Alpha  occ. eigenvalues --   -0.45799  -0.45572  -0.45475  -0.45175  -0.44940
 Alpha  occ. eigenvalues --   -0.44720  -0.44552  -0.44519  -0.44220  -0.43943
 Alpha  occ. eigenvalues --   -0.43923  -0.43906  -0.43838  -0.43682  -0.43541
 Alpha  occ. eigenvalues --   -0.43252  -0.43220  -0.43088  -0.42927  -0.42840
 Alpha  occ. eigenvalues --   -0.42789  -0.42253  -0.42096  -0.42000  -0.41786
 Alpha  occ. eigenvalues --   -0.41664  -0.41574  -0.41435  -0.41349  -0.41134
 Alpha  occ. eigenvalues --   -0.41089  -0.41022  -0.40984  -0.40938  -0.40558
 Alpha  occ. eigenvalues --   -0.40508  -0.40079  -0.39936  -0.39811  -0.39754
 Alpha  occ. eigenvalues --   -0.39668  -0.39530  -0.39488  -0.39435  -0.39296
 Alpha  occ. eigenvalues --   -0.39155  -0.38928  -0.38843  -0.38699  -0.38471
 Alpha  occ. eigenvalues --   -0.38236  -0.38035  -0.37862  -0.37811  -0.37764
 Alpha  occ. eigenvalues --   -0.37670  -0.37506  -0.37452  -0.37255  -0.37067
 Alpha  occ. eigenvalues --   -0.37065  -0.36900  -0.36636  -0.36504  -0.36168
 Alpha  occ. eigenvalues --   -0.35966  -0.35933  -0.35594  -0.35528  -0.35237
 Alpha  occ. eigenvalues --   -0.35024  -0.34789  -0.34652  -0.34576  -0.34159
 Alpha  occ. eigenvalues --   -0.33853  -0.33646  -0.32894  -0.32604  -0.32554
 Alpha  occ. eigenvalues --   -0.32517  -0.32240  -0.32084  -0.32056  -0.31954
 Alpha  occ. eigenvalues --   -0.31601  -0.31439  -0.29983  -0.29814  -0.29359
 Alpha  occ. eigenvalues --   -0.29069  -0.29057  -0.28857  -0.27145  -0.26897
 Alpha  occ. eigenvalues --   -0.26204  -0.25981  -0.25978  -0.25714  -0.25615
 Alpha  occ. eigenvalues --   -0.25324  -0.25061  -0.24609  -0.21454  -0.21037
 Alpha  occ. eigenvalues --   -0.19254  -0.18484
 Alpha virt. eigenvalues --   -0.11787  -0.10743  -0.05762  -0.05275  -0.03975
 Alpha virt. eigenvalues --   -0.03906  -0.02392  -0.02010  -0.01532  -0.01169
 Alpha virt. eigenvalues --   -0.01029   0.00576   0.00817   0.01109   0.01289

 Mulliken charges:
               1
     1  Mg  12.000000
     2  C    6.000000
     3  C    6.000000
     4  C    6.000000
     5  C    6.000000
     6  N    7.000000
     7  C    6.000000
     8  C    6.000000
     9  C    6.000000
    10  C    6.000000
    11  C    6.000000
    12  C    6.000000
    13  C    6.000000
    14  H    1.000000
    15  N    7.000000
    16  C    6.000000
    17  C    6.000000
    18  C    6.000000
    19  C    6.000000
    20  C    6.000000
    21  C    6.000000
    22  O    8.000000
    23  C    6.000000
    24  N    7.000000
    25  C    6.000000
    26  C    6.000000
    27  C    6.000000
    28  C    6.000000
    29  C    6.000000
    30  C    6.000000
    31  C    6.000000
    32  N    7.000000
    33  C    6.000000
    34  C    6.000000
    35  C    6.000000
    36  C    6.000000
    37  C    6.000000
    38  C    6.000000
    39  O    8.000000
    40  C    6.000000
    41  C    6.000000
    42  O    8.000000
    43  O    8.000000
    44  C    6.000000
    45  H    1.000000
    46  H    1.000000
    47  H    1.000000
    48  H    1.000000
    49  H    1.000000
    50  H    1.000000
    51  H    1.000000
    52  H    1.000000
    53  H    1.000000
    54  H    1.000000
    55  H    1.000000
    56  H    1.000000
    57  H    1.000000
    58  H    1.000000
    59  H    1.000000
    60  H    1.000000
    61  H    1.000000
    62  H    1.000000
    63  H    1.000000
    64  H    1.000000
    65  H    1.000000
    66  H    1.000000
    67  H    1.000000
    68  H    1.000000
    69  H    1.000000
    70  H    1.000000
    71  H    1.000000
    72  H    1.000000
    73  H    1.000000
    74  H    1.000000
    75  H    1.000000
    76  H    1.000000
    77  H    1.000000
    78  H    1.000000
    79  H    1.000000
    80  Mg  12.000000
    81  C    6.000000
    82  C    6.000000
    83  C    6.000000
    84  C    6.000000
    85  N    7.000000
    86  C    6.000000
    87  C    6.000000
    88  C    6.000000
    89  C    6.000000
    90  C    6.000000
    91  C    6.000000
    92  C    6.000000
    93  H    1.000000
    94  N    7.000000
    95  C    6.000000
    96  C    6.000000
    97  C    6.000000
    98  C    6.000000
    99  C    6.000000
   100  C    6.000000
   101  O    8.000000
   102  C    6.000000
   103  N    7.000000
   104  C    6.000000
   105  C    6.000000
   106  C    6.000000
   107  C    6.000000
   108  C    6.000000
   109  C    6.000000
   110  C    6.000000
   111  N    7.000000
   112  C    6.000000
   113  C    6.000000
   114  C    6.000000
   115  C    6.000000
   116  C    6.000000
   117  C    6.000000
   118  O    8.000000
   119  C    6.000000
   120  C    6.000000
   121  O    8.000000
   122  O    8.000000
   123  C    6.000000
   124  H    1.000000
   125  H    1.000000
   126  H    1.000000
   127  H    1.000000
   128  H    1.000000
   129  H    1.000000
   130  H    1.000000
   131  H    1.000000
   132  H    1.000000
   133  H    1.000000
   134  H    1.000000
   135  H    1.000000
   136  H    1.000000
   137  H    1.000000
   138  H    1.000000
   139  H    1.000000
   140  H    1.000000
   141  H    1.000000
   142  H    1.000000
   143  H    1.000000
   144  H    1.000000
   145  H    1.000000
   146  H    1.000000
   147  H    1.000000
   148  H    1.000000
   149  H    1.000000
   150  H    1.000000
   151  H    1.000000
   152  H    1.000000
   153  H    1.000000
   154  H    1.000000
   155  H    1.000000
   156  H    1.000000
   157  H    1.000000
   158  H    1.000000
 Sum of Mulliken charges = 624.00000

 Dipole moment (field-independent basis, Debye):
    X=             -0.0000    Y=             -0.0000    Z=             -0.0000  Tot=              0.0000
 Quadrupole moment (field-independent basis, Debye-Ang):
   XX=             -0.0000   YY=             -0.0000   ZZ=              0.0000
   XY=             -0.0000   XZ=             -0.0000   YZ=             -0.0000

 Normal termination of Gaussian 16 at Thu Oct 14 06:08:41 2021.
