 Gaussian 16, Revision A.03,
 Gaussian 16:  ES64L-G16RevA.03 25-Dec-2016

 --------------------------------------------------------
 #p PBE1PBE/Def2SVP td=(nstates=5) density=(transition=1)
 --------------------------------------------------------

 --------------------------------
 TDDFT excited states in gaussian
 --------------------------------
 Symbolic Z-matrix:
 Charge =  0 Multiplicity = 1

                         Standard orientation:
 ---------------------------------------------------------------------
 Center     Atomic      Atomic             Coordinates (Angstroms)
 Number     Number       Type             X           Y           Z
 ---------------------------------------------------------------------
      1         12           0      -26.489639   -0.453888   -0.315038
      2          6           0      -24.949211    2.692715   -0.373469
      3          6           0      -27.362464    0.153118    3.062197
      4          6           0      -27.683250   -3.626584   -0.118127
      5          6           0      -24.950573   -1.187338   -3.317429
      6          7           0      -26.316604    1.281422    1.052688
      7          6           0      -25.787495    2.526521    0.700880
      8          6           0      -26.264766    3.601401    1.742760
      9          6           0      -26.926046    2.743063    2.827333
     10          6           0      -26.826707    1.266330    2.307868
     11          6           0      -26.194930    2.927638    4.184402
     12          6           0      -27.165908    4.602647    1.030407
     13          6           0      -27.231616    6.019564    1.576500
     14          1           0      -26.648341    6.289541    2.981951
     15          7           0      -27.412589   -1.615068    1.218999
     16          6           0      -27.652026   -1.192560    2.540448
     17          6           0      -28.254035   -2.261796    3.317443
     18          6           0      -28.444178   -3.389792    2.425759
     19          6           0      -27.819712   -2.907701    1.119754
     20          6           0      -28.767434   -2.103372    4.754302
     21          6           0      -29.087311   -4.743309    2.659444
     22          8           0      -29.161590   -5.557330    1.748645
     23          6           0      -29.806422   -4.976659    3.932309
     24          7           0      -26.374420   -2.142077   -1.612299
     25          6           0      -27.031034   -3.303725   -1.338725
     26          6           0      -26.957936   -4.247903   -2.567225
     27          6           0      -26.128171   -3.444908   -3.642697
     28          6           0      -25.868759   -2.115277   -2.888220
     29          6           0      -26.326475   -5.594490   -2.170895
     30          6           0      -26.880871   -3.159005   -4.969277
     31          6           0      -26.402679   -4.137393   -6.037642
     32          7           0      -25.110361    0.445358   -1.606003
     33          6           0      -24.503360    0.039381   -2.747369
     34          6           0      -23.464544    1.045105   -3.077740
     35          6           0      -23.664030    2.124981   -2.268404
     36          6           0      -24.655416    1.682181   -1.355890
     37          6           0      -22.545785    0.872963   -4.275648
     38          6           0      -23.280017    3.507222   -1.952352
     39          8           0      -22.423927    4.211250   -2.474172
     40          6           0      -24.164162    3.913247   -0.789078
     41          6           0      -23.251267    4.465289    0.224329
     42          8           0      -22.502954    3.889924    1.026027
     43          8           0      -23.287955    5.839755    0.107923
     44          6           0      -22.403509    6.589778    0.972996
     45          1           0      -27.684907    0.408689    4.073493
     46          1           0      -28.185577   -4.589679   -0.005707
     47          1           0      -24.433895   -1.529536   -4.216623
     48          1           0      -25.303278    4.013155    2.051896
     49          1           0      -27.906844    3.186451    2.998936
     50          1           0      -25.639941    2.055241    4.529798
     51          1           0      -26.974764    2.946284    4.945198
     52          1           0      -25.496423    3.763980    4.165886
     53          1           0      -28.138163    4.109892    0.999774
     54          1           0      -26.885103    4.640686   -0.021456
     55          1           0      -28.265848    6.358782    1.536863
     56          1           0      -26.680696    6.564750    0.809300
     57          1           0      -28.501782   -1.152564    5.216745
     58          1           0      -28.360077   -2.896441    5.382783
     59          1           0      -29.841302   -2.286345    4.760327
     60          1           0      -30.667185   -4.308616    3.971385
     61          1           0      -29.117449   -4.983205    4.776891
     62          1           0      -30.267380   -5.964007    3.961625
     63          1           0      -27.980745   -4.464969   -2.874344
     64          1           0      -25.191344   -3.994353   -3.744075
     65          1           0      -25.437826   -5.898378   -2.723358
     66          1           0      -27.142395   -6.256447   -2.460260
     67          1           0      -25.985060   -5.649385   -1.137582
     68          1           0      -26.532477   -2.222793   -5.405794
     69          1           0      -27.966041   -3.211770   -4.879375
     70          1           0      -27.328150   -4.499077   -6.485475
     71          1           0      -25.961838   -5.052218   -5.642335
     72          1           0      -25.746341   -3.715832   -6.799472
     73          1           0      -22.543607   -0.121503   -4.722645
     74          1           0      -21.511518    1.130870   -4.051200
     75          1           0      -22.949992    1.461572   -5.099966
     76          1           0      -24.869749    4.658298   -1.155263
     77          1           0      -21.403589    6.168669    0.865368
     78          1           0      -22.685643    6.549282    2.025298
     79          1           0      -22.247813    7.533656    0.451650
     80         12           0       25.482824   -0.782744    0.125635
     81          6           0       26.479520    2.420434   -0.981672
     82          6           0       24.805793    0.432676    3.115423
     83          6           0       25.432525   -3.999525    1.275688
     84          6           0       27.253381   -2.091605   -2.845426
     85          7           0       25.698297    1.221145    0.949277
     86          6           0       25.878959    2.376928    0.277851
     87          6           0       25.487919    3.556758    1.189256
     88          6           0       24.948984    2.940401    2.440254
     89          6           0       25.187269    1.418152    2.204382
     90          6           0       25.529659    3.604169    3.755362
     91          6           0       24.571191    4.681697    0.602328
     92          6           0       23.479472    5.434794    1.476972
     93          1           0       23.373019    6.962241    1.358685
     94          7           0       24.917123   -1.641897    1.898455
     95          6           0       24.662921   -0.935415    3.052286
     96          6           0       24.255863   -1.875509    4.057583
     97          6           0       24.457800   -3.229718    3.582374
     98          6           0       25.002984   -2.997694    2.226624
     99          6           0       23.881851   -1.353021    5.385313
    100          6           0       24.134768   -4.592916    4.242508
    101          8           0       24.422209   -5.605291    3.693897
    102          6           0       23.244529   -4.660015    5.440476
    103          7           0       26.305055   -2.753850   -0.683920
    104          6           0       25.987665   -3.883724   -0.012754
    105          6           0       26.456272   -5.167386   -0.769789
    106          6           0       27.005368   -4.584310   -2.107706
    107          6           0       26.879796   -3.054375   -1.901947
    108          6           0       27.477831   -6.010061   -0.053443
    109          6           0       26.316478   -5.026809   -3.445846
    110          6           0       25.010020   -4.417826   -3.828449
    111          7           0       26.631610   -0.109595   -1.610513
    112          6           0       27.193848   -0.739564   -2.683596
    113          6           0       27.664110    0.247916   -3.624233
    114          6           0       27.425571    1.516541   -3.033142
    115          6           0       26.835811    1.235832   -1.783900
    116          6           0       28.433294    0.019826   -4.877431
    117          6           0       27.580694    2.936661   -3.169525
    118          8           0       28.018823    3.653974   -4.061586
    119          6           0       26.930861    3.593545   -1.870071
    120          6           0       27.836183    4.617629   -1.206624
    121          8           0       28.891739    4.348389   -0.693934
    122          8           0       27.228651    5.862228   -1.255063
    123          6           0       28.044413    6.926544   -0.669298
    124          1           0       24.368659    0.767439    4.058861
    125          1           0       25.337118   -5.002020    1.697373
    126          1           0       27.682597   -2.471640   -3.774733
    127          1           0       26.476877    4.002230    1.297137
    128          1           0       23.885254    3.175188    2.487271
    129          1           0       26.113446    4.484882    3.488208
    130          1           0       26.033532    2.822085    4.323236
    131          1           0       24.736001    4.043441    4.360004
    132          1           0       24.027319    4.234291   -0.229979
    133          1           0       25.152996    5.478559    0.138322
    134          1           0       23.720971    5.157613    2.503300
    135          1           0       22.498365    5.013801    1.256885
    136          1           0       24.248713   -2.088159    6.101258
    137          1           0       22.793587   -1.357804    5.433873
    138          1           0       24.197904   -0.367815    5.728615
    139          1           0       23.959758   -4.615129    6.260737
    140          1           0       22.609780   -5.543232    5.362662
    141          1           0       22.609345   -3.787413    5.594406
    142          1           0       25.613894   -5.786151   -1.079683
    143          1           0       28.068801   -4.660311   -2.332321
    144          1           0       27.595162   -5.697802    0.985073
    145          1           0       28.470183   -5.920664   -0.496215
    146          1           0       27.100436   -7.031047   -0.104884
    147          1           0       26.163922   -6.106114   -3.439111
    148          1           0       27.057551   -4.940262   -4.240787
    149          1           0       24.506689   -4.038213   -2.939053
    150          1           0       24.219738   -5.017111   -4.281118
    151          1           0       25.261574   -3.664826   -4.575993
    152          1           0       29.383539   -0.496468   -4.744225
    153          1           0       28.827774    0.998234   -5.152801
    154          1           0       27.820615   -0.444841   -5.650461
    155          1           0       26.009590    4.066828   -2.210320
    156          1           0       27.332185    7.026383    0.149180
    157          1           0       27.981393    7.724151   -1.409158
    158          1           0       29.050798    6.601150   -0.404961
 ---------------------------------------------------------------------

 SCF Done:  E(RPBE1PBE) =  -4067.35843345     A.U. after   16 cycles

 Excitation energies and oscillator strengths:

 Excited State   1:      Singlet-A      1.8264 eV  678.86 nm  f=0.3792  <S**2>=0.000
     309 -> 316       -0.16172
     312 -> 313        0.69458
     312 <- 313       -0.11150
 This state for optimization and/or second-order correction.
 Total Energy, E(TD-HF/TD-DFT) =  -4067.29131554
 Copying the excited state density for this state as the 1-particle RhoCI density.

 Excited State   2:      Singlet-A      1.8611 eV  666.20 nm  f=0.3726  <S**2>=0.000
     310 -> 315        0.17930
     311 -> 314        0.69127
     311 <- 314       -0.10765

 Excited State   3:      Singlet-A      1.9782 eV  626.75 nm  f=0.0000  <S**2>=0.000
     312 -> 314        0.70711

 Excited State   4:      Singlet-A      1.9825 eV  625.41 nm  f=0.0000  <S**2>=0.000
     311 -> 313        0.70711

 Excited State   5:      Singlet-A      2.1921 eV  565.60 nm  f=0.1034  <S**2>=0.000
     310 -> 314        0.65383
     311 -> 315       -0.25418

 The electronic state is 1-A.
 Alpha  occ. eigenvalues --  -46.93376 -46.92538 -19.25442 -19.25183 -19.20247
 Alpha  occ. eigenvalues --  -19.20096 -19.19676 -19.19664 -19.19247 -19.18895
 Alpha  occ. eigenvalues --  -14.41738 -14.41737 -14.41283 -14.41231 -14.39711
 Alpha  occ. eigenvalues --  -14.39118 -14.38955 -14.38499 -10.36441 -10.36125
 Alpha  occ. eigenvalues --  -10.32757 -10.32688 -10.32423 -10.31961 -10.29601
 Alpha  occ. eigenvalues --  -10.29270 -10.28863 -10.28855 -10.28666 -10.28571
 Alpha  occ. eigenvalues --  -10.28546 -10.28533 -10.28507 -10.28388 -10.28245
 Alpha  occ. eigenvalues --  -10.28180 -10.28030 -10.27376 -10.27133 -10.27012
 Alpha  occ. eigenvalues --  -10.26991 -10.26776 -10.26573 -10.26525 -10.26341
 Alpha  occ. eigenvalues --  -10.26247 -10.26107 -10.26054 -10.25825 -10.25804
 Alpha  occ. eigenvalues --  -10.25714 -10.25604 -10.25572 -10.25563 -10.25536
 Alpha  occ. eigenvalues --  -10.25527 -10.25480 -10.25436 -10.25389 -10.25280
 Alpha  occ. eigenvalues --  -10.25247 -10.25220 -10.25064 -10.24896 -10.24415
 Alpha  occ. eigenvalues --  -10.24395 -10.24385 -10.24320 -10.24242 -10.23997
 Alpha  occ. eigenvalues --  -10.23989 -10.23962 -10.23883 -10.23818 -10.23771
 Alpha  occ. eigenvalues --  -10.23760 -10.23640 -10.23090 -10.22995 -10.22838
 Alpha  occ. eigenvalues --  -10.22761 -10.22703 -10.22663 -10.22549 -10.22496
 Alpha  occ. eigenvalues --  -10.22357  -3.15270  -3.14519  -1.88080  -1.87651
 Alpha  occ. eigenvalues --   -1.87481  -1.87373  -1.86852  -1.86773  -1.11068
 Alpha  occ. eigenvalues --   -1.10621  -1.07570  -1.05021  -1.04882  -1.03984
 Alpha  occ. eigenvalues --   -1.03385  -1.01741  -0.99182  -0.98811  -0.97767
 Alpha  occ. eigenvalues --   -0.97419  -0.97231  -0.97111  -0.96462  -0.96200
 Alpha  occ. eigenvalues --   -0.87848  -0.85969  -0.83546  -0.83539  -0.83133
 Alpha  occ. eigenvalues --   -0.83100  -0.82533  -0.82230  -0.81678  -0.81480
 Alpha  occ. eigenvalues --   -0.81404  -0.81086  -0.80436  -0.79978  -0.78616
 Alpha  occ. eigenvalues --   -0.78253  -0.78165  -0.77938  -0.77055  -0.76647
 Alpha  occ. eigenvalues --   -0.76457  -0.76223  -0.75283  -0.75149  -0.74749
 Alpha  occ. eigenvalues --   -0.74405  -0.72568  -0.72281  -0.71641  -0.71425
 Alpha  occ. eigenvalues --   -0.71385  -0.71150  -0.70317  -0.70186  -0.69009
 Alpha  occ. eigenvalues --   -0.68926  -0.67042  -0.66786  -0.65859  -0.65477
 Alpha  occ. eigenvalues --   -0.64085  -0.63626  -0.63501  -0.62906  -0.62687
 Alpha  occ. eigenvalues --   -0.62372  -0.61452  -0.61310  -0.59824  -0.59471
 Alpha  occ. eigenvalues --   -0.59340  -0.59197  -0.58761  -0.58627  -0.58497
 Alpha  occ. eigenvalues --   -0.58491  -0.56775  -0.56257  -0.54592  -0.54515
 Alpha  occ. eigenvalues --   -0.54266  -0.54077  -0.53610  -0.53370  -0.53357
 Alpha  occ. eigenvalues --   -0.53027  -0.52922  -0.52540  -0.52283  -0.51928
 Alpha  occ. eigenvalues --   -0.50597  -0.50553  -0.50405  -0.50333  -0.49899
 Alpha  occ. eigenvalues --   -0.49673  -0.49593  -0.49338  -0.49157  -0.48616
 Alpha  occ. eigenvalues --   -0.48198  -0.48145  -0.48047  -0.47896  -0.47755
 Alpha  occ. eigenvalues --   -0.47732  -0.47545  -0.47476  -0.47400  -0.46941
 Alpha  occ. eigenvalues --   -0.46553  -0.46392  -0.46362  -0.46041  -0.45712
 Alpha  occ. eigenvalues --   -0.45481  -0.45437  -0.45355  -0.45157  -0.44849
 Alpha  occ. eigenvalues --   -0.44832  -0.44637  -0.44357  -0.44173  -0.44124
 Alpha  occ. eigenvalues --   -0.44038  -0.43853  -0.43801  -0.43681  -0.43617
 Alpha  occ. eigenvalues --   -0.43370  -0.43288  -0.43220  -0.42913  -0.42894
 Alpha  occ. eigenvalues --   -0.42521  -0.42304  -0.42099  -0.41891  -0.41830
 Alpha  occ. eigenvalues --   -0.41728  -0.41494  -0.41456  -0.41094  -0.40841
 Alpha  occ. eigenvalues --   -0.40757  -0.40603  -0.40486  -0.40268  -0.40164
 Alpha  occ. eigenvalues --   -0.40009  -0.39718  -0.39503  -0.39347  -0.39309
 Alpha  occ. eigenvalues --   -0.39258  -0.39185  -0.39060  -0.39035  -0.38852
 Alpha  occ. eigenvalues --   -0.38491  -0.38437  -0.38376  -0.38198  -0.38091
 Alpha  occ. eigenvalues --   -0.37977  -0.37842  -0.37804  -0.37697  -0.37681
 Alpha  occ. eigenvalues --   -0.37467  -0.37364  -0.37291  -0.37189  -0.36889
 Alpha  occ. eigenvalues --   -0.36770  -0.36712  -0.36410  -0.36405  -0.36179
 Alpha  occ. eigenvalues --   -0.35872  -0.35743  -0.35476  -0.35272  -0.34989
 Alpha  occ. eigenvalues --   -0.34845  -0.34072  -0.33904  -0.33886  -0.33487
 Alpha  occ. eigenvalues --   -0.33043  -0.33010  -0.32969  -0.32829  -0.32784
 Alpha  occ. eigenvalues --   -0.32368  -0.31958  -0.31590  -0.31286  -0.30927
 Alpha  occ. eigenvalues --   -0.30866  -0.30768  -0.29524  -0.29405  -0.29113
 Alpha  occ. eigenvalues --   -0.28795  -0.28661  -0.28271  -0.26944  -0.26519
 Alpha  occ. eigenvalues --   -0.26461  -0.26437  -0.26168  -0.25956  -0.25582
 Alpha  occ. eigenvalues --   -0.25560  -0.25377  -0.25007  -0.20748  -0.20747
 Alpha  occ. eigenvalues --   -0.18672  -0.18594
 Alpha virt. eigenvalues --   -0.11135  -0.11071  -0.05076  -0.05070  -0.04056
 Alpha virt. eigenvalues --   -0.03763  -0.02457  -0.01937  -0.01640  -0.00449
 Alpha virt. eigenvalues --    0.00338   0.00547   0.00980   0.01064   0.01467

 Mulliken charges:
               1
     1  Mg  11.999633
     2  C    6.022675
     3  C    5.996647
     4  C    5.976893
     5  C    6.005107
     6  N    7.014476
     7  C    5.966807
     8  C    6.005094
     9  C    5.988662
    10  C    6.029797
    11  C    5.998186
    12  C    6.004166
    13  C    5.999839
    14  H    0.993613
    15  N    6.994934
    16  C    6.036222
    17  C    6.018590
    18  C    6.017334
    19  C    6.028499
    20  C    5.997700
    21  C    6.014464
    22  O    8.030063
    23  C    5.992412
    24  N    6.993694
    25  C    6.031652
    26  C    5.993236
    27  C    6.011195
    28  C    5.972550
    29  C    5.997752
    30  C    6.004271
    31  C    6.001479
    32  N    7.001167
    33  C    5.966463
    34  C    5.970117
    35  C    5.999723
    36  C    5.965864
    37  C    6.003087
    38  C    5.980651
    39  O    7.973412
    40  C    5.999820
    41  C    5.996940
    42  O    7.991954
    43  O    7.999451
    44  C    6.001190
    45  H    1.013049
    46  H    1.002182
    47  H    0.989132
    48  H    1.002950
    49  H    1.006225
    50  H    0.998886
    51  H    0.999273
    52  H    1.012886
    53  H    0.990909
    54  H    1.007590
    55  H    0.996978
    56  H    1.004352
    57  H    1.015663
    58  H    1.016681
    59  H    1.016382
    60  H    1.007395
    61  H    1.007617
    62  H    1.014711
    63  H    0.998009
    64  H    0.996376
    65  H    1.008082
    66  H    0.999746
    67  H    0.994742
    68  H    1.004447
    69  H    0.990718
    70  H    0.994540
    71  H    0.994711
    72  H    1.001188
    73  H    0.982572
    74  H    0.982202
    75  H    0.979656
    76  H    0.992632
    77  H    0.999363
    78  H    0.993304
    79  H    0.997377
    80  Mg  12.000020
    81  C    6.000041
    82  C    6.000014
    83  C    5.999959
    84  C    5.999980
    85  N    7.000006
    86  C    6.000021
    87  C    5.999991
    88  C    6.000030
    89  C    5.999914
    90  C    6.000001
    91  C    5.999984
    92  C    6.000002
    93  H    1.000021
    94  N    6.999999
    95  C    5.999920
    96  C    5.999989
    97  C    5.999947
    98  C    5.999986
    99  C    6.000013
   100  C    5.999946
   101  O    7.999935
   102  C    6.000011
   103  N    6.999965
   104  C    5.999999
   105  C    6.000025
   106  C    5.999985
   107  C    6.000074
   108  C    6.000009
   109  C    5.999989
   110  C    5.999980
   111  N    7.000005
   112  C    6.000088
   113  C    6.000060
   114  C    5.999997
   115  C    6.000029
   116  C    6.000010
   117  C    6.000048
   118  O    8.000071
   119  C    5.999995
   120  C    6.000008
   121  O    7.999994
   122  O    8.000013
   123  C    5.999996
   124  H    0.999982
   125  H    0.999982
   126  H    1.000024
   127  H    0.999982
   128  H    1.000014
   129  H    0.999967
   130  H    0.999986
   131  H    1.000001
   132  H    1.000018
   133  H    0.999990
   134  H    0.999999
   135  H    1.000035
   136  H    0.999932
   137  H    0.999964
   138  H    0.999942
   139  H    0.999952
   140  H    0.999958
   141  H    1.000005
   142  H    1.000001
   143  H    0.999979
   144  H    1.000003
   145  H    0.999962
   146  H    0.999984
   147  H    1.000018
   148  H    0.999990
   149  H    1.000032
   150  H    1.000037
   151  H    0.999994
   152  H    1.000037
   153  H    1.000031
   154  H    1.000067
   155  H    1.000041
   156  H    1.000022
   157  H    1.000015
   158  H    0.999986
 Sum of Mulliken charges = 624.00000

 Dipole moment (field-independent basis, Debye):
    X=             -5.6864    Y=             -4.8471    Z=              7.3261  Tot=             10.4643
 Quadrupole moment (field-independent basis, Debye-Ang):
   XX=            295.7878   YY=              4.6878   ZZ=              0.4807
   XY=            130.0536   XZ=           -193.0325   YZ=             -6.7509

 Normal termination of Gaussian 16 at Fri Oct 15 01:31:59 2021.
