 Gaussian 16, Revision A.03,
 Gaussian 16:  ES64L-G16RevA.03 25-Dec-2016

 --------------------------------------------------------
 #p PBE1PBE/Def2SVP td=(nstates=5) density=(transition=1)
 --------------------------------------------------------

 --------------------------------
 TDDFT excited states in gaussian
 --------------------------------
 Symbolic Z-matrix:
 Charge =  0 Multiplicity = 1

                         Standard orientation:
 ---------------------------------------------------------------------
 Center     Atomic      Atomic             Coordinates (Angstroms)
 Number     Number       Type             X           Y           Z
 ---------------------------------------------------------------------
      1         12           0       25.472249   -0.184376   -0.144005
      2          6           0       21.993888   -0.700742    0.153908
      3          6           0       24.977358    0.858918   -3.435555
      4          6           0       28.569510    1.233040   -0.033149
      5          6           0       25.655464   -0.788350    3.381830
      6          7           0       23.718161    0.005189   -1.446984
      7          6           0       22.430605   -0.227334   -1.114638
      8          6           0       21.468063    0.178191   -2.277928
      9          6           0       22.511624    0.294596   -3.482144
     10          6           0       23.894341    0.364472   -2.756675
     11          6           0       22.623163   -0.821858   -4.545066
     12          6           0       20.754989    1.531578   -1.900966
     13          6           0       19.282935    1.629270   -2.389012
     14          1           0       18.843744    3.040014   -2.956960
     15          7           0       26.735853    0.745893   -1.633597
     16          6           0       26.319774    1.015166   -2.910460
     17          6           0       27.430871    1.563935   -3.590545
     18          6           0       28.490431    1.769120   -2.657613
     19          6           0       27.994448    1.196668   -1.361375
     20          6           0       27.445260    1.958032   -5.048603
     21          6           0       29.748748    2.534764   -2.887103
     22          8           0       29.959221    3.133001   -3.929964
     23          6           0       30.794886    2.710033   -1.913602
     24          7           0       26.863089    0.258577    1.528477
     25          6           0       28.156761    0.707778    1.224734
     26          6           0       29.035287    0.638983    2.434591
     27          6           0       28.110992    0.056191    3.566832
     28          6           0       26.806893   -0.178243    2.824137
     29          6           0       30.262195   -0.223546    2.112094
     30          6           0       28.126881    0.901032    4.896129
     31          6           0       28.521106    0.182488    6.150831
     32          7           0       24.122533   -0.695665    1.502696
     33          6           0       24.382922   -0.949530    2.826965
     34          6           0       23.172022   -1.467390    3.500966
     35          6           0       22.218720   -1.304555    2.460986
     36          6           0       22.851272   -0.931333    1.289960
     37          6           0       22.963693   -1.850472    4.957752
     38          6           0       20.802986   -1.333685    2.205996
     39          8           0       19.859871   -1.570870    2.976799
     40          6           0       20.555926   -0.979909    0.739719
     41          6           0       19.794081   -2.040674    0.054534
     42          8           0       18.752412   -1.842311   -0.457485
     43          8           0       20.491801   -3.203611   -0.099559
     44          6           0       19.780469   -4.123665   -1.013352
     45          1           0       24.871360    1.117867   -4.491531
     46          1           0       29.588466    1.618510   -0.094068
     47          1           0       25.508518   -0.974562    4.448282
     48          1           0       20.740419   -0.622942   -2.408787
     49          1           0       22.582147    1.279788   -3.942859
     50          1           0       22.297124   -1.775791   -4.129001
     51          1           0       23.602245   -0.958038   -5.004474
     52          1           0       21.910843   -0.555263   -5.325126
     53          1           0       21.333604    2.385501   -2.254418
     54          1           0       20.781174    1.558038   -0.811559
     55          1           0       18.707146    1.383009   -1.496693
     56          1           0       19.209939    0.798901   -3.091685
     57          1           0       28.424379    2.015993   -5.524241
     58          1           0       26.964645    2.935978   -5.049612
     59          1           0       26.730134    1.452746   -5.697771
     60          1           0       31.171744    1.714533   -1.675485
     61          1           0       30.431968    3.247476   -1.037034
     62          1           0       31.586291    3.310019   -2.362912
     63          1           0       29.279647    1.640297    2.788406
     64          1           0       28.237601   -0.993693    3.831967
     65          1           0       30.399283   -0.395739    1.044271
     66          1           0       30.187718   -1.214722    2.559447
     67          1           0       31.169073    0.345382    2.314854
     68          1           0       27.112581    1.290914    4.981587
     69          1           0       28.874530    1.693281    4.907629
     70          1           0       27.717225    0.332488    6.871006
     71          1           0       29.418997    0.609237    6.598182
     72          1           0       28.799065   -0.857773    5.981158
     73          1           0       22.763655   -0.988990    5.595206
     74          1           0       23.774234   -2.457224    5.363412
     75          1           0       22.016872   -2.386545    4.893691
     76          1           0       19.878778   -0.128976    0.677809
     77          1           0       20.378993   -5.030850   -1.100329
     78          1           0       19.635596   -3.661570   -1.989769
     79          1           0       18.840873   -4.510064   -0.619952
     80         12           0      -25.290953    0.581286    0.133733
     81          6           0      -22.474470   -1.701958   -0.061711
     82          6           0      -27.207291   -2.095722   -0.591642
     83          6           0      -27.748054    2.618844    0.251200
     84          6           0      -22.999963    3.248329    0.552210
     85          7           0      -24.825933   -1.749004   -0.262558
     86          6           0      -23.655682   -2.406511   -0.191474
     87          6           0      -23.891021   -3.925672   -0.293155
     88          6           0      -25.361590   -3.864269   -0.919403
     89          6           0      -25.848153   -2.533402   -0.524927
     90          6           0      -25.558214   -4.343753   -2.347829
     91          6           0      -23.762928   -4.540865    1.111141
     92          6           0      -23.354074   -6.043006    1.078814
     93          1           0      -22.824772   -6.777100   -0.238706
     94          7           0      -27.277023    0.313003   -0.090391
     95          6           0      -27.909206   -0.852684   -0.478540
     96          6           0      -29.331583   -0.562269   -0.631294
     97          6           0      -29.518844    0.804997   -0.310785
     98          6           0      -28.137103    1.293042   -0.038936
     99          6           0      -30.334419   -1.543638   -1.048647
    100          6           0      -30.879819    1.673359   -0.212032
    101          8           0      -30.884579    2.783938    0.244032
    102          6           0      -32.262628    1.026227   -0.407756
    103          7           0      -25.317579    2.685236    0.100898
    104          6           0      -26.494493    3.269475    0.310734
    105          6           0      -26.415851    4.749653    0.571811
    106          6           0      -24.946015    4.833954    1.050931
    107          6           0      -24.365819    3.544073    0.375104
    108          6           0      -26.670539    5.660217   -0.718201
    109          6           0      -24.725126    4.915099    2.619654
    110          6           0      -25.806769    5.576151    3.522749
    111          7           0      -23.202151    0.804076    0.120997
    112          6           0      -22.407569    1.877567    0.355544
    113          6           0      -21.069295    1.514700    0.483837
    114          6           0      -21.071603    0.164794    0.276912
    115          6           0      -22.368235   -0.266673    0.078320
    116          6           0      -19.916165    2.446523    0.846272
    117          6           0      -20.151137   -0.981709    0.245164
    118          8           0      -18.933043   -1.072693    0.213402
    119          6           0      -21.096735   -2.252663    0.098087
    120          6           0      -20.598234   -3.039701   -1.016206
    121          8           0      -20.763177   -2.812761   -2.219039
    122          8           0      -19.702861   -3.912728   -0.509298
    123          6           0      -18.854619   -4.497055   -1.532592
    124          1           0      -27.794751   -2.919306   -1.002990
    125          1           0      -28.607552    3.291571    0.244631
    126          1           0      -22.341747    4.089480    0.778717
    127          1           0      -23.242625   -4.383212   -1.040482
    128          1           0      -25.951333   -4.580590   -0.349030
    129          1           0      -26.154055   -5.254687   -2.396380
    130          1           0      -24.593083   -4.528668   -2.819076
    131          1           0      -26.013214   -3.604073   -3.006616
    132          1           0      -24.758909   -4.542466    1.554557
    133          1           0      -23.125258   -3.973301    1.788644
    134          1           0      -24.112845   -6.677745    1.537622
    135          1           0      -22.636267   -6.092302    1.897489
    136          1           0      -30.016318   -2.563524   -0.833484
    137          1           0      -30.455835   -1.385124   -2.120341
    138          1           0      -31.299962   -1.430416   -0.555201
    139          1           0      -32.520150    0.296655    0.360003
    140          1           0      -32.257432    0.683230   -1.442603
    141          1           0      -33.032001    1.798499   -0.428924
    142          1           0      -27.199579    4.904135    1.313052
    143          1           0      -24.410736    5.689272    0.639333
    144          1           0      -27.355727    6.409513   -0.322409
    145          1           0      -27.147049    5.140339   -1.550065
    146          1           0      -25.798421    6.183020   -1.109011
    147          1           0      -23.758906    5.380231    2.809800
    148          1           0      -24.777943    3.858027    2.880863
    149          1           0      -26.563396    4.844882    3.806076
    150          1           0      -26.144986    6.424065    2.926115
    151          1           0      -25.378613    6.019833    4.420932
    152          1           0      -20.375726    3.221721    1.459897
    153          1           0      -19.490590    2.959530   -0.015678
    154          1           0      -19.172179    1.870002    1.395714
    155          1           0      -21.014940   -2.804963    1.035081
    156          1           0      -18.110860   -5.187423   -1.135730
    157          1           0      -18.440636   -3.812841   -2.273432
    158          1           0      -19.435471   -5.163822   -2.170810
 ---------------------------------------------------------------------

 SCF Done:  E(RPBE1PBE) =  -4067.32809526     A.U. after   16 cycles

 Excitation energies and oscillator strengths:

 Excited State   1:      Singlet-A      1.8469 eV  671.31 nm  f=0.3937  <S**2>=0.000
     309 -> 315       -0.16872
     311 -> 313        0.69416
     311 <- 313       -0.11312
 This state for optimization and/or second-order correction.
 Total Energy, E(TD-HF/TD-DFT) =  -4067.26022347
 Copying the excited state density for this state as the 1-particle RhoCI density.

 Excited State   2:      Singlet-A      1.8573 eV  667.55 nm  f=0.0000  <S**2>=0.000
     312 -> 313        0.70711

 Excited State   3:      Singlet-A      1.9474 eV  636.66 nm  f=0.3566  <S**2>=0.000
     310 -> 316        0.18525
     312 -> 314        0.68731

 Excited State   4:      Singlet-A      2.2121 eV  560.48 nm  f=0.1075  <S**2>=0.000
     309 -> 313        0.65179
     311 -> 315        0.25477

 Excited State   5:      Singlet-A      2.2389 eV  553.78 nm  f=0.0000  <S**2>=0.000
     311 -> 314        0.70711

 The electronic state is 1-A.
 Alpha  occ. eigenvalues --  -46.94177 -46.92732 -19.25686 -19.25541 -19.20482
 Alpha  occ. eigenvalues --  -19.20086 -19.19288 -19.19006 -19.18963 -19.17612
 Alpha  occ. eigenvalues --  -14.42403 -14.42279 -14.40753 -14.40716 -14.39571
 Alpha  occ. eigenvalues --  -14.39413 -14.38863 -14.38449 -10.35685 -10.35198
 Alpha  occ. eigenvalues --  -10.33922 -10.32158 -10.31808 -10.30676 -10.29908
 Alpha  occ. eigenvalues --  -10.29655 -10.29636 -10.29003 -10.28881 -10.28781
 Alpha  occ. eigenvalues --  -10.28564 -10.28211 -10.28094 -10.28013 -10.27778
 Alpha  occ. eigenvalues --  -10.27759 -10.27658 -10.27517 -10.27475 -10.26844
 Alpha  occ. eigenvalues --  -10.26831 -10.26825 -10.26715 -10.26643 -10.26602
 Alpha  occ. eigenvalues --  -10.26492 -10.26273 -10.26263 -10.26252 -10.26081
 Alpha  occ. eigenvalues --  -10.26000 -10.25903 -10.25803 -10.25779 -10.25715
 Alpha  occ. eigenvalues --  -10.25548 -10.25294 -10.25263 -10.25210 -10.25168
 Alpha  occ. eigenvalues --  -10.25152 -10.25151 -10.25099 -10.24965 -10.24795
 Alpha  occ. eigenvalues --  -10.24563 -10.24498 -10.24416 -10.24408 -10.24388
 Alpha  occ. eigenvalues --  -10.24360 -10.24220 -10.24019 -10.23894 -10.23889
 Alpha  occ. eigenvalues --  -10.23560 -10.23441 -10.23434 -10.23142 -10.23090
 Alpha  occ. eigenvalues --  -10.23025 -10.22999 -10.22880 -10.22806 -10.22632
 Alpha  occ. eigenvalues --  -10.21714  -3.15916  -3.14815  -1.88767  -1.88269
 Alpha  occ. eigenvalues --   -1.88131  -1.87657  -1.87206  -1.87023  -1.12696
 Alpha  occ. eigenvalues --   -1.11271  -1.07139  -1.04378  -1.04350  -1.03841
 Alpha  occ. eigenvalues --   -1.03571  -1.01436  -1.00419  -0.99739  -0.99715
 Alpha  occ. eigenvalues --   -0.99137  -0.98380  -0.98352  -0.98007  -0.97248
 Alpha  occ. eigenvalues --   -0.86914  -0.86776  -0.83688  -0.83343  -0.83198
 Alpha  occ. eigenvalues --   -0.82939  -0.82536  -0.82388  -0.82327  -0.81702
 Alpha  occ. eigenvalues --   -0.81250  -0.81225  -0.80197  -0.80149  -0.79152
 Alpha  occ. eigenvalues --   -0.78909  -0.78566  -0.77443  -0.76991  -0.76730
 Alpha  occ. eigenvalues --   -0.76602  -0.75878  -0.75201  -0.75057  -0.74899
 Alpha  occ. eigenvalues --   -0.74434  -0.72976  -0.72665  -0.71879  -0.71170
 Alpha  occ. eigenvalues --   -0.71124  -0.70956  -0.70766  -0.70086  -0.69793
 Alpha  occ. eigenvalues --   -0.69566  -0.67579  -0.67286  -0.66965  -0.66037
 Alpha  occ. eigenvalues --   -0.63947  -0.63768  -0.63615  -0.63135  -0.62396
 Alpha  occ. eigenvalues --   -0.62168  -0.61308  -0.61049  -0.60750  -0.60132
 Alpha  occ. eigenvalues --   -0.59895  -0.59570  -0.59512  -0.59201  -0.59110
 Alpha  occ. eigenvalues --   -0.58230  -0.57801  -0.56416  -0.55161  -0.54656
 Alpha  occ. eigenvalues --   -0.54535  -0.53977  -0.53814  -0.53564  -0.53476
 Alpha  occ. eigenvalues --   -0.52942  -0.52838  -0.52486  -0.52105  -0.51644
 Alpha  occ. eigenvalues --   -0.50989  -0.50979  -0.50591  -0.50156  -0.49992
 Alpha  occ. eigenvalues --   -0.49785  -0.49614  -0.49117  -0.49088  -0.48526
 Alpha  occ. eigenvalues --   -0.48191  -0.48189  -0.48011  -0.47968  -0.47758
 Alpha  occ. eigenvalues --   -0.47536  -0.47384  -0.47216  -0.47075  -0.46860
 Alpha  occ. eigenvalues --   -0.46800  -0.46289  -0.46052  -0.45999  -0.45909
 Alpha  occ. eigenvalues --   -0.45859  -0.45722  -0.45550  -0.45223  -0.44974
 Alpha  occ. eigenvalues --   -0.44723  -0.44698  -0.44497  -0.44254  -0.44197
 Alpha  occ. eigenvalues --   -0.43884  -0.43659  -0.43538  -0.43427  -0.43316
 Alpha  occ. eigenvalues --   -0.43278  -0.43229  -0.43066  -0.42852  -0.42764
 Alpha  occ. eigenvalues --   -0.42627  -0.42229  -0.42200  -0.42061  -0.41978
 Alpha  occ. eigenvalues --   -0.41705  -0.41641  -0.41552  -0.41430  -0.41414
 Alpha  occ. eigenvalues --   -0.41065  -0.40997  -0.40758  -0.40543  -0.40486
 Alpha  occ. eigenvalues --   -0.40251  -0.39914  -0.39809  -0.39788  -0.39644
 Alpha  occ. eigenvalues --   -0.39466  -0.39409  -0.39132  -0.39096  -0.38941
 Alpha  occ. eigenvalues --   -0.38821  -0.38802  -0.38645  -0.38449  -0.38391
 Alpha  occ. eigenvalues --   -0.38214  -0.38046  -0.37983  -0.37841  -0.37803
 Alpha  occ. eigenvalues --   -0.37648  -0.37537  -0.37481  -0.37373  -0.37129
 Alpha  occ. eigenvalues --   -0.37041  -0.37035  -0.36612  -0.36265  -0.36148
 Alpha  occ. eigenvalues --   -0.36144  -0.35911  -0.35571  -0.35324  -0.35004
 Alpha  occ. eigenvalues --   -0.34612  -0.34552  -0.34193  -0.34135  -0.33625
 Alpha  occ. eigenvalues --   -0.33585  -0.33150  -0.32967  -0.32869  -0.32529
 Alpha  occ. eigenvalues --   -0.32408  -0.32216  -0.31930  -0.31648  -0.31416
 Alpha  occ. eigenvalues --   -0.30830  -0.30675  -0.29789  -0.29394  -0.29336
 Alpha  occ. eigenvalues --   -0.29034  -0.28641  -0.27959  -0.27123  -0.26931
 Alpha  occ. eigenvalues --   -0.26551  -0.26134  -0.25958  -0.25690  -0.25501
 Alpha  occ. eigenvalues --   -0.25264  -0.25040  -0.24589  -0.21432  -0.20319
 Alpha  occ. eigenvalues --   -0.19231  -0.18857
 Alpha virt. eigenvalues --   -0.11765  -0.10744  -0.05740  -0.04617  -0.03883
 Alpha virt. eigenvalues --   -0.03595  -0.01988  -0.01801  -0.01511  -0.00417
 Alpha virt. eigenvalues --    0.00145   0.00602   0.01129   0.01314   0.01446

 Mulliken charges:
               1
     1  Mg  12.001502
     2  C    6.018821
     3  C    5.987751
     4  C    5.983171
     5  C    6.001745
     6  N    7.003589
     7  C    5.967470
     8  C    6.007779
     9  C    5.997512
    10  C    6.028247
    11  C    5.992371
    12  C    6.001684
    13  C    6.001120
    14  H    0.992755
    15  N    6.991010
    16  C    6.042547
    17  C    6.019409
    18  C    6.007461
    19  C    6.043165
    20  C    5.996843
    21  C    6.011024
    22  O    8.020919
    23  C    5.995628
    24  N    6.998907
    25  C    6.032029
    26  C    5.988523
    27  C    6.006491
    28  C    5.970298
    29  C    5.997586
    30  C    6.000561
    31  C    6.002037
    32  N    7.001254
    33  C    5.967943
    34  C    5.967105
    35  C    6.000212
    36  C    5.972083
    37  C    5.999919
    38  C    5.982510
    39  O    7.969082
    40  C    6.001586
    41  C    5.995684
    42  O    7.991600
    43  O    8.003519
    44  C    6.002541
    45  H    1.009366
    46  H    1.007330
    47  H    0.992157
    48  H    1.002141
    49  H    0.997000
    50  H    1.013267
    51  H    0.994949
    52  H    1.007667
    53  H    0.989016
    54  H    1.007845
    55  H    1.004767
    56  H    0.996957
    57  H    1.013978
    58  H    1.019690
    59  H    1.019462
    60  H    1.009092
    61  H    1.010569
    62  H    1.012138
    63  H    1.002431
    64  H    1.004160
    65  H    0.992683
    66  H    1.010010
    67  H    1.002187
    68  H    1.002688
    69  H    0.989874
    70  H    1.002168
    71  H    0.994388
    72  H    0.998013
    73  H    0.979818
    74  H    0.982771
    75  H    0.988618
    76  H    0.991259
    77  H    0.995890
    78  H    0.992842
    79  H    0.997815
    80  Mg  12.000011
    81  C    6.000128
    82  C    6.000027
    83  C    5.999903
    84  C    5.999996
    85  N    6.999987
    86  C    5.999947
    87  C    5.999997
    88  C    6.000018
    89  C    5.999876
    90  C    6.000018
    91  C    5.999971
    92  C    5.999996
    93  H    1.000009
    94  N    6.999995
    95  C    5.999884
    96  C    5.999970
    97  C    5.999858
    98  C    6.000026
    99  C    6.000000
   100  C    5.999936
   101  O    7.999922
   102  C    6.000029
   103  N    7.000034
   104  C    5.999967
   105  C    6.000023
   106  C    5.999980
   107  C    6.000037
   108  C    6.000005
   109  C    6.000000
   110  C    5.999995
   111  N    6.999992
   112  C    6.000126
   113  C    6.000024
   114  C    6.000087
   115  C    6.000030
   116  C    6.000046
   117  C    6.000054
   118  O    8.000137
   119  C    5.999984
   120  C    6.000043
   121  O    7.999992
   122  O    8.000003
   123  C    5.999991
   124  H    0.999950
   125  H    0.999989
   126  H    1.000026
   127  H    1.000000
   128  H    1.000000
   129  H    0.999982
   130  H    0.999971
   131  H    0.999988
   132  H    1.000024
   133  H    1.000008
   134  H    1.000006
   135  H    1.000034
   136  H    0.999960
   137  H    0.999932
   138  H    0.999946
   139  H    0.999976
   140  H    0.999965
   141  H    0.999933
   142  H    1.000006
   143  H    0.999993
   144  H    0.999967
   145  H    0.999989
   146  H    0.999959
   147  H    1.000010
   148  H    1.000011
   149  H    1.000019
   150  H    0.999992
   151  H    1.000012
   152  H    1.000046
   153  H    1.000055
   154  H    1.000077
   155  H    1.000052
   156  H    1.000065
   157  H    1.000005
   158  H    0.999998
 Sum of Mulliken charges = 624.00000

 Dipole moment (field-independent basis, Debye):
    X=              6.4208    Y=              3.5555    Z=             -7.6520  Tot=             10.6029
 Quadrupole moment (field-independent basis, Debye-Ang):
   XX=            318.8456   YY=              0.9294   ZZ=              0.1894
   XY=             91.8372   XZ=           -195.3218   YZ=             -1.5647

 Normal termination of Gaussian 16 at Thu Oct 14 05:57:00 2021.
