 Gaussian 16, Revision A.03,
 Gaussian 16:  ES64L-G16RevA.03 25-Dec-2016

 --------------------------------------------------------
 #p PBE1PBE/Def2SVP td=(nstates=5) density=(transition=1)
 --------------------------------------------------------

 --------------------------------
 TDDFT excited states in gaussian
 --------------------------------
 Symbolic Z-matrix:
 Charge =  0 Multiplicity = 1

                         Standard orientation:
 ---------------------------------------------------------------------
 Center     Atomic      Atomic             Coordinates (Angstroms)
 Number     Number       Type             X           Y           Z
 ---------------------------------------------------------------------
      1         12           0      -26.112885   -0.553192   -0.162893
      2          6           0      -24.255939    2.624719   -0.678788
      3          6           0      -26.441536    0.539311    3.018669
      4          6           0      -27.422219   -3.412771    0.232169
      5          6           0      -24.787509   -1.558469   -3.310387
      6          7           0      -25.374610    1.329927    1.000419
      7          6           0      -24.827016    2.514742    0.538329
      8          6           0      -24.844110    3.664250    1.552410
      9          6           0      -25.121837    2.834075    2.843543
     10          6           0      -25.681509    1.464500    2.295783
     11          6           0      -23.938672    2.628120    3.736073
     12          6           0      -25.830113    4.848345    1.275600
     13          6           0      -25.445493    6.208912    1.752722
     14          1           0      -26.594599    7.066784    2.272746
     15          7           0      -26.903669   -1.355065    1.435651
     16          6           0      -27.017587   -0.732029    2.696075
     17          6           0      -27.840496   -1.567863    3.521949
     18          6           0      -28.248693   -2.649901    2.626832
     19          6           0      -27.531436   -2.479325    1.415108
     20          6           0      -28.307781   -1.217168    4.982944
     21          6           0      -29.234163   -3.726186    2.965621
     22          8           0      -29.494966   -4.664070    2.173309
     23          6           0      -30.014363   -3.746782    4.229133
     24          7           0      -26.004699   -2.314377   -1.247581
     25          6           0      -26.673455   -3.410475   -0.883874
     26          6           0      -26.565017   -4.587388   -1.905726
     27          6           0      -26.110095   -3.764601   -3.168276
     28          6           0      -25.547190   -2.458071   -2.544860
     29          6           0      -25.489045   -5.639254   -1.484227
     30          6           0      -27.320716   -3.427555   -4.136524
     31          6           0      -28.222997   -4.570050   -4.648376
     32          7           0      -24.835797    0.332806   -1.716751
     33          6           0      -24.466230   -0.201305   -2.945928
     34          6           0      -23.617227    0.734316   -3.645590
     35          6           0      -23.542147    1.860270   -2.815775
     36          6           0      -24.224822    1.552440   -1.606985
     37          6           0      -23.074588    0.590708   -5.027709
     38          6           0      -22.990335    3.205045   -2.715847
     39          8           0      -22.346387    3.917916   -3.474202
     40          6           0      -23.560937    3.745057   -1.303686
     41          6           0      -22.406314    4.258688   -0.586928
     42          8           0      -21.417192    3.612632   -0.206758
     43          8           0      -22.365707    5.609824   -0.780057
     44          6           0      -21.284117    6.363446   -0.231715
     45          1           0      -26.636576    1.016696    3.981412
     46          1           0      -27.861893   -4.407903    0.324267
     47          1           0      -24.424486   -1.917520   -4.276057
     48          1           0      -23.830398    4.062495    1.600813
     49          1           0      -25.967936    3.249182    3.390377
     50          1           0      -23.630524    1.589098    3.619367
     51          1           0      -24.238735    2.749004    4.776862
     52          1           0      -23.063275    3.252466    3.558343
     53          1           0      -26.757310    4.612825    1.797256
     54          1           0      -26.050987    4.841854    0.208569
     55          1           0      -25.024686    6.679009    0.864113
     56          1           0      -24.564062    6.194738    2.393946
     57          1           0      -29.351087   -0.919663    5.084078
     58          1           0      -27.653157   -0.477149    5.442535
     59          1           0      -28.124191   -2.162455    5.495165
     60          1           0      -29.351225   -4.064176    5.034282
     61          1           0      -30.805230   -4.480869    4.072642
     62          1           0      -30.449124   -2.753899    4.339420
     63          1           0      -27.560254   -5.030594   -1.953776
     64          1           0      -25.314774   -4.213069   -3.762854
     65          1           0      -26.032194   -6.552426   -1.239629
     66          1           0      -24.817783   -5.338417   -0.680514
     67          1           0      -24.942943   -5.775571   -2.418736
     68          1           0      -26.918269   -2.990397   -5.050013
     69          1           0      -27.884012   -2.633287   -3.647012
     70          1           0      -29.223694   -4.301951   -4.309845
     71          1           0      -27.874470   -5.446962   -4.102044
     72          1           0      -28.210077   -4.660642   -5.734424
     73          1           0      -23.635493   -0.243092   -5.450547
     74          1           0      -22.022193    0.332029   -4.911222
     75          1           0      -23.121124    1.503531   -5.621560
     76          1           0      -24.289912    4.534966   -1.483708
     77          1           0      -20.598521    5.733497    0.335479
     78          1           0      -21.751059    7.059283    0.465447
     79          1           0      -20.807042    6.981227   -0.991202
     80         12           0       25.029288   -0.837870    0.094973
     81          6           0       26.790262    2.229711   -0.462076
     82          6           0       23.399858    0.632430    2.736390
     83          6           0       23.673538   -3.800560    0.985043
     84          6           0       27.441173   -2.405306   -1.946426
     85          7           0       25.100652    1.194839    0.994849
     86          6           0       25.824170    2.326572    0.587083
     87          6           0       25.420133    3.503052    1.438164
     88          6           0       24.773184    2.798958    2.704569
     89          6           0       24.438915    1.391298    2.129242
     90          6           0       25.859643    2.750448    3.837315
     91          6           0       24.546495    4.569493    0.687965
     92          6           0       25.000564    5.905620    1.000814
     93          1           0       24.430915    7.061404    0.034177
     94          7           0       23.580717   -1.370281    1.569356
     95          6           0       23.017253   -0.617690    2.521937
     96          6           0       22.023690   -1.386729    3.206206
     97          6           0       22.083969   -2.683600    2.741055
     98          6           0       23.145181   -2.683534    1.631205
     99          6           0       21.225401   -0.819572    4.422828
    100          6           0       21.209114   -3.894951    3.124021
    101          8           0       21.442280   -4.966385    2.624397
    102          6           0       20.018864   -3.730467    4.039415
    103          7           0       25.697094   -2.847495   -0.222054
    104          6           0       24.848687   -3.880956    0.159744
    105          6           0       25.232134   -5.158274   -0.513941
    106          6           0       26.435352   -4.713225   -1.480469
    107          6           0       26.504881   -3.219694   -1.265240
    108          6           0       25.539673   -6.258036    0.445337
    109          6           0       26.319812   -5.109768   -3.053505
    110          6           0       27.358716   -5.989596   -3.627894
    111          7           0       26.744799   -0.265183   -1.044534
    112          6           0       27.594716   -1.041132   -1.800033
    113          6           0       28.604835   -0.110274   -2.467866
    114          6           0       28.257617    1.194302   -2.063197
    115          6           0       27.151649    1.040589   -1.155579
    116          6           0       29.758744   -0.578705   -3.364861
    117          6           0       28.716467    2.549070   -2.122615
    118          8           0       29.664008    3.056883   -2.763784
    119          6           0       27.903401    3.259960   -0.964237
    120          6           0       27.420070    4.611888   -1.570032
    121          8           0       26.249613    4.747049   -1.971290
    122          8           0       28.409422    5.534655   -1.483715
    123          6           0       27.995232    6.758045   -2.253041
    124          1           0       22.720785    1.141738    3.423888
    125          1           0       23.236843   -4.768599    1.241932
    126          1           0       28.166804   -2.782047   -2.670111
    127          1           0       26.351875    3.945743    1.789544
    128          1           0       23.906275    3.346676    3.072420
    129          1           0       26.639688    2.009945    3.662186
    130          1           0       25.362124    2.588820    4.792641
    131          1           0       26.333647    3.729634    3.909127
    132          1           0       23.559019    4.530914    1.148476
    133          1           0       24.468750    4.357392   -0.378634
    134          1           0       26.068782    6.012330    0.811310
    135          1           0       24.717843    6.112544    2.033268
    136          1           0       20.188544   -0.970680    4.122636
    137          1           0       21.366522    0.245002    4.608951
    138          1           0       21.516869   -1.343312    5.333140
    139          1           0       19.572725   -4.699163    4.264832
    140          1           0       19.428745   -3.114289    3.361114
    141          1           0       20.353560   -3.215803    4.940035
    142          1           0       24.343629   -5.389995   -1.101575
    143          1           0       27.333694   -5.197286   -1.098178
    144          1           0       24.712183   -6.956642    0.328264
    145          1           0       25.482298   -5.943339    1.487231
    146          1           0       26.503545   -6.748128    0.306096
    147          1           0       26.450571   -4.142161   -3.537929
    148          1           0       25.301133   -5.450853   -3.233164
    149          1           0       27.924892   -5.476034   -4.404505
    150          1           0       26.674650   -6.680180   -4.119912
    151          1           0       27.933258   -6.528303   -2.873136
    152          1           0       30.619638   -0.680016   -2.704977
    153          1           0       29.988623    0.134215   -4.156638
    154          1           0       29.468739   -1.506296   -3.858449
    155          1           0       28.654624    3.397895   -0.187788
    156          1           0       28.033309    6.653118   -3.337188
    157          1           0       28.544790    7.664054   -1.999706
    158          1           0       26.980426    6.978835   -1.921491
 ---------------------------------------------------------------------

 SCF Done:  E(RPBE1PBE) =  -4067.34242037     A.U. after   16 cycles

 Excitation energies and oscillator strengths:

 Excited State   1:      Singlet-A      1.5370 eV  806.65 nm  f=0.0000  <S**2>=0.000
     312 -> 313        0.70711
 This state for optimization and/or second-order correction.
 Total Energy, E(TD-HF/TD-DFT) =  -4067.28593538
 Copying the excited state density for this state as the 1-particle RhoCI density.

 Excited State   2:      Singlet-A      1.8204 eV  681.09 nm  f=0.3632  <S**2>=0.000
     309 -> 316       -0.15128
     311 -> 313        0.70061
     311 <- 313       -0.12604

 Excited State   3:      Singlet-A      1.8312 eV  677.05 nm  f=0.3467  <S**2>=0.000
     310 -> 315        0.18210
     312 -> 314        0.68925

 Excited State   4:      Singlet-A      2.2731 eV  545.45 nm  f=0.0126  <S**2>=0.000
     310 -> 314        0.57939
     312 -> 315       -0.39823

 Excited State   5:      Singlet-A      2.3893 eV  518.92 nm  f=0.0000  <S**2>=0.000
     310 -> 313        0.70711

 The electronic state is 1-A.
 Alpha  occ. eigenvalues --  -46.92795 -46.92342 -19.26833 -19.25388 -19.20061
 Alpha  occ. eigenvalues --  -19.20048 -19.19562 -19.19454 -19.19162 -19.17807
 Alpha  occ. eigenvalues --  -14.41709 -14.41681 -14.41483 -14.41099 -14.39420
 Alpha  occ. eigenvalues --  -14.39227 -14.38910 -14.38907 -10.36778 -10.36047
 Alpha  occ. eigenvalues --  -10.33060 -10.32587 -10.32202 -10.31241 -10.29131
 Alpha  occ. eigenvalues --  -10.28892 -10.28872 -10.28835 -10.28784 -10.28594
 Alpha  occ. eigenvalues --  -10.28583 -10.28452 -10.28444 -10.28387 -10.28331
 Alpha  occ. eigenvalues --  -10.28293 -10.28005 -10.27663 -10.27213 -10.26869
 Alpha  occ. eigenvalues --  -10.26726 -10.26696 -10.26647 -10.26467 -10.26404
 Alpha  occ. eigenvalues --  -10.26293 -10.26191 -10.26075 -10.26074 -10.26037
 Alpha  occ. eigenvalues --  -10.26024 -10.25871 -10.25781 -10.25745 -10.25536
 Alpha  occ. eigenvalues --  -10.25518 -10.25469 -10.25284 -10.25260 -10.25251
 Alpha  occ. eigenvalues --  -10.25248 -10.25215 -10.25136 -10.25042 -10.24778
 Alpha  occ. eigenvalues --  -10.24604 -10.24583 -10.24151 -10.24069 -10.24062
 Alpha  occ. eigenvalues --  -10.24026 -10.23768 -10.23665 -10.23593 -10.23584
 Alpha  occ. eigenvalues --  -10.23572 -10.23500 -10.23480 -10.23196 -10.23164
 Alpha  occ. eigenvalues --  -10.23092 -10.22902 -10.22883 -10.22783 -10.22705
 Alpha  occ. eigenvalues --  -10.22496  -3.14717  -3.14579  -1.87552  -1.87389
 Alpha  occ. eigenvalues --   -1.87078  -1.86950  -1.86940  -1.86825  -1.11233
 Alpha  occ. eigenvalues --   -1.10845  -1.06256  -1.04901  -1.02721  -1.02292
 Alpha  occ. eigenvalues --   -1.01966  -1.01724  -0.99681  -0.98615  -0.98555
 Alpha  occ. eigenvalues --   -0.98361  -0.97567  -0.97354  -0.97178  -0.96240
 Alpha  occ. eigenvalues --   -0.87988  -0.85669  -0.83763  -0.83181  -0.83144
 Alpha  occ. eigenvalues --   -0.82914  -0.82482  -0.82390  -0.81817  -0.81578
 Alpha  occ. eigenvalues --   -0.81496  -0.81174  -0.80555  -0.79929  -0.79001
 Alpha  occ. eigenvalues --   -0.78669  -0.78321  -0.78135  -0.77432  -0.76851
 Alpha  occ. eigenvalues --   -0.76527  -0.76382  -0.75487  -0.75118  -0.75038
 Alpha  occ. eigenvalues --   -0.74781  -0.72911  -0.72359  -0.71852  -0.71759
 Alpha  occ. eigenvalues --   -0.71619  -0.70906  -0.70564  -0.69842  -0.69807
 Alpha  occ. eigenvalues --   -0.69223  -0.67781  -0.66585  -0.65951  -0.65379
 Alpha  occ. eigenvalues --   -0.63663  -0.63123  -0.63053  -0.62573  -0.62325
 Alpha  occ. eigenvalues --   -0.61854  -0.61425  -0.60704  -0.60104  -0.59605
 Alpha  occ. eigenvalues --   -0.59516  -0.59509  -0.59345  -0.58995  -0.58990
 Alpha  occ. eigenvalues --   -0.58803  -0.56680  -0.56593  -0.55422  -0.54391
 Alpha  occ. eigenvalues --   -0.54363  -0.53985  -0.53681  -0.53330  -0.53007
 Alpha  occ. eigenvalues --   -0.52912  -0.52825  -0.52375  -0.52024  -0.51544
 Alpha  occ. eigenvalues --   -0.50499  -0.50415  -0.50157  -0.50021  -0.49653
 Alpha  occ. eigenvalues --   -0.49437  -0.49221  -0.48902  -0.48749  -0.48568
 Alpha  occ. eigenvalues --   -0.48254  -0.48102  -0.48053  -0.47857  -0.47584
 Alpha  occ. eigenvalues --   -0.47329  -0.47323  -0.47149  -0.47059  -0.47027
 Alpha  occ. eigenvalues --   -0.47027  -0.46476  -0.46468  -0.46030  -0.45783
 Alpha  occ. eigenvalues --   -0.45603  -0.45544  -0.45202  -0.45041  -0.44908
 Alpha  occ. eigenvalues --   -0.44882  -0.44562  -0.44521  -0.44416  -0.44366
 Alpha  occ. eigenvalues --   -0.44049  -0.44002  -0.43873  -0.43824  -0.43457
 Alpha  occ. eigenvalues --   -0.43418  -0.43299  -0.43003  -0.42828  -0.42817
 Alpha  occ. eigenvalues --   -0.42567  -0.42528  -0.42481  -0.42300  -0.42135
 Alpha  occ. eigenvalues --   -0.41964  -0.41337  -0.41271  -0.41209  -0.41065
 Alpha  occ. eigenvalues --   -0.40988  -0.40912  -0.40901  -0.40738  -0.40505
 Alpha  occ. eigenvalues --   -0.40157  -0.40104  -0.39935  -0.39648  -0.39539
 Alpha  occ. eigenvalues --   -0.39484  -0.39272  -0.39263  -0.39084  -0.38802
 Alpha  occ. eigenvalues --   -0.38773  -0.38505  -0.38476  -0.38273  -0.38156
 Alpha  occ. eigenvalues --   -0.37892  -0.37810  -0.37782  -0.37653  -0.37609
 Alpha  occ. eigenvalues --   -0.37529  -0.37256  -0.37050  -0.36865  -0.36858
 Alpha  occ. eigenvalues --   -0.36820  -0.36392  -0.36392  -0.36147  -0.36037
 Alpha  occ. eigenvalues --   -0.35716  -0.35669  -0.35534  -0.35105  -0.34709
 Alpha  occ. eigenvalues --   -0.34690  -0.34379  -0.34231  -0.33735  -0.33567
 Alpha  occ. eigenvalues --   -0.33458  -0.33122  -0.32950  -0.32780  -0.32260
 Alpha  occ. eigenvalues --   -0.32257  -0.32085  -0.31966  -0.31509  -0.31157
 Alpha  occ. eigenvalues --   -0.30692  -0.29923  -0.29846  -0.29276  -0.29100
 Alpha  occ. eigenvalues --   -0.28971  -0.28677  -0.28359  -0.27226  -0.27100
 Alpha  occ. eigenvalues --   -0.26282  -0.25987  -0.25948  -0.25759  -0.25509
 Alpha  occ. eigenvalues --   -0.25471  -0.25070  -0.24729  -0.21251  -0.21050
 Alpha  occ. eigenvalues --   -0.19317  -0.17915
 Alpha virt. eigenvalues --   -0.12009  -0.10253  -0.05871  -0.04436  -0.04229
 Alpha virt. eigenvalues --   -0.03940  -0.02248  -0.01966  -0.01033  -0.00895
 Alpha virt. eigenvalues --   -0.00479   0.00482   0.00922   0.01034   0.01512

 Mulliken charges:
               1
     1  Mg  12.000000
     2  C    6.000000
     3  C    6.000000
     4  C    6.000000
     5  C    6.000000
     6  N    7.000000
     7  C    6.000000
     8  C    6.000000
     9  C    6.000000
    10  C    6.000000
    11  C    6.000000
    12  C    6.000000
    13  C    6.000000
    14  H    1.000000
    15  N    7.000000
    16  C    6.000000
    17  C    6.000000
    18  C    6.000000
    19  C    6.000000
    20  C    6.000000
    21  C    6.000000
    22  O    8.000000
    23  C    6.000000
    24  N    7.000000
    25  C    6.000000
    26  C    6.000000
    27  C    6.000000
    28  C    6.000000
    29  C    6.000000
    30  C    6.000000
    31  C    6.000000
    32  N    7.000000
    33  C    6.000000
    34  C    6.000000
    35  C    6.000000
    36  C    6.000000
    37  C    6.000000
    38  C    6.000000
    39  O    8.000000
    40  C    6.000000
    41  C    6.000000
    42  O    8.000000
    43  O    8.000000
    44  C    6.000000
    45  H    1.000000
    46  H    1.000000
    47  H    1.000000
    48  H    1.000000
    49  H    1.000000
    50  H    1.000000
    51  H    1.000000
    52  H    1.000000
    53  H    1.000000
    54  H    1.000000
    55  H    1.000000
    56  H    1.000000
    57  H    1.000000
    58  H    1.000000
    59  H    1.000000
    60  H    1.000000
    61  H    1.000000
    62  H    1.000000
    63  H    1.000000
    64  H    1.000000
    65  H    1.000000
    66  H    1.000000
    67  H    1.000000
    68  H    1.000000
    69  H    1.000000
    70  H    1.000000
    71  H    1.000000
    72  H    1.000000
    73  H    1.000000
    74  H    1.000000
    75  H    1.000000
    76  H    1.000000
    77  H    1.000000
    78  H    1.000000
    79  H    1.000000
    80  Mg  12.000000
    81  C    6.000000
    82  C    6.000000
    83  C    6.000000
    84  C    6.000000
    85  N    7.000000
    86  C    6.000000
    87  C    6.000000
    88  C    6.000000
    89  C    6.000000
    90  C    6.000000
    91  C    6.000000
    92  C    6.000000
    93  H    1.000000
    94  N    7.000000
    95  C    6.000000
    96  C    6.000000
    97  C    6.000000
    98  C    6.000000
    99  C    6.000000
   100  C    6.000000
   101  O    8.000000
   102  C    6.000000
   103  N    7.000000
   104  C    6.000000
   105  C    6.000000
   106  C    6.000000
   107  C    6.000000
   108  C    6.000000
   109  C    6.000000
   110  C    6.000000
   111  N    7.000000
   112  C    6.000000
   113  C    6.000000
   114  C    6.000000
   115  C    6.000000
   116  C    6.000000
   117  C    6.000000
   118  O    8.000000
   119  C    6.000000
   120  C    6.000000
   121  O    8.000000
   122  O    8.000000
   123  C    6.000000
   124  H    1.000000
   125  H    1.000000
   126  H    1.000000
   127  H    1.000000
   128  H    1.000000
   129  H    1.000000
   130  H    1.000000
   131  H    1.000000
   132  H    1.000000
   133  H    1.000000
   134  H    1.000000
   135  H    1.000000
   136  H    1.000000
   137  H    1.000000
   138  H    1.000000
   139  H    1.000000
   140  H    1.000000
   141  H    1.000000
   142  H    1.000000
   143  H    1.000000
   144  H    1.000000
   145  H    1.000000
   146  H    1.000000
   147  H    1.000000
   148  H    1.000000
   149  H    1.000000
   150  H    1.000000
   151  H    1.000000
   152  H    1.000000
   153  H    1.000000
   154  H    1.000000
   155  H    1.000000
   156  H    1.000000
   157  H    1.000000
   158  H    1.000000
 Sum of Mulliken charges = 624.00000

 Dipole moment (field-independent basis, Debye):
    X=              0.0000    Y=             -0.0000    Z=             -0.0000  Tot=              0.0000
 Quadrupole moment (field-independent basis, Debye-Ang):
   XX=             -0.0000   YY=              0.0000   ZZ=             -0.0000
   XY=             -0.0000   XZ=              0.0000   YZ=              0.0000

 Normal termination of Gaussian 16 at Thu Oct 14 01:52:33 2021.
