 Gaussian 16, Revision A.03,
 Gaussian 16:  ES64L-G16RevA.03 25-Dec-2016

 --------------------------------------------------------
 #p PBE1PBE/Def2SVP td=(nstates=5) density=(transition=1)
 --------------------------------------------------------

 --------------------------------
 TDDFT excited states in gaussian
 --------------------------------
 Symbolic Z-matrix:
 Charge =  0 Multiplicity = 1

                         Standard orientation:
 ---------------------------------------------------------------------
 Center     Atomic      Atomic             Coordinates (Angstroms)
 Number     Number       Type             X           Y           Z
 ---------------------------------------------------------------------
      1         12           0       -9.060275    0.247165   -0.721659
      2          6           0       -7.998597    0.043073    2.618621
      3          6           0       -8.832249    3.629138   -0.492328
      4          6           0       -9.626500    0.259312   -3.942782
      5          6           0       -8.371437   -3.284725   -0.854546
      6          7           0       -8.550813    1.626751    0.893757
      7          6           0       -8.130263    1.337696    2.161203
      8          6           0       -7.576453    2.625782    2.788479
      9          6           0       -8.354527    3.699591    2.035997
     10          6           0       -8.503084    2.958820    0.693191
     11          6           0       -9.728189    4.007154    2.675603
     12          6           0       -6.022865    2.748777    2.571434
     13          6           0       -5.062757    2.667239    3.857800
     14          1           0       -4.022738    1.537163    3.943579
     15          7           0       -9.152929    1.731703   -2.050702
     16          6           0       -9.056292    3.073904   -1.763524
     17          6           0       -9.371247    3.806766   -2.949760
     18          6           0       -9.737449    2.887621   -3.987955
     19          6           0       -9.514356    1.547468   -3.372082
     20          6           0       -9.345821    5.371805   -3.026644
     21          6           0      -10.266194    3.300576   -5.409393
     22          8           0      -10.478274    4.447415   -5.658149
     23          6           0      -10.750761    2.250857   -6.297422
     24          7           0       -8.697337   -1.252859   -2.258962
     25          6           0       -9.389329   -1.017312   -3.398985
     26          6           0       -9.842280   -2.288078   -4.098208
     27          6           0       -9.127888   -3.383987   -3.322162
     28          6           0       -8.682209   -2.599058   -2.039704
     29          6           0      -11.404895   -2.472279   -4.085179
     30          6           0       -7.914382   -4.173664   -4.005514
     31          6           0       -8.047286   -5.602995   -4.458198
     32          7           0       -8.545113   -1.341721    0.599687
     33          6           0       -8.302462   -2.708910    0.414823
     34          6           0       -7.870429   -3.345124    1.640466
     35          6           0       -7.768762   -2.302050    2.527843
     36          6           0       -8.156294   -1.081956    1.882094
     37          6           0       -7.545978   -4.772589    1.795350
     38          6           0       -7.415729   -1.963802    3.898118
     39          8           0       -7.112308   -2.706227    4.840179
     40          6           0       -7.651642   -0.474961    4.041335
     41          6           0       -8.737623   -0.288511    5.095340
     42          8           0       -9.847371   -0.797127    4.954087
     43          8           0       -8.250911    0.386775    6.225405
     44          6           0       -9.216318    0.567382    7.276446
     45          1           0       -8.900360    4.707887   -0.339070
     46          1           0      -10.125793    0.302194   -4.911981
     47          1           0       -8.272926   -4.372224   -0.877077
     48          1           0       -7.707457    2.529662    3.866591
     49          1           0       -7.736632    4.595637    1.992935
     50          1           0       -9.647720    5.092859    2.716251
     51          1           0       -9.691204    3.523991    3.652370
     52          1           0      -10.611398    3.675185    2.129724
     53          1           0       -5.835188    3.732505    2.141308
     54          1           0       -5.739228    2.028322    1.804643
     55          1           0       -5.729693    2.481569    4.700058
     56          1           0       -4.539081    3.592893    4.093606
     57          1           0       -8.801758    5.834839   -3.849286
     58          1           0       -8.893073    5.702415   -2.091295
     59          1           0      -10.344572    5.807309   -3.062066
     60          1           0      -10.011203    1.486272   -6.536246
     61          1           0      -11.089807    2.714906   -7.223562
     62          1           0      -11.699542    1.859705   -5.932682
     63          1           0       -9.595454   -2.292760   -5.160410
     64          1           0       -9.844417   -4.126957   -2.971863
     65          1           0      -11.883746   -2.161005   -5.013414
     66          1           0      -11.817439   -2.018666   -3.184002
     67          1           0      -11.597762   -3.541699   -3.988706
     68          1           0       -6.923477   -4.071768   -3.564306
     69          1           0       -7.885967   -3.554692   -4.902664
     70          1           0       -7.991098   -5.723563   -5.539590
     71          1           0       -9.013069   -5.997405   -4.141357
     72          1           0       -7.229804   -6.120590   -3.956807
     73          1           0       -7.251515   -5.153442    0.817044
     74          1           0       -8.483659   -5.255127    2.072509
     75          1           0       -6.814505   -4.931791    2.586305
     76          1           0       -6.695975   -0.123197    4.427639
     77          1           0       -9.942457    1.360169    7.094717
     78          1           0       -8.735425    0.797974    8.226645
     79          1           0       -9.806322   -0.320451    7.502310
     80         12           0        9.240542    0.382140   -0.046115
     81          6           0        7.151359   -2.250075    0.577337
     82          6           0        7.057088    2.529562    1.266672
     83          6           0       11.270668    2.774055   -0.929220
     84          6           0       11.200128   -1.909301   -1.946609
     85          7           0        7.207017    0.190039    0.687332
     86          6           0        6.698820   -1.003822    1.082866
     87          6           0        5.581446   -0.836633    2.075941
     88          6           0        5.393975    0.733391    2.050008
     89          6           0        6.569169    1.202428    1.219887
     90          6           0        4.010792    1.210719    1.546099
     91          6           0        5.866374   -1.531515    3.543368
     92          6           0        4.761759   -2.392498    4.174859
     93          1           0        3.295924   -2.105288    3.721277
     94          7           0        9.256813    2.274760    0.283826
     95          6           0        8.285166    3.047960    0.834974
     96          6           0        8.580263    4.458994    0.779023
     97          6           0        9.867871    4.526829    0.339697
     98          6           0       10.129815    3.171661   -0.237141
     99          6           0        7.466794    5.416111    1.163322
    100          6           0       10.786209    5.759720    0.224577
    101          8           0       11.902891    5.731990   -0.237997
    102          6           0       10.157582    7.032710    0.709245
    103          7           0       10.901331    0.412783   -1.423181
    104          6           0       11.621628    1.547593   -1.477409
    105          6           0       12.903429    1.343392   -2.291066
    106          6           0       13.038658   -0.216320   -2.343806
    107          6           0       11.616515   -0.620081   -1.903651
    108          6           0       13.008525    2.028258   -3.719927
    109          6           0       14.092728   -0.860850   -1.366748
    110          6           0       14.034743   -0.684244    0.127805
    111          7           0        9.313556   -1.682721   -0.558273
    112          6           0       10.097847   -2.474618   -1.403218
    113          6           0        9.627757   -3.865517   -1.431368
    114          6           0        8.463115   -3.827282   -0.650098
    115          6           0        8.353984   -2.485826   -0.165547
    116          6           0       10.274431   -5.058578   -2.087067
    117          6           0        7.391927   -4.565752   -0.157701
    118          8           0        7.033730   -5.722675   -0.313654
    119          6           0        6.630319   -3.655893    0.840631
    120          6           0        5.217509   -3.864620    0.448847
    121          8           0        4.653016   -3.326083   -0.506429
    122          8           0        4.630408   -4.828723    1.215999
    123          6           0        3.342191   -5.394103    0.802533
    124          1           0        6.413803    3.171449    1.872536
    125          1           0       12.022762    3.511823   -1.213875
    126          1           0       11.913647   -2.502332   -2.523815
    127          1           0        4.648639   -1.233236    1.674947
    128          1           0        5.574123    1.124944    3.050938
    129          1           0        4.114296    1.572407    0.523153
    130          1           0        3.684527    2.042422    2.170556
    131          1           0        3.349635    0.345274    1.592144
    132          1           0        6.089254   -0.694070    4.204623
    133          1           0        6.720247   -2.205874    3.486416
    134          1           0        4.707063   -2.206785    5.247199
    135          1           0        5.017808   -3.447731    4.080623
    136          1           0        6.573201    5.361472    0.541349
    137          1           0        7.589747    6.490374    1.026993
    138          1           0        7.337867    5.166666    2.216553
    139          1           0        9.819624    6.926928    1.739845
    140          1           0        9.399161    7.209075   -0.053227
    141          1           0       10.777012    7.924554    0.797263
    142          1           0       13.642733    1.838333   -1.660326
    143          1           0       13.155362   -0.520883   -3.384102
    144          1           0       12.096470    2.589961   -3.920345
    145          1           0       13.011563    1.276856   -4.508646
    146          1           0       13.880962    2.659927   -3.893921
    147          1           0       15.005151   -0.432424   -1.782309
    148          1           0       14.141509   -1.944301   -1.470861
    149          1           0       13.279829    0.062527    0.377300
    150          1           0       14.984353   -0.304670    0.504681
    151          1           0       13.734070   -1.555842    0.708851
    152          1           0        9.733411   -5.390460   -2.972103
    153          1           0       10.347918   -5.877316   -1.371066
    154          1           0       11.225452   -4.657144   -2.437978
    155          1           0        6.864183   -3.903095    1.876313
    156          1           0        3.192301   -6.403053    1.188601
    157          1           0        3.164765   -5.267816   -0.264396
    158          1           0        2.494567   -4.819221    1.175104
 ---------------------------------------------------------------------

 SCF Done:  E(RPBE1PBE) =  -4067.37393155     A.U. after   16 cycles

 Excitation energies and oscillator strengths:

 Excited State   1:      Singlet-A      1.8025 eV  687.83 nm  f=0.0000  <S**2>=0.000
     312 -> 313        0.70708
 This state for optimization and/or second-order correction.
 Total Energy, E(TD-HF/TD-DFT) =  -4067.30768951
 Copying the excited state density for this state as the 1-particle RhoCI density.

 Excited State   2:      Singlet-A      1.8777 eV  660.32 nm  f=0.2751  <S**2>=0.000
     309 -> 315        0.18045
     311 -> 313        0.67985
     312 -> 314       -0.11842

 Excited State   3:      Singlet-A      1.8952 eV  654.21 nm  f=0.4237  <S**2>=0.000
     310 -> 316        0.18414
     311 -> 313        0.11826
     312 -> 314        0.67780

 Excited State   4:      Singlet-A      2.0529 eV  603.95 nm  f=0.0000  <S**2>=0.000
     311 -> 314        0.70710

 Excited State   5:      Singlet-A      2.2577 eV  549.17 nm  f=0.0672  <S**2>=0.000
     310 -> 314        0.63647
     312 -> 316       -0.29789

 The electronic state is 1-A.
 Alpha  occ. eigenvalues --  -46.92070 -46.91305 -19.26693 -19.24529 -19.20794
 Alpha  occ. eigenvalues --  -19.19885 -19.19299 -19.18928 -19.18562 -19.18032
 Alpha  occ. eigenvalues --  -14.41624 -14.41593 -14.41115 -14.40512 -14.39483
 Alpha  occ. eigenvalues --  -14.39067 -14.38990 -14.38436 -10.37282 -10.35242
 Alpha  occ. eigenvalues --  -10.32856 -10.32203 -10.31654 -10.30765 -10.28861
 Alpha  occ. eigenvalues --  -10.28847 -10.28749 -10.28535 -10.28387 -10.28340
 Alpha  occ. eigenvalues --  -10.28252 -10.28239 -10.28016 -10.27828 -10.27779
 Alpha  occ. eigenvalues --  -10.27462 -10.27427 -10.27282 -10.26895 -10.26879
 Alpha  occ. eigenvalues --  -10.26676 -10.26413 -10.26242 -10.26225 -10.25997
 Alpha  occ. eigenvalues --  -10.25954 -10.25897 -10.25881 -10.25740 -10.25717
 Alpha  occ. eigenvalues --  -10.25685 -10.25611 -10.25590 -10.25446 -10.25373
 Alpha  occ. eigenvalues --  -10.25367 -10.25321 -10.25286 -10.25226 -10.25157
 Alpha  occ. eigenvalues --  -10.25069 -10.24966 -10.24965 -10.24934 -10.24739
 Alpha  occ. eigenvalues --  -10.24538 -10.24519 -10.24491 -10.24347 -10.24025
 Alpha  occ. eigenvalues --  -10.24015 -10.23936 -10.23764 -10.23616 -10.23595
 Alpha  occ. eigenvalues --  -10.23482 -10.23439 -10.23375 -10.23329 -10.23082
 Alpha  occ. eigenvalues --  -10.23040 -10.23006 -10.22770 -10.22678 -10.22608
 Alpha  occ. eigenvalues --  -10.21963  -3.14258  -3.13732  -1.87072  -1.86648
 Alpha  occ. eigenvalues --   -1.86539  -1.86482  -1.86122  -1.85989  -1.10731
 Alpha  occ. eigenvalues --   -1.09576  -1.06691  -1.06035  -1.03858  -1.03793
 Alpha  occ. eigenvalues --   -1.03015  -1.00702  -1.00084  -0.99378  -0.99219
 Alpha  occ. eigenvalues --   -0.98875  -0.98788  -0.97730  -0.97484  -0.96772
 Alpha  occ. eigenvalues --   -0.87377  -0.86758  -0.83743  -0.83408  -0.83290
 Alpha  occ. eigenvalues --   -0.82851  -0.82646  -0.82210  -0.82181  -0.81908
 Alpha  occ. eigenvalues --   -0.81762  -0.81444  -0.80965  -0.79316  -0.78841
 Alpha  occ. eigenvalues --   -0.78565  -0.78485  -0.77847  -0.76835  -0.76814
 Alpha  occ. eigenvalues --   -0.76749  -0.76663  -0.75385  -0.75339  -0.75184
 Alpha  occ. eigenvalues --   -0.74763  -0.73163  -0.72326  -0.71806  -0.71528
 Alpha  occ. eigenvalues --   -0.71247  -0.70699  -0.70613  -0.69953  -0.69493
 Alpha  occ. eigenvalues --   -0.69450  -0.67307  -0.67100  -0.66591  -0.66057
 Alpha  occ. eigenvalues --   -0.63952  -0.63375  -0.63360  -0.63033  -0.62561
 Alpha  occ. eigenvalues --   -0.62533  -0.61594  -0.61227  -0.60244  -0.60076
 Alpha  occ. eigenvalues --   -0.59759  -0.59431  -0.59405  -0.59194  -0.59033
 Alpha  occ. eigenvalues --   -0.58280  -0.57280  -0.56283  -0.55496  -0.54758
 Alpha  occ. eigenvalues --   -0.54605  -0.53862  -0.53748  -0.53721  -0.53481
 Alpha  occ. eigenvalues --   -0.52967  -0.52518  -0.52311  -0.52281  -0.52077
 Alpha  occ. eigenvalues --   -0.50835  -0.50791  -0.50670  -0.49811  -0.49808
 Alpha  occ. eigenvalues --   -0.49576  -0.49406  -0.49132  -0.48682  -0.48569
 Alpha  occ. eigenvalues --   -0.48141  -0.48109  -0.47753  -0.47664  -0.47621
 Alpha  occ. eigenvalues --   -0.47434  -0.47237  -0.47158  -0.46962  -0.46835
 Alpha  occ. eigenvalues --   -0.46780  -0.46745  -0.46309  -0.46096  -0.45770
 Alpha  occ. eigenvalues --   -0.45630  -0.45473  -0.45181  -0.45102  -0.44921
 Alpha  occ. eigenvalues --   -0.44789  -0.44740  -0.44471  -0.44160  -0.43950
 Alpha  occ. eigenvalues --   -0.43889  -0.43866  -0.43690  -0.43670  -0.43353
 Alpha  occ. eigenvalues --   -0.43314  -0.43108  -0.42984  -0.42733  -0.42669
 Alpha  occ. eigenvalues --   -0.42604  -0.42329  -0.42235  -0.41806  -0.41796
 Alpha  occ. eigenvalues --   -0.41446  -0.41296  -0.41269  -0.41189  -0.41018
 Alpha  occ. eigenvalues --   -0.41005  -0.40854  -0.40718  -0.40476  -0.40208
 Alpha  occ. eigenvalues --   -0.40122  -0.40008  -0.40000  -0.39609  -0.39214
 Alpha  occ. eigenvalues --   -0.39195  -0.39070  -0.38975  -0.38813  -0.38646
 Alpha  occ. eigenvalues --   -0.38641  -0.38565  -0.38390  -0.38126  -0.38071
 Alpha  occ. eigenvalues --   -0.37924  -0.37890  -0.37688  -0.37622  -0.37399
 Alpha  occ. eigenvalues --   -0.37230  -0.37158  -0.37018  -0.37005  -0.36825
 Alpha  occ. eigenvalues --   -0.36695  -0.36544  -0.36452  -0.36350  -0.36037
 Alpha  occ. eigenvalues --   -0.36027  -0.35860  -0.35795  -0.35613  -0.35563
 Alpha  occ. eigenvalues --   -0.35340  -0.35251  -0.34951  -0.34416  -0.34100
 Alpha  occ. eigenvalues --   -0.33852  -0.33422  -0.33135  -0.32977  -0.32505
 Alpha  occ. eigenvalues --   -0.32087  -0.31967  -0.31716  -0.31605  -0.31438
 Alpha  occ. eigenvalues --   -0.31318  -0.30032  -0.29901  -0.29716  -0.29527
 Alpha  occ. eigenvalues --   -0.29008  -0.28677  -0.27796  -0.27631  -0.26951
 Alpha  occ. eigenvalues --   -0.26300  -0.26102  -0.26093  -0.25849  -0.25582
 Alpha  occ. eigenvalues --   -0.25473  -0.25255  -0.25063  -0.21277  -0.20618
 Alpha  occ. eigenvalues --   -0.18662  -0.18222
 Alpha virt. eigenvalues --   -0.10872  -0.10393  -0.05633  -0.05173  -0.03877
 Alpha virt. eigenvalues --   -0.03703  -0.01870  -0.01814  -0.00866  -0.00368
 Alpha virt. eigenvalues --    0.00005   0.00750   0.01052   0.01704   0.01737

 Mulliken charges:
               1
     1  Mg  12.000000
     2  C    6.000000
     3  C    6.000000
     4  C    6.000000
     5  C    6.000000
     6  N    7.000000
     7  C    6.000000
     8  C    6.000000
     9  C    6.000000
    10  C    6.000000
    11  C    6.000000
    12  C    6.000000
    13  C    6.000000
    14  H    1.000000
    15  N    7.000000
    16  C    6.000000
    17  C    6.000000
    18  C    6.000000
    19  C    6.000000
    20  C    6.000000
    21  C    6.000000
    22  O    8.000000
    23  C    6.000000
    24  N    7.000000
    25  C    6.000000
    26  C    6.000000
    27  C    6.000000
    28  C    6.000000
    29  C    6.000000
    30  C    6.000000
    31  C    6.000000
    32  N    7.000000
    33  C    6.000000
    34  C    6.000000
    35  C    6.000000
    36  C    6.000000
    37  C    6.000000
    38  C    6.000000
    39  O    8.000000
    40  C    6.000000
    41  C    6.000000
    42  O    8.000000
    43  O    8.000000
    44  C    6.000000
    45  H    1.000000
    46  H    1.000000
    47  H    1.000000
    48  H    1.000000
    49  H    1.000000
    50  H    1.000000
    51  H    1.000000
    52  H    1.000000
    53  H    1.000000
    54  H    1.000000
    55  H    1.000000
    56  H    1.000000
    57  H    1.000000
    58  H    1.000000
    59  H    1.000000
    60  H    1.000000
    61  H    1.000000
    62  H    1.000000
    63  H    1.000000
    64  H    1.000000
    65  H    1.000000
    66  H    1.000000
    67  H    1.000000
    68  H    1.000000
    69  H    1.000000
    70  H    1.000000
    71  H    1.000000
    72  H    1.000000
    73  H    1.000000
    74  H    1.000000
    75  H    1.000000
    76  H    1.000000
    77  H    1.000000
    78  H    1.000000
    79  H    1.000000
    80  Mg  12.000000
    81  C    6.000000
    82  C    6.000000
    83  C    6.000000
    84  C    6.000000
    85  N    7.000000
    86  C    6.000000
    87  C    6.000000
    88  C    6.000000
    89  C    6.000000
    90  C    6.000000
    91  C    6.000000
    92  C    6.000000
    93  H    1.000000
    94  N    7.000000
    95  C    6.000000
    96  C    6.000000
    97  C    6.000000
    98  C    6.000000
    99  C    6.000000
   100  C    6.000000
   101  O    8.000000
   102  C    6.000000
   103  N    7.000000
   104  C    6.000000
   105  C    6.000000
   106  C    6.000000
   107  C    6.000000
   108  C    6.000000
   109  C    6.000000
   110  C    6.000000
   111  N    7.000000
   112  C    6.000000
   113  C    6.000000
   114  C    6.000000
   115  C    6.000000
   116  C    6.000000
   117  C    6.000000
   118  O    8.000000
   119  C    6.000000
   120  C    6.000000
   121  O    8.000000
   122  O    8.000000
   123  C    6.000000
   124  H    1.000000
   125  H    1.000000
   126  H    1.000000
   127  H    1.000000
   128  H    1.000000
   129  H    1.000000
   130  H    1.000000
   131  H    1.000000
   132  H    1.000000
   133  H    1.000000
   134  H    1.000000
   135  H    1.000000
   136  H    1.000000
   137  H    1.000000
   138  H    1.000000
   139  H    1.000000
   140  H    1.000000
   141  H    1.000000
   142  H    1.000000
   143  H    1.000000
   144  H    1.000000
   145  H    1.000000
   146  H    1.000000
   147  H    1.000000
   148  H    1.000000
   149  H    1.000000
   150  H    1.000000
   151  H    1.000000
   152  H    1.000000
   153  H    1.000000
   154  H    1.000000
   155  H    1.000000
   156  H    1.000000
   157  H    1.000000
   158  H    1.000000
 Sum of Mulliken charges = 624.00000

 Dipole moment (field-independent basis, Debye):
    X=             -0.0000    Y=             -0.0000    Z=              0.0000  Tot=              0.0000
 Quadrupole moment (field-independent basis, Debye-Ang):
   XX=             -0.0000   YY=             -0.0000   ZZ=             -0.0000
   XY=              0.0000   XZ=             -0.0000   YZ=              0.0000

 Normal termination of Gaussian 16 at Fri Oct 15 14:36:37 2021.
