 Gaussian 16, Revision A.03,
 Gaussian 16:  ES64L-G16RevA.03 25-Dec-2016

 --------------------------------------------------------
 #p PBE1PBE/Def2SVP td=(nstates=5) density=(transition=1)
 --------------------------------------------------------

 --------------------------------
 TDDFT excited states in gaussian
 --------------------------------
 Symbolic Z-matrix:
 Charge =  0 Multiplicity = 1

                         Standard orientation:
 ---------------------------------------------------------------------
 Center     Atomic      Atomic             Coordinates (Angstroms)
 Number     Number       Type             X           Y           Z
 ---------------------------------------------------------------------
      1         12           0      -23.152252   -0.671558    0.034417
      2          6           0      -22.554768    2.630530   -0.973884
      3          6           0      -22.445151    0.326556    3.357032
      4          6           0      -23.382435   -3.920655    0.993515
      5          6           0      -23.085847   -1.624514   -3.283487
      6          7           0      -22.743327    1.267553    1.026660
      7          6           0      -22.730100    2.507878    0.382133
      8          6           0      -22.884988    3.646339    1.453852
      9          6           0      -22.751979    2.880097    2.775031
     10          6           0      -22.586359    1.374256    2.368258
     11          6           0      -21.529913    3.397852    3.580463
     12          6           0      -24.210278    4.360150    1.217041
     13          6           0      -24.321480    5.817505    1.634103
     14          1           0      -23.221855    6.402409    2.549037
     15          7           0      -22.965168   -1.701883    1.893684
     16          6           0      -22.641904   -1.114786    3.131783
     17          6           0      -22.556357   -2.126681    4.170123
     18          6           0      -22.889801   -3.400103    3.561155
     19          6           0      -23.075578   -3.041994    2.089672
     20          6           0      -22.355005   -1.822118    5.660070
     21          6           0      -23.032164   -4.783523    4.166232
     22          8           0      -23.344585   -5.735713    3.463786
     23          6           0      -22.997573   -4.920125    5.639970
     24          7           0      -23.292000   -2.506884   -1.041778
     25          6           0      -23.469343   -3.699224   -0.407519
     26          6           0      -23.776415   -4.805902   -1.450111
     27          6           0      -23.748938   -4.064890   -2.842986
     28          6           0      -23.465085   -2.606270   -2.399920
     29          6           0      -22.754216   -5.950657   -1.332807
     30          6           0      -25.078597   -4.123175   -3.640933
     31          6           0      -24.956586   -5.171851   -4.742162
     32          7           0      -22.777404    0.216800   -1.822450
     33          6           0      -22.705456   -0.265718   -3.086563
     34          6           0      -22.193758    0.827249   -3.948744
     35          6           0      -22.221522    1.977638   -3.216086
     36          6           0      -22.542951    1.534769   -1.907595
     37          6           0      -21.933274    0.613465   -5.430357
     38          6           0      -22.048709    3.436431   -3.218195
     39          8           0      -21.716829    4.175173   -4.137410
     40          6           0      -22.347309    3.877858   -1.798422
     41          6           0      -21.212119    4.726892   -1.403949
     42          8           0      -20.069167    4.417522   -1.041064
     43          8           0      -21.600449    6.040111   -1.573380
     44          6           0      -20.602815    7.053221   -1.306053
     45          1           0      -22.301863    0.687436    4.377443
     46          1           0      -23.547258   -4.920975    1.399367
     47          1           0      -22.991360   -2.020216   -4.296945
     48          1           0      -22.008305    4.252374    1.222093
     49          1           0      -23.607359    3.181416    3.379627
     50          1           0      -20.701305    2.694119    3.661430
     51          1           0      -21.843247    3.413692    4.623952
     52          1           0      -21.125376    4.321650    3.167340
     53          1           0      -24.947500    3.718713    1.700867
     54          1           0      -24.472794    4.271798    0.163479
     55          1           0      -25.298884    5.974527    2.088307
     56          1           0      -24.330853    6.312596    0.662437
     57          1           0      -22.119719   -0.778653    5.870503
     58          1           0      -21.537049   -2.426502    6.054471
     59          1           0      -23.230001   -2.172424    6.206307
     60          1           0      -23.862008   -4.402253    6.056244
     61          1           0      -22.010296   -4.678368    6.033521
     62          1           0      -23.160743   -5.950867    5.954840
     63          1           0      -24.747392   -5.231971   -1.198623
     64          1           0      -22.874830   -4.465150   -3.358290
     65          1           0      -22.187239   -6.192827   -2.231224
     66          1           0      -23.442138   -6.773579   -1.139920
     67          1           0      -21.964763   -5.781390   -0.601079
     68          1           0      -25.191737   -3.226431   -4.250415
     69          1           0      -25.952481   -4.334940   -3.024538
     70          1           0      -25.878657   -5.745839   -4.651662
     71          1           0      -24.192784   -5.927197   -4.558934
     72          1           0      -24.846126   -4.779238   -5.753365
     73          1           0      -21.922731   -0.426806   -5.756699
     74          1           0      -21.000326    1.067727   -5.761802
     75          1           0      -22.795586    0.987545   -5.983372
     76          1           0      -23.286428    4.429965   -1.815157
     77          1           0      -19.705927    6.787055   -1.865967
     78          1           0      -20.340688    7.139038   -0.251299
     79          1           0      -20.922237    7.912593   -1.894610
     80         12           0       23.183284   -0.583573    0.104784
     81          6           0       21.219616    2.180312    1.062828
     82          6           0       25.677557    1.548422   -0.769228
     83          6           0       24.979541   -3.264250   -0.908811
     84          6           0       20.425266   -2.633626    0.603942
     85          7           0       23.387585    1.579590    0.047254
     86          6           0       22.502220    2.511972    0.594940
     87          6           0       23.148059    3.864887    0.604355
     88          6           0       24.308029    3.687438   -0.403987
     89          6           0       24.476941    2.146437   -0.376191
     90          6           0       24.067032    4.162298   -1.871712
     91          6           0       23.628759    4.387615    2.010284
     92          6           0       23.232801    5.797259    2.315121
     93          1           0       24.322330    6.702439    2.919739
     94          7           0       25.060583   -0.804837   -0.604824
     95          6           0       26.011376    0.205757   -0.824460
     96          6           0       27.227365   -0.360562   -1.254117
     97          6           0       27.067694   -1.824838   -1.306343
     98          6           0       25.697268   -2.018042   -0.926675
     99          6           0       28.432062    0.400619   -1.724894
    100          6           0       28.040048   -2.998189   -1.760948
    101          8           0       27.690961   -4.153064   -1.696909
    102          6           0       29.470835   -2.707888   -2.191232
    103          7           0       22.718548   -2.643246   -0.222675
    104          6           0       23.648050   -3.529038   -0.665277
    105          6           0       22.995631   -4.985801   -0.815451
    106          6           0       21.614729   -4.837614   -0.038751
    107          6           0       21.559516   -3.260037    0.133892
    108          6           0       22.790487   -5.502554   -2.266313
    109          6           0       21.561430   -5.598400    1.333843
    110          6           0       20.387024   -6.480549    1.413051
    111          7           0       21.208663   -0.308218    0.659434
    112          6           0       20.224669   -1.258680    0.927307
    113          6           0       19.039351   -0.609470    1.417416
    114          6           0       19.375525    0.728332    1.457975
    115          6           0       20.659392    0.872966    1.035677
    116          6           0       17.777577   -1.397296    1.856518
    117          6           0       18.880635    2.059360    1.757932
    118          8           0       17.750364    2.387951    2.043924
    119          6           0       20.087193    3.087510    1.483010
    120          6           0       19.665757    4.054771    0.453125
    121          8           0       19.283925    3.742207   -0.705153
    122          8           0       19.726644    5.307520    0.989531
    123          6           0       18.982218    6.339860    0.220686
    124          1           0       26.416493    2.294970   -1.067588
    125          1           0       25.481057   -4.178400   -1.232744
    126          1           0       19.549303   -3.279501    0.687487
    127          1           0       22.540319    4.649919    0.152755
    128          1           0       25.225062    4.196231   -0.106367
    129          1           0       23.422843    5.038794   -1.952875
    130          1           0       23.645293    3.314727   -2.412572
    131          1           0       24.963482    4.354271   -2.460757
    132          1           0       24.709568    4.247687    2.006959
    133          1           0       23.291016    3.736567    2.817142
    134          1           0       22.395678    5.634560    2.994167
    135          1           0       22.962384    6.308359    1.391225
    136          1           0       29.282361    0.408694   -1.042610
    137          1           0       28.176859    1.456446   -1.806005
    138          1           0       28.868191    0.135645   -2.687682
    139          1           0       29.944759   -3.682118   -2.304693
    140          1           0       29.959396   -2.005204   -1.515584
    141          1           0       29.466312   -2.069857   -3.075457
    142          1           0       23.667633   -5.737164   -0.400441
    143          1           0       20.813883   -5.174181   -0.698819
    144          1           0       23.033792   -4.805993   -3.069300
    145          1           0       21.764894   -5.812007   -2.469089
    146          1           0       23.423388   -6.383721   -2.374897
    147          1           0       21.449478   -4.864035    2.132383
    148          1           0       22.420439   -6.239217    1.531671
    149          1           0       20.704524   -7.500040    1.192538
    150          1           0       19.497125   -6.232918    0.835462
    151          1           0       19.965003   -6.428856    2.416768
    152          1           0       18.049052   -2.442317    2.007853
    153          1           0       16.936728   -1.212541    1.186416
    154          1           0       17.544937   -0.994519    2.841589
    155          1           0       20.379332    3.616270    2.390652
    156          1           0       18.959715    7.279169    0.772969
    157          1           0       17.947426    5.996673    0.221631
    158          1           0       19.430854    6.375036   -0.772477
 ---------------------------------------------------------------------

 SCF Done:  E(RPBE1PBE) =  -4067.39334290     A.U. after   16 cycles

 Excitation energies and oscillator strengths:

 Excited State   1:      Singlet-A      1.8264 eV  678.85 nm  f=0.3810  <S**2>=0.000
     310 -> 315       -0.16172
     312 -> 314        0.69460
     312 <- 314       -0.11151
 This state for optimization and/or second-order correction.
 Total Energy, E(TD-HF/TD-DFT) =  -4067.32622494
 Copying the excited state density for this state as the 1-particle RhoCI density.

 Excited State   2:      Singlet-A      1.8701 eV  663.00 nm  f=0.0000  <S**2>=0.000
     312 -> 313        0.70711

 Excited State   3:      Singlet-A      1.8995 eV  652.73 nm  f=0.3779  <S**2>=0.000
     309 -> 316       -0.17467
     311 -> 313        0.69185
     311 <- 313       -0.10895

 Excited State   4:      Singlet-A      2.1001 eV  590.36 nm  f=0.0000  <S**2>=0.000
     311 -> 314        0.70711

 Excited State   5:      Singlet-A      2.2008 eV  563.36 nm  f=0.1136  <S**2>=0.000
     310 -> 314        0.65555
     312 -> 315        0.24487

 The electronic state is 1-A.
 Alpha  occ. eigenvalues --  -46.92501 -46.90600 -19.26300 -19.25143 -19.20056
 Alpha  occ. eigenvalues --  -19.19971 -19.19767 -19.19625 -19.19358 -19.19210
 Alpha  occ. eigenvalues --  -14.41699 -14.41483 -14.41245 -14.41053 -14.39673
 Alpha  occ. eigenvalues --  -14.38941 -14.38917 -14.38308 -10.36438 -10.36400
 Alpha  occ. eigenvalues --  -10.33376 -10.32649 -10.32386 -10.32286 -10.29562
 Alpha  occ. eigenvalues --  -10.29374 -10.28866 -10.28817 -10.28628 -10.28533
 Alpha  occ. eigenvalues --  -10.28508 -10.28289 -10.28259 -10.28204 -10.28177
 Alpha  occ. eigenvalues --  -10.28155 -10.27992 -10.27407 -10.27338 -10.27005
 Alpha  occ. eigenvalues --  -10.26953 -10.26536 -10.26487 -10.26409 -10.26133
 Alpha  occ. eigenvalues --  -10.26068 -10.25835 -10.25787 -10.25764 -10.25714
 Alpha  occ. eigenvalues --  -10.25676 -10.25570 -10.25566 -10.25525 -10.25511
 Alpha  occ. eigenvalues --  -10.25510 -10.25497 -10.25490 -10.25462 -10.25433
 Alpha  occ. eigenvalues --  -10.25352 -10.25314 -10.25209 -10.24858 -10.24508
 Alpha  occ. eigenvalues --  -10.24436 -10.24378 -10.24205 -10.24083 -10.24074
 Alpha  occ. eigenvalues --  -10.23962 -10.23918 -10.23845 -10.23675 -10.23603
 Alpha  occ. eigenvalues --  -10.23508 -10.23438 -10.23345 -10.23051 -10.22956
 Alpha  occ. eigenvalues --  -10.22795 -10.22723 -10.22664 -10.22462 -10.22181
 Alpha  occ. eigenvalues --  -10.22087  -3.14481  -3.12902  -1.87335  -1.86814
 Alpha  occ. eigenvalues --   -1.86735  -1.85750  -1.85265  -1.85152  -1.10580
 Alpha  occ. eigenvalues --   -1.10519  -1.06338  -1.05169  -1.04984  -1.04843
 Alpha  occ. eigenvalues --   -1.01700  -1.01120  -0.99507  -0.99144  -0.98103
 Alpha  occ. eigenvalues --   -0.97382  -0.97193  -0.97192  -0.96162  -0.95972
 Alpha  occ. eigenvalues --   -0.87809  -0.86981  -0.83508  -0.83447  -0.83064
 Alpha  occ. eigenvalues --   -0.82926  -0.82290  -0.82193  -0.81442  -0.81362
 Alpha  occ. eigenvalues --   -0.81048  -0.80643  -0.80212  -0.79940  -0.78578
 Alpha  occ. eigenvalues --   -0.78543  -0.78128  -0.78109  -0.77176  -0.77017
 Alpha  occ. eigenvalues --   -0.76420  -0.76212  -0.75493  -0.75245  -0.74995
 Alpha  occ. eigenvalues --   -0.74367  -0.72469  -0.72243  -0.71632  -0.71603
 Alpha  occ. eigenvalues --   -0.71112  -0.71093  -0.70279  -0.70037  -0.69199
 Alpha  occ. eigenvalues --   -0.68888  -0.67349  -0.67004  -0.65439  -0.65384
 Alpha  occ. eigenvalues --   -0.63462  -0.63041  -0.62869  -0.62474  -0.62335
 Alpha  occ. eigenvalues --   -0.61956  -0.61415  -0.60887  -0.59938  -0.59788
 Alpha  occ. eigenvalues --   -0.59591  -0.59302  -0.59159  -0.59077  -0.58589
 Alpha  occ. eigenvalues --   -0.58453  -0.56736  -0.56532  -0.54823  -0.54596
 Alpha  occ. eigenvalues --   -0.54555  -0.54228  -0.53839  -0.53572  -0.53318
 Alpha  occ. eigenvalues --   -0.52989  -0.52713  -0.52401  -0.52245  -0.52087
 Alpha  occ. eigenvalues --   -0.50674  -0.50514  -0.50295  -0.50261  -0.50028
 Alpha  occ. eigenvalues --   -0.49633  -0.49474  -0.49299  -0.48400  -0.48162
 Alpha  occ. eigenvalues --   -0.48043  -0.48010  -0.47973  -0.47859  -0.47719
 Alpha  occ. eigenvalues --   -0.47507  -0.47438  -0.47295  -0.47168  -0.46514
 Alpha  occ. eigenvalues --   -0.46432  -0.46432  -0.46354  -0.46003  -0.45849
 Alpha  occ. eigenvalues --   -0.45756  -0.45454  -0.45398  -0.44989  -0.44812
 Alpha  occ. eigenvalues --   -0.44658  -0.44342  -0.44318  -0.44136  -0.44032
 Alpha  occ. eigenvalues --   -0.44002  -0.43988  -0.43763  -0.43643  -0.43547
 Alpha  occ. eigenvalues --   -0.43349  -0.43250  -0.42856  -0.42648  -0.42483
 Alpha  occ. eigenvalues --   -0.42395  -0.42061  -0.41930  -0.41690  -0.41455
 Alpha  occ. eigenvalues --   -0.41420  -0.41318  -0.41158  -0.41057  -0.40803
 Alpha  occ. eigenvalues --   -0.40789  -0.40566  -0.40559  -0.40496  -0.40088
 Alpha  occ. eigenvalues --   -0.39971  -0.39835  -0.39678  -0.39487  -0.39465
 Alpha  occ. eigenvalues --   -0.39441  -0.39220  -0.39209  -0.39148  -0.39129
 Alpha  occ. eigenvalues --   -0.39022  -0.38400  -0.38257  -0.38161  -0.38154
 Alpha  occ. eigenvalues --   -0.37939  -0.37846  -0.37804  -0.37659  -0.37631
 Alpha  occ. eigenvalues --   -0.37443  -0.37327  -0.37254  -0.37017  -0.36753
 Alpha  occ. eigenvalues --   -0.36734  -0.36711  -0.36368  -0.36142  -0.36100
 Alpha  occ. eigenvalues --   -0.35845  -0.35831  -0.35329  -0.35234  -0.34882
 Alpha  occ. eigenvalues --   -0.34808  -0.34070  -0.33867  -0.33768  -0.33450
 Alpha  occ. eigenvalues --   -0.33335  -0.32973  -0.32931  -0.32829  -0.32825
 Alpha  occ. eigenvalues --   -0.32747  -0.31728  -0.31552  -0.31385  -0.31245
 Alpha  occ. eigenvalues --   -0.31045  -0.30890  -0.29473  -0.29367  -0.29115
 Alpha  occ. eigenvalues --   -0.29073  -0.28570  -0.28233  -0.26926  -0.26906
 Alpha  occ. eigenvalues --   -0.26460  -0.26422  -0.26131  -0.25918  -0.25881
 Alpha  occ. eigenvalues --   -0.25618  -0.25523  -0.25129  -0.20910  -0.20710
 Alpha  occ. eigenvalues --   -0.19104  -0.18556
 Alpha virt. eigenvalues --   -0.11397  -0.11097  -0.05032  -0.04822  -0.04018
 Alpha virt. eigenvalues --   -0.03535  -0.02419  -0.01671  -0.00412  -0.00171
 Alpha virt. eigenvalues --    0.00587   0.00684   0.01101   0.01457   0.01505

 Mulliken charges:
               1
     1  Mg  11.999626
     2  C    6.022753
     3  C    5.996630
     4  C    5.976930
     5  C    6.005029
     6  N    7.014521
     7  C    5.966779
     8  C    6.005098
     9  C    5.988665
    10  C    6.029699
    11  C    5.998177
    12  C    6.004164
    13  C    5.999832
    14  H    0.993616
    15  N    6.994971
    16  C    6.036138
    17  C    6.018622
    18  C    6.017393
    19  C    6.028441
    20  C    5.997730
    21  C    6.014491
    22  O    8.030174
    23  C    5.992438
    24  N    6.993651
    25  C    6.031704
    26  C    5.993231
    27  C    6.011185
    28  C    5.972580
    29  C    5.997758
    30  C    6.004271
    31  C    6.001473
    32  N    7.001125
    33  C    5.966507
    34  C    5.970051
    35  C    5.999740
    36  C    5.965902
    37  C    6.003055
    38  C    5.980662
    39  O    7.973347
    40  C    5.999819
    41  C    5.996945
    42  O    7.991935
    43  O    7.999444
    44  C    6.001170
    45  H    1.013103
    46  H    1.002171
    47  H    0.989092
    48  H    1.002944
    49  H    1.006237
    50  H    0.998902
    51  H    0.999286
    52  H    1.012887
    53  H    0.990918
    54  H    1.007583
    55  H    0.996987
    56  H    1.004355
    57  H    1.015630
    58  H    1.016696
    59  H    1.016398
    60  H    1.007385
    61  H    1.007606
    62  H    1.014703
    63  H    0.998010
    64  H    0.996364
    65  H    1.008070
    66  H    0.999740
    67  H    0.994754
    68  H    1.004434
    69  H    0.990715
    70  H    0.994533
    71  H    0.994716
    72  H    1.001182
    73  H    0.982589
    74  H    0.982189
    75  H    0.979637
    76  H    0.992636
    77  H    0.999368
    78  H    0.993315
    79  H    0.997389
    80  Mg  12.000006
    81  C    5.999919
    82  C    6.000052
    83  C    6.000060
    84  C    5.999953
    85  N    6.999978
    86  C    6.000033
    87  C    6.000003
    88  C    5.999987
    89  C    5.999976
    90  C    5.999991
    91  C    6.000003
    92  C    5.999964
    93  H    1.000004
    94  N    6.999957
    95  C    6.000024
    96  C    6.000023
    97  C    6.000064
    98  C    5.999965
    99  C    6.000003
   100  C    5.999995
   101  O    8.000006
   102  C    5.999979
   103  N    6.999931
   104  C    5.999987
   105  C    5.999996
   106  C    6.000006
   107  C    6.000046
   108  C    6.000001
   109  C    6.000026
   110  C    6.000013
   111  N    7.000008
   112  C    6.000001
   113  C    5.999911
   114  C    5.999996
   115  C    6.000125
   116  C    6.000004
   117  C    5.999955
   118  O    8.000013
   119  C    5.999965
   120  C    6.000018
   121  O    8.000022
   122  O    7.999992
   123  C    5.999992
   124  H    1.000023
   125  H    1.000003
   126  H    0.999977
   127  H    1.000021
   128  H    1.000009
   129  H    1.000047
   130  H    1.000021
   131  H    1.000019
   132  H    0.999986
   133  H    0.999985
   134  H    1.000008
   135  H    1.000032
   136  H    1.000023
   137  H    1.000018
   138  H    1.000041
   139  H    1.000012
   140  H    1.000006
   141  H    1.000034
   142  H    0.999982
   143  H    1.000001
   144  H    1.000020
   145  H    1.000014
   146  H    0.999987
   147  H    0.999980
   148  H    0.999962
   149  H    0.999975
   150  H    1.000008
   151  H    0.999957
   152  H    0.999965
   153  H    0.999986
   154  H    0.999939
   155  H    0.999976
   156  H    1.000001
   157  H    1.000012
   158  H    1.000019
 Sum of Mulliken charges = 624.00000

 Dipole moment (field-independent basis, Debye):
    X=             -0.3337    Y=             -4.4523    Z=              9.4906  Tot=             10.4884
 Quadrupole moment (field-independent basis, Debye-Ang):
   XX=             15.1695   YY=              4.2128   ZZ=              2.9749
   XY=             99.7782   XZ=           -214.0770   YZ=             -8.6913

 Normal termination of Gaussian 16 at Fri Oct 15 01:12:54 2021.
