 Gaussian 16, Revision A.03,
 Gaussian 16:  ES64L-G16RevA.03 25-Dec-2016

 --------------------------------------------------------
 #p PBE1PBE/Def2SVP td=(nstates=5) density=(transition=1)
 --------------------------------------------------------

 --------------------------------
 TDDFT excited states in gaussian
 --------------------------------
 Symbolic Z-matrix:
 Charge =  0 Multiplicity = 1

                         Standard orientation:
 ---------------------------------------------------------------------
 Center     Atomic      Atomic             Coordinates (Angstroms)
 Number     Number       Type             X           Y           Z
 ---------------------------------------------------------------------
      1         12           0      -21.288983   -0.030046   -0.490080
      2          6           0      -18.005196    0.024349    0.544362
      3          6           0      -21.456759   -3.310012    0.446919
      4          6           0      -24.565345    0.344235   -0.294943
      5          6           0      -20.950513    3.355041   -1.358471
      6          7           0      -19.970272   -1.291339    0.827191
      7          6           0      -18.622021   -1.148898    0.904273
      8          6           0      -17.940973   -2.363751    1.461696
      9          6           0      -18.951162   -3.467335    1.009293
     10          6           0      -20.186766   -2.648978    0.664811
     11          6           0      -18.403090   -4.361504   -0.139658
     12          6           0      -17.809383   -2.306386    3.065858
     13          6           0      -16.482578   -2.963557    3.669355
     14          1           0      -16.897048   -4.085607    4.588734
     15          7           0      -22.801874   -1.375173   -0.181795
     16          6           0      -22.729196   -2.645508    0.272655
     17          6           0      -24.062525   -3.209825    0.439891
     18          6           0      -24.975954   -2.164099    0.194264
     19          6           0      -24.108917   -0.990621   -0.107518
     20          6           0      -24.260898   -4.678849    0.885861
     21          6           0      -26.450088   -2.288491    0.461368
     22          8           0      -26.899934   -3.344083    0.824144
     23          6           0      -27.460554   -1.130476    0.353882
     24          7           0      -22.644508    1.591942   -0.910168
     25          6           0      -23.886972    1.486297   -0.740056
     26          6           0      -24.616452    2.769210   -0.895932
     27          6           0      -23.456731    3.776972   -1.261189
     28          6           0      -22.287230    2.895397   -1.178497
     29          6           0      -25.797148    2.644795   -1.917351
     30          6           0      -23.378409    5.000439   -0.235193
     31          6           0      -22.605649    6.286134   -0.699037
     32          7           0      -19.811766    1.410869   -0.521270
     33          6           0      -19.803972    2.708151   -1.000759
     34          6           0      -18.470555    3.242815   -0.990956
     35          6           0      -17.691192    2.175822   -0.421350
     36          6           0      -18.559501    1.160874   -0.068466
     37          6           0      -18.017166    4.586201   -1.464349
     38          6           0      -16.365637    1.790418   -0.079254
     39          8           0      -15.253671    2.330918   -0.137920
     40          6           0      -16.536184    0.465636    0.735539
     41          6           0      -15.487931   -0.475510    0.243001
     42          8           0      -14.371728   -0.624683    0.759766
     43          8           0      -15.924387   -1.101044   -0.892130
     44          6           0      -14.846796   -1.998763   -1.394885
     45          1           0      -21.586076   -4.386184    0.582349
     46          1           0      -25.643765    0.451081   -0.164807
     47          1           0      -20.876562    4.435996   -1.500037
     48          1           0      -17.014313   -2.427947    0.892762
     49          1           0      -19.120476   -4.154522    1.838436
     50          1           0      -18.302081   -5.385537    0.218701
     51          1           0      -17.391225   -4.017822   -0.356881
     52          1           0      -19.060357   -4.229369   -0.998530
     53          1           0      -18.666974   -2.667359    3.633404
     54          1           0      -17.793600   -1.271462    3.406080
     55          1           0      -16.053728   -2.173238    4.285639
     56          1           0      -15.675170   -3.264517    3.001711
     57          1           0      -24.825004   -4.806325    1.809710
     58          1           0      -23.334176   -5.248092    0.966366
     59          1           0      -24.778376   -5.185340    0.071812
     60          1           0      -27.565653   -0.743494   -0.659149
     61          1           0      -27.257167   -0.306171    1.037905
     62          1           0      -28.379633   -1.531639    0.782123
     63          1           0      -24.979245    2.972038    0.111623
     64          1           0      -23.411117    4.169666   -2.276686
     65          1           0      -26.707452    2.908312   -1.379274
     66          1           0      -25.866494    1.642125   -2.339571
     67          1           0      -25.814238    3.426442   -2.676689
     68          1           0      -22.914772    4.676664    0.696879
     69          1           0      -24.414555    5.255227   -0.017379
     70          1           0      -23.106728    7.251560   -0.764019
     71          1           0      -22.232516    6.161334   -1.714630
     72          1           0      -21.741292    6.457205   -0.057360
     73          1           0      -18.747203    5.185093   -2.008492
     74          1           0      -17.175374    4.276250   -2.082244
     75          1           0      -17.638858    4.994270   -0.526996
     76          1           0      -16.457695    0.590106    1.816089
     77          1           0      -14.024319   -1.395393   -1.777721
     78          1           0      -15.134548   -2.538381   -2.297193
     79          1           0      -14.577059   -2.674893   -0.583327
     80         12           0       20.629242    0.780970   -0.654948
     81          6           0       20.441169   -2.769909   -0.836685
     82          6           0       17.240642    0.910683   -0.171921
     83          6           0       20.976244    4.046076    0.555724
     84          6           0       24.132645    0.523289   -0.564227
     85          7           0       19.065763   -0.910108   -0.270669
     86          6           0       19.160609   -2.202380   -0.623915
     87          6           0       17.770618   -2.758241   -0.873935
     88          6           0       16.706594   -1.591146   -0.593444
     89          6           0       17.789603   -0.403112   -0.474127
     90          6           0       15.773231   -1.463719   -1.818341
     91          6           0       17.514818   -3.984586   -0.012698
     92          6           0       18.085317   -3.959625    1.425251
     93          1           0       17.064203   -3.778178    2.581402
     94          7           0       19.262475    2.339245    0.021497
     95          6           0       17.907080    2.122863    0.143050
     96          6           0       17.335661    3.399665    0.436703
     97          6           0       18.378415    4.349904    0.758175
     98          6           0       19.630836    3.631584    0.411423
     99          6           0       15.851726    3.600325    0.640124
    100          6           0       18.231665    5.711064    1.440159
    101          8           0       17.137693    6.091248    1.810557
    102          6           0       19.333931    6.589619    1.694194
    103          7           0       22.302007    2.073141    0.015208
    104          6           0       22.172622    3.359844    0.303055
    105          6           0       23.492405    4.041178    0.626289
    106          6           0       24.453783    2.775801    0.612755
    107          6           0       23.635228    1.738805   -0.067905
    108          6           0       23.916941    5.171883   -0.432739
    109          6           0       24.941220    2.427903    2.094167
    110          6           0       26.378748    2.616588    2.488409
    111          7           0       21.981558   -0.680818   -0.926665
    112          6           0       23.388559   -0.618484   -0.989555
    113          6           0       23.950881   -1.929030   -1.365455
    114          6           0       22.816356   -2.739417   -1.326954
    115          6           0       21.638400   -2.010067   -0.939321
    116          6           0       25.407136   -2.301386   -1.811139
    117          6           0       22.398825   -4.134005   -1.503501
    118          8           0       23.008190   -5.169826   -1.817594
    119          6           0       20.863336   -4.220896   -1.217264
    120          6           0       20.879914   -5.126257   -0.034270
    121          8           0       21.460904   -4.911305    0.998513
    122          8           0       20.266168   -6.269355   -0.326438
    123          6           0       20.085497   -7.306067    0.748976
    124          1           0       16.161684    0.993657   -0.317255
    125          1           0       21.231020    5.064543    0.855532
    126          1           0       25.213736    0.534681   -0.407291
    127          1           0       17.899725   -3.036409   -1.919931
    128          1           0       16.142737   -1.750894    0.325988
    129          1           0       14.751339   -1.644558   -1.485575
    130          1           0       15.964114   -2.188233   -2.610433
    131          1           0       15.862138   -0.430224   -2.152055
    132          1           0       17.930627   -4.865663   -0.501557
    133          1           0       16.444425   -4.132851    0.132997
    134          1           0       18.739574   -3.131392    1.697072
    135          1           0       18.607710   -4.911199    1.524480
    136          1           0       15.302359    2.660908    0.573450
    137          1           0       15.526218    4.373890   -0.056238
    138          1           0       15.721408    4.082095    1.608519
    139          1           0       20.083344    6.211354    2.389793
    140          1           0       18.959981    7.523493    2.113452
    141          1           0       19.788940    6.692162    0.708432
    142          1           0       23.553104    4.433173    1.641235
    143          1           0       25.337744    3.191288    0.128598
    144          1           0       23.124879    5.292696   -1.172332
    145          1           0       24.802609    4.807185   -0.953363
    146          1           0       24.199117    6.138890   -0.013507
    147          1           0       24.845136    1.361958    2.300962
    148          1           0       24.356812    2.971497    2.835244
    149          1           0       26.957118    1.692797    2.504622
    150          1           0       26.237249    2.993077    3.502026
    151          1           0       26.878624    3.459464    2.010855
    152          1           0       26.031224   -2.317485   -0.918050
    153          1           0       25.706761   -1.572026   -2.563886
    154          1           0       25.397475   -3.321324   -2.195076
    155          1           0       20.411372   -4.614852   -2.128295
    156          1           0       20.954554   -7.954722    0.861255
    157          1           0       19.222938   -7.941091    0.542838
    158          1           0       19.892897   -6.731962    1.655274
 ---------------------------------------------------------------------

 SCF Done:  E(RPBE1PBE) =  -4067.32596182     A.U. after   17 cycles

 Excitation energies and oscillator strengths:

 Excited State   1:      Singlet-A      1.7986 eV  689.32 nm  f=0.3479  <S**2>=0.000
     310 -> 316        0.16139
     312 -> 313        0.69476
     312 <- 313       -0.10914
 This state for optimization and/or second-order correction.
 Total Energy, E(TD-HF/TD-DFT) =  -4067.25986285
 Copying the excited state density for this state as the 1-particle RhoCI density.

 Excited State   2:      Singlet-A      1.8533 eV  669.01 nm  f=0.3451  <S**2>=0.000
     309 -> 315        0.19405
     311 -> 314        0.68719

 Excited State   3:      Singlet-A      1.9581 eV  633.20 nm  f=0.0000  <S**2>=0.000
     312 -> 314        0.70711

 Excited State   4:      Singlet-A      1.9923 eV  622.30 nm  f=0.0000  <S**2>=0.000
     311 -> 313        0.70710

 Excited State   5:      Singlet-A      2.1989 eV  563.84 nm  f=0.1034  <S**2>=0.000
     310 -> 313        0.65392
     312 -> 316       -0.25087

 The electronic state is 1-A.
 Alpha  occ. eigenvalues --  -46.93549 -46.92579 -19.26294 -19.25671 -19.19438
 Alpha  occ. eigenvalues --  -19.19410 -19.19099 -19.19043 -19.18460 -19.18219
 Alpha  occ. eigenvalues --  -14.41892 -14.41503 -14.41461 -14.41426 -14.39810
 Alpha  occ. eigenvalues --  -14.39735 -14.39159 -14.38441 -10.35829 -10.35702
 Alpha  occ. eigenvalues --  -10.32606 -10.32153 -10.31478 -10.31371 -10.29761
 Alpha  occ. eigenvalues --  -10.29736 -10.29636 -10.29107 -10.29011 -10.29006
 Alpha  occ. eigenvalues --  -10.28764 -10.28517 -10.28472 -10.28322 -10.28303
 Alpha  occ. eigenvalues --  -10.28185 -10.28105 -10.27877 -10.27676 -10.27437
 Alpha  occ. eigenvalues --  -10.26679 -10.26620 -10.26540 -10.26512 -10.26501
 Alpha  occ. eigenvalues --  -10.26352 -10.26151 -10.26141 -10.26090 -10.26001
 Alpha  occ. eigenvalues --  -10.25986 -10.25920 -10.25849 -10.25722 -10.25655
 Alpha  occ. eigenvalues --  -10.25647 -10.25621 -10.25524 -10.25414 -10.25348
 Alpha  occ. eigenvalues --  -10.25332 -10.25219 -10.25132 -10.25077 -10.25054
 Alpha  occ. eigenvalues --  -10.24689 -10.24619 -10.24615 -10.24528 -10.24419
 Alpha  occ. eigenvalues --  -10.24409 -10.24343 -10.24284 -10.24129 -10.24062
 Alpha  occ. eigenvalues --  -10.23910 -10.23829 -10.23760 -10.23759 -10.23615
 Alpha  occ. eigenvalues --  -10.23614 -10.23525 -10.22942 -10.22888 -10.22549
 Alpha  occ. eigenvalues --  -10.22426  -3.15443  -3.14732  -1.88244  -1.87847
 Alpha  occ. eigenvalues --   -1.87642  -1.87558  -1.87120  -1.86946  -1.11793
 Alpha  occ. eigenvalues --   -1.10812  -1.06409  -1.04891  -1.03541  -1.03115
 Alpha  occ. eigenvalues --   -1.02485  -1.01673  -1.01370  -0.99182  -0.99067
 Alpha  occ. eigenvalues --   -0.98531  -0.98241  -0.97691  -0.97052  -0.96189
 Alpha  occ. eigenvalues --   -0.87067  -0.86272  -0.84094  -0.83219  -0.83014
 Alpha  occ. eigenvalues --   -0.82931  -0.82528  -0.82523  -0.81636  -0.81369
 Alpha  occ. eigenvalues --   -0.81196  -0.80795  -0.80447  -0.79575  -0.78877
 Alpha  occ. eigenvalues --   -0.78510  -0.78305  -0.78194  -0.77048  -0.76798
 Alpha  occ. eigenvalues --   -0.76534  -0.75867  -0.75397  -0.75170  -0.74700
 Alpha  occ. eigenvalues --   -0.74569  -0.72821  -0.72208  -0.71958  -0.71605
 Alpha  occ. eigenvalues --   -0.71099  -0.70662  -0.70523  -0.70350  -0.69783
 Alpha  occ. eigenvalues --   -0.69267  -0.67270  -0.67213  -0.66621  -0.66149
 Alpha  occ. eigenvalues --   -0.64897  -0.63642  -0.63193  -0.62899  -0.62583
 Alpha  occ. eigenvalues --   -0.62501  -0.62033  -0.61343  -0.61104  -0.59979
 Alpha  occ. eigenvalues --   -0.59790  -0.59585  -0.59435  -0.59304  -0.59052
 Alpha  occ. eigenvalues --   -0.58536  -0.57070  -0.56974  -0.54929  -0.54817
 Alpha  occ. eigenvalues --   -0.54217  -0.53820  -0.53733  -0.53561  -0.53386
 Alpha  occ. eigenvalues --   -0.53048  -0.52578  -0.52366  -0.51801  -0.51437
 Alpha  occ. eigenvalues --   -0.51284  -0.50776  -0.50713  -0.50327  -0.50297
 Alpha  occ. eigenvalues --   -0.49564  -0.49538  -0.49448  -0.49076  -0.48825
 Alpha  occ. eigenvalues --   -0.48429  -0.48275  -0.48055  -0.47657  -0.47542
 Alpha  occ. eigenvalues --   -0.47173  -0.47150  -0.46893  -0.46798  -0.46630
 Alpha  occ. eigenvalues --   -0.46456  -0.46377  -0.46288  -0.46049  -0.45923
 Alpha  occ. eigenvalues --   -0.45782  -0.45368  -0.45183  -0.44801  -0.44777
 Alpha  occ. eigenvalues --   -0.44762  -0.44506  -0.44326  -0.44247  -0.44134
 Alpha  occ. eigenvalues --   -0.44004  -0.43877  -0.43774  -0.43640  -0.43489
 Alpha  occ. eigenvalues --   -0.43313  -0.43087  -0.42966  -0.42885  -0.42429
 Alpha  occ. eigenvalues --   -0.42418  -0.42368  -0.42018  -0.41928  -0.41605
 Alpha  occ. eigenvalues --   -0.41583  -0.41577  -0.41430  -0.41294  -0.41043
 Alpha  occ. eigenvalues --   -0.41022  -0.41004  -0.40660  -0.40529  -0.40498
 Alpha  occ. eigenvalues --   -0.40255  -0.40061  -0.40056  -0.39894  -0.39782
 Alpha  occ. eigenvalues --   -0.39781  -0.39530  -0.39476  -0.39215  -0.39120
 Alpha  occ. eigenvalues --   -0.39107  -0.38917  -0.38729  -0.38706  -0.38541
 Alpha  occ. eigenvalues --   -0.38320  -0.38315  -0.38035  -0.37949  -0.37715
 Alpha  occ. eigenvalues --   -0.37561  -0.37458  -0.37225  -0.37044  -0.36902
 Alpha  occ. eigenvalues --   -0.36847  -0.36802  -0.36310  -0.36243  -0.36182
 Alpha  occ. eigenvalues --   -0.36123  -0.36086  -0.35747  -0.35685  -0.34979
 Alpha  occ. eigenvalues --   -0.34975  -0.34928  -0.34701  -0.34601  -0.33625
 Alpha  occ. eigenvalues --   -0.33623  -0.33242  -0.32896  -0.32672  -0.32375
 Alpha  occ. eigenvalues --   -0.32067  -0.31914  -0.31808  -0.31741  -0.31501
 Alpha  occ. eigenvalues --   -0.31383  -0.30678  -0.30198  -0.29244  -0.29097
 Alpha  occ. eigenvalues --   -0.29083  -0.28801  -0.28382  -0.26986  -0.26843
 Alpha  occ. eigenvalues --   -0.26286  -0.26104  -0.25989  -0.25501  -0.25341
 Alpha  occ. eigenvalues --   -0.25334  -0.24746  -0.24453  -0.21194  -0.21038
 Alpha  occ. eigenvalues --   -0.18955  -0.18751
 Alpha virt. eigenvalues --   -0.11320  -0.11236  -0.05897  -0.05332  -0.03992
 Alpha virt. eigenvalues --   -0.03936  -0.02273  -0.02036  -0.01636  -0.00805
 Alpha virt. eigenvalues --    0.00244   0.00445   0.00996   0.01194   0.02306

 Mulliken charges:
               1
     1  Mg  12.000610
     2  C    6.013079
     3  C    5.992571
     4  C    5.984848
     5  C    6.003298
     6  N    7.008283
     7  C    5.966018
     8  C    6.010350
     9  C    5.986212
    10  C    6.031772
    11  C    5.996981
    12  C    5.998931
    13  C    6.002203
    14  H    0.991112
    15  N    6.995414
    16  C    6.035650
    17  C    6.022288
    18  C    6.013419
    19  C    6.029241
    20  C    5.996171
    21  C    6.009284
    22  O    8.018909
    23  C    5.998440
    24  N    7.000547
    25  C    6.029074
    26  C    5.991746
    27  C    6.010064
    28  C    5.965722
    29  C    5.997325
    30  C    6.006331
    31  C    6.001352
    32  N    6.999699
    33  C    5.973097
    34  C    5.968262
    35  C    6.000270
    36  C    5.975511
    37  C    5.999155
    38  C    5.984213
    39  O    7.971068
    40  C    6.001408
    41  C    5.995977
    42  O    7.993201
    43  O    8.000876
    44  C    6.000810
    45  H    1.010287
    46  H    1.006228
    47  H    0.991694
    48  H    1.002854
    49  H    1.005170
    50  H    1.003432
    51  H    1.015024
    52  H    0.999594
    53  H    0.989346
    54  H    1.004976
    55  H    1.002074
    56  H    1.000463
    57  H    1.017276
    58  H    1.017220
    59  H    1.016924
    60  H    1.010581
    61  H    1.011007
    62  H    1.010747
    63  H    0.998010
    64  H    0.998383
    65  H    0.999986
    66  H    0.994132
    67  H    1.008781
    68  H    0.997204
    69  H    0.988148
    70  H    0.994275
    71  H    1.001509
    72  H    1.003524
    73  H    0.982787
    74  H    0.984994
    75  H    0.982988
    76  H    0.991675
    77  H    1.000063
    78  H    0.993716
    79  H    0.994136
    80  Mg  12.000051
    81  C    6.000150
    82  C    5.999741
    83  C    5.999841
    84  C    6.000178
    85  N    7.000068
    86  C    5.999678
    87  C    6.000022
    88  C    5.999867
    89  C    6.000443
    90  C    5.999966
    91  C    6.000014
    92  C    6.000071
    93  H    0.999900
    94  N    6.999942
    95  C    6.000434
    96  C    6.000252
    97  C    6.000114
    98  C    6.000384
    99  C    5.999921
   100  C    6.000177
   101  O    8.000276
   102  C    5.999933
   103  N    7.000047
   104  C    6.000285
   105  C    5.999877
   106  C    6.000135
   107  C    5.999591
   108  C    5.999984
   109  C    6.000034
   110  C    6.000022
   111  N    6.999997
   112  C    5.999586
   113  C    5.999676
   114  C    5.999967
   115  C    5.999680
   116  C    5.999988
   117  C    5.999757
   118  O    7.999593
   119  C    6.000035
   120  C    5.999931
   121  O    7.999946
   122  O    7.999984
   123  C    6.000028
   124  H    1.000170
   125  H    1.000108
   126  H    0.999834
   127  H    1.000055
   128  H    1.000096
   129  H    1.000134
   130  H    1.000104
   131  H    0.999990
   132  H    1.000028
   133  H    0.999957
   134  H    0.999991
   135  H    1.000002
   136  H    1.000252
   137  H    1.000292
   138  H    1.000226
   139  H    1.000082
   140  H    1.000167
   141  H    1.000063
   142  H    1.000007
   143  H    0.999913
   144  H    0.999983
   145  H    1.000089
   146  H    1.000003
   147  H    1.000030
   148  H    0.999866
   149  H    0.999989
   150  H    0.999930
   151  H    0.999930
   152  H    0.999781
   153  H    0.999819
   154  H    0.999853
   155  H    0.999882
   156  H    0.999925
   157  H    0.999929
   158  H    0.999956
 Sum of Mulliken charges = 624.00000

 Dipole moment (field-independent basis, Debye):
    X=             -7.4591    Y=             -6.7147    Z=              1.1296  Tot=             10.0996
 Quadrupole moment (field-independent basis, Debye-Ang):
   XX=            308.3307   YY=             -0.5912   ZZ=             -1.7781
   XY=            147.8295   XZ=            -23.1730   YZ=              2.2272

 Normal termination of Gaussian 16 at Fri Oct 15 06:49:52 2021.
