 Gaussian 16, Revision A.03,
 Gaussian 16:  ES64L-G16RevA.03 25-Dec-2016

 --------------------------------------------------------
 #p PBE1PBE/Def2SVP td=(nstates=5) density=(transition=1)
 --------------------------------------------------------

 --------------------------------
 TDDFT excited states in gaussian
 --------------------------------
 Symbolic Z-matrix:
 Charge =  0 Multiplicity = 1

                         Standard orientation:
 ---------------------------------------------------------------------
 Center     Atomic      Atomic             Coordinates (Angstroms)
 Number     Number       Type             X           Y           Z
 ---------------------------------------------------------------------
      1         12           0      -13.395885    0.577242   -0.013860
      2          6           0      -11.206950   -1.942552   -0.575928
      3          6           0      -16.012155   -1.706881    0.037659
      4          6           0      -15.585751    3.098516    0.542131
      5          6           0      -10.875596    2.888553   -0.551475
      6          7           0      -13.500215   -1.522177   -0.136786
      7          6           0      -12.499082   -2.398437   -0.403786
      8          6           0      -12.934152   -3.832761   -0.252687
      9          6           0      -14.505373   -3.741365   -0.332821
     10          6           0      -14.689660   -2.206342   -0.097236
     11          6           0      -15.279495   -4.327657   -1.586518
     12          6           0      -12.493228   -4.439660    1.154798
     13          6           0      -12.375269   -5.992074    1.124231
     14          1           0      -13.199427   -6.850295    0.149877
     15          7           0      -15.546453    0.734725    0.182688
     16          6           0      -16.427234   -0.378567    0.181224
     17          6           0      -17.768808    0.075280    0.392168
     18          6           0      -17.681328    1.506483    0.529859
     19          6           0      -16.208735    1.809112    0.430912
     20          6           0      -18.953577   -0.815082    0.531126
     21          6           0      -18.792090    2.524373    0.763284
     22          8           0      -18.653181    3.782734    0.759477
     23          6           0      -20.210289    2.036436    1.005839
     24          7           0      -13.279207    2.680149   -0.070993
     25          6           0      -14.287494    3.530634    0.385304
     26          6           0      -13.823844    4.986472    0.679981
     27          6           0      -12.238637    4.817471    0.338897
     28          6           0      -12.086037    3.404216   -0.090198
     29          6           0      -14.574783    5.948935   -0.249103
     30          6           0      -11.319196    5.232778    1.449335
     31          6           0      -10.319320    6.276460    1.040760
     32          7           0      -11.517750    0.605997   -0.563559
     33          6           0      -10.555581    1.594372   -0.729739
     34          6           0       -9.314020    1.012732   -1.083528
     35          6           0       -9.489195   -0.397198   -1.091366
     36          6           0      -10.816415   -0.616365   -0.665937
     37          6           0       -8.018139    1.673442   -1.359337
     38          6           0       -8.870715   -1.662388   -1.421838
     39          8           0       -7.793698   -2.002370   -1.871177
     40          6           0      -10.002176   -2.717468   -1.005746
     41          6           0      -10.103018   -3.847470   -1.966016
     42          8           0      -10.084736   -3.773839   -3.168122
     43          8           0      -10.185645   -5.046431   -1.368627
     44          6           0      -10.302927   -6.196820   -2.309299
     45          1           0      -16.767653   -2.475849   -0.137325
     46          1           0      -16.317631    3.907517    0.588575
     47          1           0      -10.003612    3.541698   -0.624631
     48          1           0      -12.658878   -4.444112   -1.111926
     49          1           0      -14.919491   -4.208106    0.560336
     50          1           0      -14.543998   -4.834404   -2.211410
     51          1           0      -15.847176   -3.631093   -2.201439
     52          1           0      -16.030787   -5.012238   -1.192349
     53          1           0      -13.249975   -4.076358    1.850322
     54          1           0      -11.524397   -4.005680    1.402343
     55          1           0      -12.621945   -6.260499    2.151624
     56          1           0      -11.311420   -6.212176    1.039487
     57          1           0      -19.104707   -1.253673    1.517532
     58          1           0      -18.828809   -1.579002   -0.235287
     59          1           0      -19.875194   -0.362907    0.165913
     60          1           0      -20.635542    1.856637    0.018570
     61          1           0      -20.719344    2.880613    1.470301
     62          1           0      -20.270836    1.118440    1.590672
     63          1           0      -14.128109    5.195671    1.705603
     64          1           0      -11.999195    5.460815   -0.508462
     65          1           0      -15.173487    5.484607   -1.032998
     66          1           0      -13.877431    6.703441   -0.612367
     67          1           0      -15.318338    6.442752    0.377162
     68          1           0      -10.698041    4.417818    1.821198
     69          1           0      -11.822283    5.605101    2.341825
     70          1           0      -10.267077    7.114459    1.735247
     71          1           0      -10.557893    6.693692    0.062805
     72          1           0       -9.393950    5.716486    0.902618
     73          1           0       -8.072285    2.670352   -1.797773
     74          1           0       -7.641594    1.125878   -2.223814
     75          1           0       -7.398058    1.666723   -0.462861
     76          1           0       -9.500124   -3.092936   -0.113606
     77          1           0       -9.344810   -6.455805   -2.762134
     78          1           0      -11.121489   -6.063339   -3.016774
     79          1           0      -10.599338   -7.074532   -1.734440
     80         12           0       13.216943    0.650577   -0.368103
     81          6           0       11.476004   -1.995300    1.348656
     82          6           0       15.103324   -1.636529   -1.906449
     83          6           0       15.299794    3.142718   -1.193764
     84          6           0       11.465566    2.889111    1.687598
     85          7           0       13.300679   -1.518954   -0.234194
     86          6           0       12.394960   -2.412903    0.361974
     87          6           0       12.645446   -3.892095   -0.121560
     88          6           0       13.846795   -3.725867   -1.100690
     89          6           0       14.073873   -2.191036   -1.134202
     90          6           0       15.113300   -4.476659   -0.776227
     91          6           0       11.318824   -4.579953   -0.750972
     92          6           0       10.938214   -5.938091   -0.148687
     93          1           0       10.873261   -7.108053   -1.199557
     94          7           0       14.896820    0.755725   -1.531224
     95          6           0       15.543095   -0.278350   -2.079132
     96          6           0       16.732909    0.157068   -2.812516
     97          6           0       16.825627    1.559411   -2.509569
     98          6           0       15.651856    1.889878   -1.694621
     99          6           0       17.577575   -0.751988   -3.597619
    100          6           0       18.036220    2.456620   -2.917367
    101          8           0       18.052960    3.656764   -2.700766
    102          6           0       19.242003    1.919078   -3.619869
    103          7           0       13.338142    2.650740    0.162095
    104          6           0       14.243184    3.524948   -0.430226
    105          6           0       13.983878    4.997095    0.029908
    106          6           0       12.545449    4.914448    0.664275
    107          6           0       12.394607    3.400193    0.807940
    108          6           0       15.092617    5.703697    0.875971
    109          6           0       11.422229    5.513943   -0.225478
    110          6           0       10.317415    6.299748    0.434532
    111          7           0       11.803288    0.513458    1.237404
    112          6           0       11.198378    1.505110    1.956205
    113          6           0       10.127778    0.876549    2.847021
    114          6           0       10.170285   -0.474638    2.601633
    115          6           0       11.249978   -0.656545    1.670805
    116          6           0        9.185752    1.698843    3.696648
    117          6           0        9.632925   -1.784845    2.922725
    118          8           0        8.700999   -1.979924    3.730783
    119          6           0       10.560775   -2.904019    2.156910
    120          6           0       11.382106   -3.784045    3.075885
    121          8           0       12.144571   -3.283840    3.926353
    122          8           0       11.041572   -5.133206    2.969993
    123          6           0       11.502666   -5.911479    4.113776
    124          1           0       15.683544   -2.324382   -2.524704
    125          1           0       15.992263    3.901747   -1.562745
    126          1           0       10.878188    3.653278    2.201820
    127          1           0       12.900490   -4.400851    0.807867
    128          1           0       13.530427   -4.238208   -2.010312
    129          1           0       15.056105   -5.030948    0.160670
    130          1           0       15.764886   -3.632322   -0.553781
    131          1           0       15.407290   -5.183252   -1.552955
    132          1           0       11.568203   -4.653454   -1.809146
    133          1           0       10.497487   -3.864927   -0.711750
    134          1           0       10.003385   -5.787011    0.391098
    135          1           0       11.695220   -6.230319    0.580203
    136          1           0       18.644682   -0.824318   -3.389834
    137          1           0       17.648686   -0.275453   -4.574688
    138          1           0       17.130792   -1.716482   -3.839938
    139          1           0       18.864356    1.520341   -4.562170
    140          1           0       19.591056    1.070742   -3.030485
    141          1           0       19.937887    2.754232   -3.689128
    142          1           0       13.912353    5.548303   -0.907755
    143          1           0       12.506311    5.307478    1.679924
    144          1           0       15.927403    5.003449    0.856718
    145          1           0       14.776665    5.991185    1.878372
    146          1           0       15.521870    6.561077    0.356090
    147          1           0       11.050482    4.575928   -0.637380
    148          1           0       11.774277    6.110597   -1.067253
    149          1           0       10.152798    7.165675   -0.206803
    150          1           0       10.591110    6.680067    1.419210
    151          1           0        9.416033    5.696784    0.322044
    152          1           0        9.463322    2.744167    3.562400
    153          1           0        9.385892    1.468181    4.742756
    154          1           0        8.154991    1.450185    3.444865
    155          1           0        9.917959   -3.485200    1.495757
    156          1           0       10.718246   -6.280001    4.773363
    157          1           0       12.235662   -5.397897    4.736074
    158          1           0       12.017353   -6.778355    3.700177
 ---------------------------------------------------------------------

 SCF Done:  E(RPBE1PBE) =  -4067.36698733     A.U. after   16 cycles

 Excitation energies and oscillator strengths:

 Excited State   1:      Singlet-A      1.7750 eV  698.49 nm  f=0.0000  <S**2>=0.000
     312 -> 313        0.70709
 This state for optimization and/or second-order correction.
 Total Energy, E(TD-HF/TD-DFT) =  -4067.30175603
 Copying the excited state density for this state as the 1-particle RhoCI density.

 Excited State   2:      Singlet-A      1.8021 eV  688.00 nm  f=0.4074  <S**2>=0.000
     309 -> 315       -0.16336
     311 -> 313        0.69666
     311 <- 313       -0.11946

 Excited State   3:      Singlet-A      1.8519 eV  669.50 nm  f=0.3783  <S**2>=0.000
     310 -> 316       -0.16662
     312 -> 314        0.69551
     312 <- 314       -0.11414

 Excited State   4:      Singlet-A      1.9853 eV  624.52 nm  f=0.0000  <S**2>=0.000
     311 -> 314        0.70710

 Excited State   5:      Singlet-A      2.2176 eV  559.09 nm  f=0.1157  <S**2>=0.000
     309 -> 313        0.65145
     311 -> 315        0.25930

 The electronic state is 1-A.
 Alpha  occ. eigenvalues --  -46.91763 -46.90544 -19.27192 -19.25755 -19.20925
 Alpha  occ. eigenvalues --  -19.19986 -19.19411 -19.18957 -19.18835 -19.18706
 Alpha  occ. eigenvalues --  -14.42268 -14.42019 -14.41280 -14.41189 -14.39222
 Alpha  occ. eigenvalues --  -14.39113 -14.39029 -14.38474 -10.37693 -10.35558
 Alpha  occ. eigenvalues --  -10.33503 -10.32320 -10.32242 -10.32154 -10.29256
 Alpha  occ. eigenvalues --  -10.29240 -10.29096 -10.28858 -10.28753 -10.28649
 Alpha  occ. eigenvalues --  -10.28438 -10.28225 -10.28212 -10.27965 -10.27922
 Alpha  occ. eigenvalues --  -10.27711 -10.27563 -10.27538 -10.27390 -10.27329
 Alpha  occ. eigenvalues --  -10.26844 -10.26675 -10.26657 -10.26496 -10.26412
 Alpha  occ. eigenvalues --  -10.26352 -10.26313 -10.26306 -10.26063 -10.26033
 Alpha  occ. eigenvalues --  -10.25987 -10.25844 -10.25725 -10.25471 -10.25463
 Alpha  occ. eigenvalues --  -10.25462 -10.25439 -10.25345 -10.25335 -10.25307
 Alpha  occ. eigenvalues --  -10.25198 -10.25166 -10.25071 -10.25052 -10.24814
 Alpha  occ. eigenvalues --  -10.24587 -10.24576 -10.24551 -10.24288 -10.24102
 Alpha  occ. eigenvalues --  -10.23629 -10.23491 -10.23486 -10.23415 -10.23250
 Alpha  occ. eigenvalues --  -10.23249 -10.23206 -10.23083 -10.23018 -10.22988
 Alpha  occ. eigenvalues --  -10.22979 -10.22965 -10.22942 -10.22892 -10.22799
 Alpha  occ. eigenvalues --  -10.22545  -3.13988  -3.12973  -1.86811  -1.86347
 Alpha  occ. eigenvalues --   -1.86239  -1.85807  -1.85328  -1.85244  -1.12057
 Alpha  occ. eigenvalues --   -1.10947  -1.04920  -1.04850  -1.03595  -1.02594
 Alpha  occ. eigenvalues --   -1.02069  -1.02056  -0.99077  -0.98527  -0.98214
 Alpha  occ. eigenvalues --   -0.97941  -0.97328  -0.97192  -0.96478  -0.96025
 Alpha  occ. eigenvalues --   -0.87709  -0.86829  -0.83999  -0.83391  -0.83079
 Alpha  occ. eigenvalues --   -0.82954  -0.82810  -0.82338  -0.82003  -0.81582
 Alpha  occ. eigenvalues --   -0.81523  -0.81508  -0.80693  -0.80344  -0.78638
 Alpha  occ. eigenvalues --   -0.78525  -0.78058  -0.77870  -0.76929  -0.76735
 Alpha  occ. eigenvalues --   -0.76126  -0.75863  -0.75449  -0.75369  -0.74735
 Alpha  occ. eigenvalues --   -0.74505  -0.72773  -0.72585  -0.72089  -0.71861
 Alpha  occ. eigenvalues --   -0.71621  -0.71157  -0.70818  -0.70432  -0.69570
 Alpha  occ. eigenvalues --   -0.69095  -0.67318  -0.66802  -0.66273  -0.65403
 Alpha  occ. eigenvalues --   -0.63482  -0.63368  -0.63032  -0.62741  -0.62552
 Alpha  occ. eigenvalues --   -0.62132  -0.61144  -0.61088  -0.60253  -0.59769
 Alpha  occ. eigenvalues --   -0.59705  -0.59428  -0.59361  -0.59298  -0.58844
 Alpha  occ. eigenvalues --   -0.58655  -0.57091  -0.56876  -0.54869  -0.54858
 Alpha  occ. eigenvalues --   -0.54421  -0.54226  -0.53523  -0.53239  -0.53084
 Alpha  occ. eigenvalues --   -0.52978  -0.52848  -0.52515  -0.52289  -0.51904
 Alpha  occ. eigenvalues --   -0.50810  -0.50661  -0.49881  -0.49847  -0.49720
 Alpha  occ. eigenvalues --   -0.49598  -0.49560  -0.49273  -0.48496  -0.48326
 Alpha  occ. eigenvalues --   -0.48113  -0.47939  -0.47652  -0.47587  -0.47455
 Alpha  occ. eigenvalues --   -0.47177  -0.47070  -0.46874  -0.46840  -0.46651
 Alpha  occ. eigenvalues --   -0.46581  -0.46382  -0.46152  -0.45995  -0.45873
 Alpha  occ. eigenvalues --   -0.45869  -0.45720  -0.45659  -0.45265  -0.44962
 Alpha  occ. eigenvalues --   -0.44853  -0.44627  -0.44406  -0.44215  -0.44086
 Alpha  occ. eigenvalues --   -0.43899  -0.43808  -0.43564  -0.43444  -0.43353
 Alpha  occ. eigenvalues --   -0.43250  -0.43056  -0.42932  -0.42829  -0.42754
 Alpha  occ. eigenvalues --   -0.42671  -0.42567  -0.42355  -0.41980  -0.41858
 Alpha  occ. eigenvalues --   -0.41811  -0.41653  -0.41469  -0.41376  -0.41313
 Alpha  occ. eigenvalues --   -0.41128  -0.41027  -0.40758  -0.40656  -0.40640
 Alpha  occ. eigenvalues --   -0.40383  -0.40041  -0.39960  -0.39717  -0.39537
 Alpha  occ. eigenvalues --   -0.39338  -0.39267  -0.39052  -0.38840  -0.38840
 Alpha  occ. eigenvalues --   -0.38806  -0.38683  -0.38557  -0.38377  -0.38375
 Alpha  occ. eigenvalues --   -0.38095  -0.37972  -0.37870  -0.37785  -0.37564
 Alpha  occ. eigenvalues --   -0.37408  -0.37215  -0.37124  -0.36781  -0.36757
 Alpha  occ. eigenvalues --   -0.36586  -0.36532  -0.36249  -0.35949  -0.35893
 Alpha  occ. eigenvalues --   -0.35716  -0.35615  -0.35477  -0.35316  -0.35266
 Alpha  occ. eigenvalues --   -0.35245  -0.35027  -0.34943  -0.34373  -0.34016
 Alpha  occ. eigenvalues --   -0.33249  -0.33214  -0.32964  -0.32765  -0.32630
 Alpha  occ. eigenvalues --   -0.32413  -0.32217  -0.32215  -0.32027  -0.31575
 Alpha  occ. eigenvalues --   -0.31467  -0.31087  -0.29807  -0.29771  -0.29590
 Alpha  occ. eigenvalues --   -0.29377  -0.28494  -0.28402  -0.27038  -0.26979
 Alpha  occ. eigenvalues --   -0.26310  -0.25919  -0.25830  -0.25564  -0.25501
 Alpha  occ. eigenvalues --   -0.25416  -0.25390  -0.25174  -0.21176  -0.21015
 Alpha  occ. eigenvalues --   -0.18682  -0.18403
 Alpha virt. eigenvalues --   -0.11383  -0.10883  -0.05112  -0.04798  -0.04233
 Alpha virt. eigenvalues --   -0.04067  -0.02212  -0.02114  -0.01646  -0.00749
 Alpha virt. eigenvalues --    0.00138   0.00421   0.00866   0.01217   0.01271

 Mulliken charges:
               1
     1  Mg  12.000000
     2  C    6.000000
     3  C    6.000000
     4  C    6.000000
     5  C    6.000000
     6  N    7.000000
     7  C    6.000000
     8  C    6.000000
     9  C    6.000000
    10  C    6.000000
    11  C    6.000000
    12  C    6.000000
    13  C    6.000000
    14  H    1.000000
    15  N    7.000000
    16  C    6.000000
    17  C    6.000000
    18  C    6.000000
    19  C    6.000000
    20  C    6.000000
    21  C    6.000000
    22  O    8.000000
    23  C    6.000000
    24  N    7.000000
    25  C    6.000000
    26  C    6.000000
    27  C    6.000000
    28  C    6.000000
    29  C    6.000000
    30  C    6.000000
    31  C    6.000000
    32  N    7.000000
    33  C    6.000000
    34  C    6.000000
    35  C    6.000000
    36  C    6.000000
    37  C    6.000000
    38  C    6.000000
    39  O    8.000000
    40  C    6.000000
    41  C    6.000000
    42  O    8.000000
    43  O    8.000000
    44  C    6.000000
    45  H    1.000000
    46  H    1.000000
    47  H    1.000000
    48  H    1.000000
    49  H    1.000000
    50  H    1.000000
    51  H    1.000000
    52  H    1.000000
    53  H    1.000000
    54  H    1.000000
    55  H    1.000000
    56  H    1.000000
    57  H    1.000000
    58  H    1.000000
    59  H    1.000000
    60  H    1.000000
    61  H    1.000000
    62  H    1.000000
    63  H    1.000000
    64  H    1.000000
    65  H    1.000000
    66  H    1.000000
    67  H    1.000000
    68  H    1.000000
    69  H    1.000000
    70  H    1.000000
    71  H    1.000000
    72  H    1.000000
    73  H    1.000000
    74  H    1.000000
    75  H    1.000000
    76  H    1.000000
    77  H    1.000000
    78  H    1.000000
    79  H    1.000000
    80  Mg  12.000000
    81  C    6.000000
    82  C    6.000000
    83  C    6.000000
    84  C    6.000000
    85  N    7.000000
    86  C    6.000000
    87  C    6.000000
    88  C    6.000000
    89  C    6.000000
    90  C    6.000000
    91  C    6.000000
    92  C    6.000000
    93  H    1.000000
    94  N    7.000000
    95  C    6.000000
    96  C    6.000000
    97  C    6.000000
    98  C    6.000000
    99  C    6.000000
   100  C    6.000000
   101  O    8.000000
   102  C    6.000000
   103  N    7.000000
   104  C    6.000000
   105  C    6.000000
   106  C    6.000000
   107  C    6.000000
   108  C    6.000000
   109  C    6.000000
   110  C    6.000000
   111  N    7.000000
   112  C    6.000000
   113  C    6.000000
   114  C    6.000000
   115  C    6.000000
   116  C    6.000000
   117  C    6.000000
   118  O    8.000000
   119  C    6.000000
   120  C    6.000000
   121  O    8.000000
   122  O    8.000000
   123  C    6.000000
   124  H    1.000000
   125  H    1.000000
   126  H    1.000000
   127  H    1.000000
   128  H    1.000000
   129  H    1.000000
   130  H    1.000000
   131  H    1.000000
   132  H    1.000000
   133  H    1.000000
   134  H    1.000000
   135  H    1.000000
   136  H    1.000000
   137  H    1.000000
   138  H    1.000000
   139  H    1.000000
   140  H    1.000000
   141  H    1.000000
   142  H    1.000000
   143  H    1.000000
   144  H    1.000000
   145  H    1.000000
   146  H    1.000000
   147  H    1.000000
   148  H    1.000000
   149  H    1.000000
   150  H    1.000000
   151  H    1.000000
   152  H    1.000000
   153  H    1.000000
   154  H    1.000000
   155  H    1.000000
   156  H    1.000000
   157  H    1.000000
   158  H    1.000000
 Sum of Mulliken charges = 624.00000

 Dipole moment (field-independent basis, Debye):
    X=             -0.0000    Y=             -0.0000    Z=              0.0000  Tot=              0.0000
 Quadrupole moment (field-independent basis, Debye-Ang):
   XX=              0.0000   YY=             -0.0000   ZZ=             -0.0000
   XY=             -0.0000   XZ=             -0.0000   YZ=              0.0000

 Normal termination of Gaussian 16 at Fri Oct 15 02:35:05 2021.
