 Gaussian 16, Revision A.03,
 Gaussian 16:  ES64L-G16RevA.03 25-Dec-2016

 --------------------------------------------------------
 #p PBE1PBE/Def2SVP td=(nstates=5) density=(transition=1)
 --------------------------------------------------------

 --------------------------------
 TDDFT excited states in gaussian
 --------------------------------
 Symbolic Z-matrix:
 Charge =  0 Multiplicity = 1

                         Standard orientation:
 ---------------------------------------------------------------------
 Center     Atomic      Atomic             Coordinates (Angstroms)
 Number     Number       Type             X           Y           Z
 ---------------------------------------------------------------------
      1         12           0      -14.265367    0.396875   -0.097658
      2          6           0      -11.009940    0.856939   -1.664656
      3          6           0      -14.730286   -2.281579   -2.195110
      4          6           0      -16.368150   -0.903144    2.154157
      5          6           0      -13.692643    3.157334    1.799233
      6          7           0      -12.884929   -0.704857   -1.623300
      7          6           0      -11.615057   -0.274581   -2.152656
      8          6           0      -11.255853   -1.131046   -3.370120
      9          6           0      -12.585839   -1.849068   -3.744856
     10          6           0      -13.515402   -1.622909   -2.472591
     11          6           0      -13.285442   -1.259642   -5.059703
     12          6           0      -10.025269   -1.984396   -3.271009
     13          6           0       -9.456842   -2.256847   -1.858298
     14          1           0       -8.255342   -3.152259   -1.504622
     15          7           0      -15.517432   -1.310077   -0.091936
     16          6           0      -15.537667   -2.299580   -1.049879
     17          6           0      -16.632482   -3.258704   -0.703212
     18          6           0      -16.994341   -2.900428    0.592884
     19          6           0      -16.272291   -1.696687    0.998134
     20          6           0      -16.998508   -4.367251   -1.625336
     21          6           0      -18.009132   -3.687146    1.472627
     22          8           0      -18.453535   -4.732128    1.031487
     23          6           0      -18.364949   -3.334241    2.878785
     24          7           0      -14.778869    1.016002    1.791262
     25          6           0      -15.805355    0.339669    2.449516
     26          6           0      -16.245065    1.096921    3.702557
     27          6           0      -15.638766    2.527958    3.468459
     28          6           0      -14.701786    2.250288    2.290791
     29          6           0      -17.757588    1.157999    4.037571
     30          6           0      -14.933303    3.185875    4.697497
     31          6           0      -15.720603    4.388102    5.394010
     32          7           0      -12.729985    1.816400    0.022070
     33          6           0      -12.690544    2.954655    0.814150
     34          6           0      -11.566095    3.765775    0.416830
     35          6           0      -10.883692    2.924055   -0.471992
     36          6           0      -11.666172    1.761884   -0.682610
     37          6           0      -11.223375    5.122644    1.055945
     38          6           0       -9.747817    2.807607   -1.334220
     39          8           0       -8.877893    3.686515   -1.499033
     40          6           0       -9.818080    1.525153   -2.276308
     41          6           0       -8.508151    0.867707   -2.097481
     42          8           0       -7.952664    0.607236   -1.025055
     43          8           0       -8.093979    0.492591   -3.332480
     44          6           0       -6.694863   -0.029030   -3.432837
     45          1           0      -14.868743   -3.143162   -2.850864
     46          1           0      -17.068134   -1.333672    2.873631
     47          1           0      -13.602084    4.102248    2.338353
     48          1           0      -11.086914   -0.311412   -4.068562
     49          1           0      -12.490306   -2.934662   -3.772656
     50          1           0      -13.200723   -2.078876   -5.772590
     51          1           0      -12.779162   -0.341650   -5.359118
     52          1           0      -14.331052   -1.107252   -4.789808
     53          1           0       -9.297535   -1.541561   -3.950766
     54          1           0      -10.379852   -2.904519   -3.736700
     55          1           0      -10.306227   -2.636730   -1.289676
     56          1           0       -9.137971   -1.317198   -1.406765
     57          1           0      -16.679310   -5.283748   -1.129962
     58          1           0      -16.482305   -4.206003   -2.571234
     59          1           0      -18.067995   -4.324625   -1.834410
     60          1           0      -17.585993   -3.394831    3.637870
     61          1           0      -19.088735   -4.022478    3.314336
     62          1           0      -18.816340   -2.353904    2.726824
     63          1           0      -15.700692    0.486204    4.423754
     64          1           0      -16.477271    3.120878    3.102470
     65          1           0      -18.062480    0.445790    4.804987
     66          1           0      -18.336614    0.884200    3.156236
     67          1           0      -17.991567    2.190478    4.299360
     68          1           0      -13.925192    3.548345    4.494500
     69          1           0      -14.782658    2.354784    5.386592
     70          1           0      -15.593921    4.154760    6.450880
     71          1           0      -16.778146    4.455594    5.138320
     72          1           0      -15.275997    5.310199    5.021324
     73          1           0      -10.703709    5.826165    0.405103
     74          1           0      -10.543424    4.806711    1.846375
     75          1           0      -12.136488    5.667205    1.295316
     76          1           0      -10.004021    1.844003   -3.302965
     77          1           0       -6.486677   -0.301151   -4.468167
     78          1           0       -6.562920   -0.924079   -2.824610
     79          1           0       -6.112362    0.824533   -3.088965
     80         12           0       13.516796   -0.973572    0.294702
     81          6           0       13.836469    2.618906   -0.360517
     82          6           0       10.278111   -0.709040   -1.015594
     83          6           0       13.022498   -4.075476    1.167307
     84          6           0       16.774518   -1.032270    1.365092
     85          7           0       12.155630    0.768153   -0.381482
     86          6           0       12.520788    2.143440   -0.697944
     87          6           0       11.357413    2.980545   -1.271555
     88          6           0       10.179646    1.843485   -1.250063
     89          6           0       10.870064    0.526118   -0.845795
     90          6           0        9.004980    2.196326   -0.358451
     91          6           0       11.746163    3.586131   -2.654184
     92          6           0       10.610946    4.165089   -3.443852
     93          1           0       10.782485    5.496938   -4.139856
     94          7           0       11.857949   -2.259583    0.134435
     95          6           0       10.612970   -1.980757   -0.440778
     96          6           0        9.774110   -3.177223   -0.402450
     97          6           0       10.572896   -4.208743    0.241631
     98          6           0       11.899761   -3.563352    0.561014
     99          6           0        8.340456   -3.294087   -1.038429
    100          6           0       10.252279   -5.610962    0.615762
    101          8           0       11.035719   -6.395677    1.133636
    102          6           0        8.945475   -6.188614    0.259460
    103          7           0       14.712870   -2.345739    1.036044
    104          6           0       14.269701   -3.538124    1.438682
    105          6           0       15.383559   -4.408903    2.065885
    106          6           0       16.615655   -3.602983    1.710256
    107          6           0       16.013084   -2.178105    1.400003
    108          6           0       15.215587   -4.611981    3.567243
    109          6           0       17.576023   -4.011900    0.623562
    110          6           0       16.971457   -4.039422   -0.763978
    111          7           0       14.991380    0.470262    0.575239
    112          6           0       16.332804    0.250878    0.937048
    113          6           0       17.030133    1.513229    0.929350
    114          6           0       16.072686    2.389583    0.356759
    115          6           0       14.843357    1.729810    0.167833
    116          6           0       18.473972    1.788469    1.232861
    117          6           0       15.951529    3.798415   -0.130706
    118          8           0       16.810588    4.696793   -0.259065
    119          6           0       14.496712    3.960863   -0.565498
    120          6           0       13.853799    5.130153    0.183326
    121          8           0       13.621763    5.281522    1.419095
    122          8           0       13.400116    6.002648   -0.761282
    123          6           0       12.662000    7.178852   -0.247876
    124          1           0        9.359429   -0.668370   -1.602854
    125          1           0       12.859109   -5.094076    1.525240
    126          1           0       17.807082   -0.970455    1.715341
    127          1           0       11.253511    3.823965   -0.589016
    128          1           0        9.865734    1.644179   -2.274699
    129          1           0        8.100818    2.210304   -0.967726
    130          1           0        9.198887    3.199602    0.019277
    131          1           0        8.933381    1.691676    0.604791
    132          1           0       12.327512    2.812329   -3.156746
    133          1           0       12.468531    4.385692   -2.489441
    134          1           0        9.688103    4.374515   -2.903415
    135          1           0       10.392919    3.510682   -4.287350
    136          1           0        8.443554   -4.057595   -1.810027
    137          1           0        7.995487   -2.371196   -1.504409
    138          1           0        7.676813   -3.605653   -0.231728
    139          1           0        8.102813   -5.523141    0.448120
    140          1           0        8.871180   -7.064006    0.903693
    141          1           0        8.988096   -6.271691   -0.826108
    142          1           0       15.335095   -5.383872    1.580791
    143          1           0       17.305281   -3.516795    2.550423
    144          1           0       15.470035   -5.644041    3.805731
    145          1           0       14.187618   -4.428620    3.878084
    146          1           0       15.965792   -4.036982    4.111269
    147          1           0       18.030430   -4.958125    0.918569
    148          1           0       18.355377   -3.261970    0.489255
    149          1           0       17.238263   -4.944758   -1.307978
    150          1           0       17.338490   -3.233323   -1.399663
    151          1           0       15.882240   -3.999582   -0.780650
    152          1           0       18.921048    2.343538    0.408530
    153          1           0       19.165379    0.971784    1.440277
    154          1           0       18.493781    2.415610    2.124400
    155          1           0       14.488742    4.255365   -1.615317
    156          1           0       11.589836    7.016069   -0.355752
    157          1           0       13.115306    7.944778   -0.877155
    158          1           0       12.954797    7.443536    0.768962
 ---------------------------------------------------------------------

 SCF Done:  E(RPBE1PBE) =  -4067.35168991     A.U. after   16 cycles

 Excitation energies and oscillator strengths:

 Excited State   1:      Singlet-A      1.7442 eV  710.85 nm  f=0.0000  <S**2>=0.000
     312 -> 313        0.70710
 This state for optimization and/or second-order correction.
 Total Energy, E(TD-HF/TD-DFT) =  -4067.28759328
 Copying the excited state density for this state as the 1-particle RhoCI density.

 Excited State   2:      Singlet-A      1.8047 eV  687.00 nm  f=0.3643  <S**2>=0.000
     309 -> 315       -0.15290
     312 -> 314        0.69742
     312 <- 314       -0.11780

 Excited State   3:      Singlet-A      1.8175 eV  682.17 nm  f=0.3697  <S**2>=0.000
     310 -> 316       -0.16199
     311 -> 313        0.69572
     311 <- 313       -0.11398

 Excited State   4:      Singlet-A      2.0113 eV  616.43 nm  f=0.0000  <S**2>=0.000
     311 -> 314        0.70710

 Excited State   5:      Singlet-A      2.1799 eV  568.77 nm  f=0.1285  <S**2>=0.000
     310 -> 313        0.66145
     311 -> 316        0.23361

 The electronic state is 1-A.
 Alpha  occ. eigenvalues --  -46.92760 -46.91101 -19.26446 -19.26185 -19.19942
 Alpha  occ. eigenvalues --  -19.19854 -19.19149 -19.18841 -19.18711 -19.17692
 Alpha  occ. eigenvalues --  -14.42041 -14.42022 -14.41598 -14.41230 -14.39457
 Alpha  occ. eigenvalues --  -14.39336 -14.38612 -14.38578 -10.37028 -10.36337
 Alpha  occ. eigenvalues --  -10.32557 -10.31928 -10.31549 -10.31051 -10.29848
 Alpha  occ. eigenvalues --  -10.29543 -10.29508 -10.29336 -10.29137 -10.29087
 Alpha  occ. eigenvalues --  -10.28982 -10.28732 -10.28591 -10.28515 -10.28475
 Alpha  occ. eigenvalues --  -10.28359 -10.28252 -10.28082 -10.27791 -10.27254
 Alpha  occ. eigenvalues --  -10.27184 -10.26762 -10.26739 -10.26569 -10.26507
 Alpha  occ. eigenvalues --  -10.26494 -10.26494 -10.26469 -10.26385 -10.26291
 Alpha  occ. eigenvalues --  -10.26279 -10.26263 -10.25912 -10.25746 -10.25709
 Alpha  occ. eigenvalues --  -10.25648 -10.25645 -10.25556 -10.25416 -10.25179
 Alpha  occ. eigenvalues --  -10.25178 -10.25071 -10.25029 -10.25025 -10.24958
 Alpha  occ. eigenvalues --  -10.24910 -10.24820 -10.24790 -10.24646 -10.24442
 Alpha  occ. eigenvalues --  -10.24412 -10.24399 -10.24045 -10.23961 -10.23723
 Alpha  occ. eigenvalues --  -10.23637 -10.23601 -10.23578 -10.23500 -10.23281
 Alpha  occ. eigenvalues --  -10.23198 -10.23008 -10.22856 -10.22662 -10.22101
 Alpha  occ. eigenvalues --  -10.21931  -3.14828  -3.13418  -1.87639  -1.87225
 Alpha  occ. eigenvalues --   -1.87032  -1.86265  -1.85805  -1.85643  -1.11014
 Alpha  occ. eigenvalues --   -1.10805  -1.05307  -1.04836  -1.02637  -1.02476
 Alpha  occ. eigenvalues --   -1.01721  -1.00589  -0.99761  -0.99601  -0.98852
 Alpha  occ. eigenvalues --   -0.97643  -0.97345  -0.96664  -0.95088  -0.94949
 Alpha  occ. eigenvalues --   -0.86703  -0.86490  -0.83940  -0.83719  -0.83302
 Alpha  occ. eigenvalues --   -0.83067  -0.82970  -0.82880  -0.81553  -0.81168
 Alpha  occ. eigenvalues --   -0.81015  -0.80979  -0.80587  -0.80279  -0.78949
 Alpha  occ. eigenvalues --   -0.78681  -0.78350  -0.78157  -0.77156  -0.76836
 Alpha  occ. eigenvalues --   -0.76670  -0.76241  -0.75747  -0.75441  -0.74611
 Alpha  occ. eigenvalues --   -0.74340  -0.72595  -0.72358  -0.72153  -0.71561
 Alpha  occ. eigenvalues --   -0.71138  -0.70940  -0.70436  -0.70262  -0.69746
 Alpha  occ. eigenvalues --   -0.69620  -0.67622  -0.67233  -0.66264  -0.66165
 Alpha  occ. eigenvalues --   -0.64530  -0.64094  -0.63750  -0.63416  -0.62247
 Alpha  occ. eigenvalues --   -0.61990  -0.61563  -0.61399  -0.60634  -0.59878
 Alpha  occ. eigenvalues --   -0.59521  -0.59348  -0.59168  -0.58687  -0.58318
 Alpha  occ. eigenvalues --   -0.58220  -0.56862  -0.56519  -0.54607  -0.54179
 Alpha  occ. eigenvalues --   -0.53838  -0.53765  -0.53734  -0.53646  -0.52847
 Alpha  occ. eigenvalues --   -0.52618  -0.52222  -0.52115  -0.51888  -0.51885
 Alpha  occ. eigenvalues --   -0.51437  -0.50833  -0.50751  -0.50384  -0.49922
 Alpha  occ. eigenvalues --   -0.49834  -0.49731  -0.49286  -0.49258  -0.48877
 Alpha  occ. eigenvalues --   -0.48877  -0.48403  -0.47839  -0.47792  -0.47520
 Alpha  occ. eigenvalues --   -0.47429  -0.47282  -0.47224  -0.47049  -0.47026
 Alpha  occ. eigenvalues --   -0.46738  -0.46570  -0.45998  -0.45888  -0.45759
 Alpha  occ. eigenvalues --   -0.45582  -0.45413  -0.45347  -0.45100  -0.44935
 Alpha  occ. eigenvalues --   -0.44752  -0.44662  -0.44430  -0.44429  -0.44055
 Alpha  occ. eigenvalues --   -0.43877  -0.43718  -0.43450  -0.43439  -0.43417
 Alpha  occ. eigenvalues --   -0.43156  -0.43091  -0.42887  -0.42874  -0.42678
 Alpha  occ. eigenvalues --   -0.42546  -0.42358  -0.42346  -0.42094  -0.41949
 Alpha  occ. eigenvalues --   -0.41658  -0.41643  -0.41444  -0.41421  -0.41321
 Alpha  occ. eigenvalues --   -0.41266  -0.41085  -0.40843  -0.40633  -0.40568
 Alpha  occ. eigenvalues --   -0.40431  -0.40299  -0.40140  -0.40020  -0.39796
 Alpha  occ. eigenvalues --   -0.39635  -0.39382  -0.39191  -0.39082  -0.39028
 Alpha  occ. eigenvalues --   -0.38900  -0.38815  -0.38781  -0.38423  -0.38311
 Alpha  occ. eigenvalues --   -0.38301  -0.37845  -0.37750  -0.37650  -0.37439
 Alpha  occ. eigenvalues --   -0.37412  -0.37282  -0.37144  -0.37122  -0.36983
 Alpha  occ. eigenvalues --   -0.36876  -0.36763  -0.36632  -0.36419  -0.36030
 Alpha  occ. eigenvalues --   -0.36019  -0.35838  -0.35676  -0.35300  -0.34975
 Alpha  occ. eigenvalues --   -0.34776  -0.34411  -0.34129  -0.34107  -0.33943
 Alpha  occ. eigenvalues --   -0.33792  -0.33482  -0.32490  -0.32271  -0.32237
 Alpha  occ. eigenvalues --   -0.32115  -0.31748  -0.31690  -0.31520  -0.31473
 Alpha  occ. eigenvalues --   -0.31116  -0.30973  -0.29470  -0.29377  -0.29129
 Alpha  occ. eigenvalues --   -0.29066  -0.28554  -0.28386  -0.27174  -0.27016
 Alpha  occ. eigenvalues --   -0.25903  -0.25791  -0.25722  -0.25474  -0.25359
 Alpha  occ. eigenvalues --   -0.25325  -0.24954  -0.24387  -0.21346  -0.21099
 Alpha  occ. eigenvalues --   -0.19044  -0.18534
 Alpha virt. eigenvalues --   -0.11634  -0.11175  -0.05377  -0.05173  -0.03810
 Alpha virt. eigenvalues --   -0.03204  -0.02142  -0.02090  -0.01470  -0.00260
 Alpha virt. eigenvalues --    0.00052   0.00157   0.00942   0.01534   0.02016

 Mulliken charges:
               1
     1  Mg  12.000000
     2  C    6.000000
     3  C    6.000000
     4  C    6.000000
     5  C    6.000000
     6  N    7.000000
     7  C    6.000000
     8  C    6.000000
     9  C    6.000000
    10  C    6.000000
    11  C    6.000000
    12  C    6.000000
    13  C    6.000000
    14  H    1.000000
    15  N    7.000000
    16  C    6.000000
    17  C    6.000000
    18  C    6.000000
    19  C    6.000000
    20  C    6.000000
    21  C    6.000000
    22  O    8.000000
    23  C    6.000000
    24  N    7.000000
    25  C    6.000000
    26  C    6.000000
    27  C    6.000000
    28  C    6.000000
    29  C    6.000000
    30  C    6.000000
    31  C    6.000000
    32  N    7.000000
    33  C    6.000000
    34  C    6.000000
    35  C    6.000000
    36  C    6.000000
    37  C    6.000000
    38  C    6.000000
    39  O    8.000000
    40  C    6.000000
    41  C    6.000000
    42  O    8.000000
    43  O    8.000000
    44  C    6.000000
    45  H    1.000000
    46  H    1.000000
    47  H    1.000000
    48  H    1.000000
    49  H    1.000000
    50  H    1.000000
    51  H    1.000000
    52  H    1.000000
    53  H    1.000000
    54  H    1.000000
    55  H    1.000000
    56  H    1.000000
    57  H    1.000000
    58  H    1.000000
    59  H    1.000000
    60  H    1.000000
    61  H    1.000000
    62  H    1.000000
    63  H    1.000000
    64  H    1.000000
    65  H    1.000000
    66  H    1.000000
    67  H    1.000000
    68  H    1.000000
    69  H    1.000000
    70  H    1.000000
    71  H    1.000000
    72  H    1.000000
    73  H    1.000000
    74  H    1.000000
    75  H    1.000000
    76  H    1.000000
    77  H    1.000000
    78  H    1.000000
    79  H    1.000000
    80  Mg  12.000000
    81  C    6.000000
    82  C    6.000000
    83  C    6.000000
    84  C    6.000000
    85  N    7.000000
    86  C    6.000000
    87  C    6.000000
    88  C    6.000000
    89  C    6.000000
    90  C    6.000000
    91  C    6.000000
    92  C    6.000000
    93  H    1.000000
    94  N    7.000000
    95  C    6.000000
    96  C    6.000000
    97  C    6.000000
    98  C    6.000000
    99  C    6.000000
   100  C    6.000000
   101  O    8.000000
   102  C    6.000000
   103  N    7.000000
   104  C    6.000000
   105  C    6.000000
   106  C    6.000000
   107  C    6.000000
   108  C    6.000000
   109  C    6.000000
   110  C    6.000000
   111  N    7.000000
   112  C    6.000000
   113  C    6.000000
   114  C    6.000000
   115  C    6.000000
   116  C    6.000000
   117  C    6.000000
   118  O    8.000000
   119  C    6.000000
   120  C    6.000000
   121  O    8.000000
   122  O    8.000000
   123  C    6.000000
   124  H    1.000000
   125  H    1.000000
   126  H    1.000000
   127  H    1.000000
   128  H    1.000000
   129  H    1.000000
   130  H    1.000000
   131  H    1.000000
   132  H    1.000000
   133  H    1.000000
   134  H    1.000000
   135  H    1.000000
   136  H    1.000000
   137  H    1.000000
   138  H    1.000000
   139  H    1.000000
   140  H    1.000000
   141  H    1.000000
   142  H    1.000000
   143  H    1.000000
   144  H    1.000000
   145  H    1.000000
   146  H    1.000000
   147  H    1.000000
   148  H    1.000000
   149  H    1.000000
   150  H    1.000000
   151  H    1.000000
   152  H    1.000000
   153  H    1.000000
   154  H    1.000000
   155  H    1.000000
   156  H    1.000000
   157  H    1.000000
   158  H    1.000000
 Sum of Mulliken charges = 624.00000

 Dipole moment (field-independent basis, Debye):
    X=             -0.0000    Y=             -0.0000    Z=             -0.0000  Tot=              0.0000
 Quadrupole moment (field-independent basis, Debye-Ang):
   XX=              0.0000   YY=             -0.0000   ZZ=              0.0000
   XY=              0.0000   XZ=              0.0000   YZ=             -0.0000

 Normal termination of Gaussian 16 at Wed Oct 13 23:08:38 2021.
