 Gaussian 16, Revision A.03,
 Gaussian 16:  ES64L-G16RevA.03 25-Dec-2016

 --------------------------------------------------------
 #p PBE1PBE/Def2SVP td=(nstates=5) density=(transition=1)
 --------------------------------------------------------

 --------------------------------
 TDDFT excited states in gaussian
 --------------------------------
 Symbolic Z-matrix:
 Charge =  0 Multiplicity = 1

                         Standard orientation:
 ---------------------------------------------------------------------
 Center     Atomic      Atomic             Coordinates (Angstroms)
 Number     Number       Type             X           Y           Z
 ---------------------------------------------------------------------
      1         12           0       13.698340   -0.724732   -0.073158
      2          6           0       12.294746    2.201883   -1.616981
      3          6           0       15.951442    1.482570    1.546172
      4          6           0       15.299529   -3.439053    1.431824
      5          6           0       11.792913   -2.730364   -1.945882
      6          7           0       14.175522    1.642567   -0.242222
      7          6           0       13.393011    2.572249   -0.831011
      8          6           0       14.012484    4.001274   -0.625282
      9          6           0       15.289678    3.640202    0.214389
     10          6           0       15.113892    2.158209    0.617793
     11          6           0       16.618568    3.926281   -0.568413
     12          6           0       13.078954    4.968243    0.102566
     13          6           0       12.996122    6.351404   -0.454754
     14          1           0       12.001983    7.341403    0.169334
     15          7           0       15.213048   -0.965792    1.420729
     16          6           0       16.000681    0.063064    1.926420
     17          6           0       16.906482   -0.503803    2.905795
     18          6           0       16.689507   -1.869753    2.979763
     19          6           0       15.743186   -2.170350    1.853040
     20          6           0       17.999851    0.256062    3.600244
     21          6           0       17.392296   -2.991844    3.848331
     22          8           0       17.151574   -4.174231    3.859614
     23          6           0       18.372686   -2.567677    4.920322
     24          7           0       13.701942   -2.735561   -0.311119
     25          6           0       14.399565   -3.697152    0.372295
     26          6           0       14.200745   -5.105746   -0.234487
     27          6           0       12.907398   -4.914163   -1.135554
     28          6           0       12.773164   -3.343956   -1.102614
     29          6           0       15.467745   -5.634286   -0.980084
     30          6           0       11.634427   -5.640327   -0.603710
     31          6           0       11.051842   -5.088716    0.695570
     32          7           0       12.361057   -0.423834   -1.493748
     33          6           0       11.552385   -1.371654   -2.180757
     34          6           0       10.654030   -0.698142   -3.115936
     35          6           0       10.879361    0.670215   -2.881568
     36          6           0       11.895343    0.805594   -1.898726
     37          6           0        9.704784   -1.345371   -4.013733
     38          6           0       10.434063    1.987221   -3.325304
     39          8           0        9.544748    2.283254   -4.105667
     40          6           0       11.400307    3.060691   -2.585988
     41          6           0       10.339727    3.960926   -1.947677
     42          8           0        9.598294    3.714960   -0.979223
     43          8           0       10.263081    5.084032   -2.640175
     44          6           0        9.499782    6.263162   -2.061427
     45          1           0       16.589895    2.177671    2.094860
     46          1           0       15.744555   -4.347590    1.845004
     47          1           0       11.150809   -3.440868   -2.470046
     48          1           0       14.140298    4.383675   -1.637411
     49          1           0       15.322428    4.191635    1.155001
     50          1           0       17.335237    4.579314   -0.070385
     51          1           0       16.468745    4.201857   -1.612476
     52          1           0       17.301869    3.083844   -0.677983
     53          1           0       13.679934    5.214426    0.978140
     54          1           0       12.128055    4.516178    0.386729
     55          1           0       12.862923    6.499532   -1.527622
     56          1           0       13.983163    6.759451   -0.236876
     57          1           0       17.917891    1.327032    3.416541
     58          1           0       19.014719   -0.040131    3.330359
     59          1           0       17.998072    0.195209    4.688666
     60          1           0       17.916177   -1.918359    5.667294
     61          1           0       19.155465   -2.100198    4.322893
     62          1           0       18.787508   -3.515265    5.264027
     63          1           0       14.108180   -5.750349    0.640305
     64          1           0       13.029421   -5.008384   -2.214823
     65          1           0       15.939958   -6.470880   -0.465148
     66          1           0       16.234050   -4.914876   -1.266616
     67          1           0       15.029384   -5.954467   -1.925468
     68          1           0       11.810019   -6.712440   -0.693363
     69          1           0       10.843780   -5.482914   -1.337134
     70          1           0       11.638049   -4.314809    1.189743
     71          1           0       11.009437   -5.937642    1.377486
     72          1           0       10.109787   -4.549783    0.601433
     73          1           0        9.127390   -0.666602   -4.641744
     74          1           0        9.041386   -1.911500   -3.360016
     75          1           0       10.263630   -2.057421   -4.622659
     76          1           0       11.912908    3.712542   -3.293377
     77          1           0        9.837718    7.135051   -2.621959
     78          1           0        9.758269    6.467311   -1.022828
     79          1           0        8.417079    6.134114   -2.084958
     80         12           0      -13.695700   -0.564843   -0.282223
     81          6           0      -11.992044    2.326008    0.502997
     82          6           0      -16.585997    1.260738   -0.139100
     83          6           0      -15.396306   -3.442560   -0.762944
     84          6           0      -10.783780   -2.408962    0.175028
     85          7           0      -14.163425    1.583349    0.289990
     86          6           0      -13.350779    2.566116    0.362608
     87          6           0      -14.005674    4.036658    0.492992
     88          6           0      -15.519451    3.594069    0.583575
     89          6           0      -15.461779    2.017214    0.307037
     90          6           0      -16.214144    3.817112    2.027439
     91          6           0      -13.695666    5.031802   -0.707795
     92          6           0      -13.612396    6.565501   -0.383063
     93          1           0      -14.083223    6.991261    0.974757
     94          7           0      -15.647068   -1.016511   -0.503242
     95          6           0      -16.760865   -0.087738   -0.499449
     96          6           0      -17.968306   -0.853288   -0.791517
     97          6           0      -17.656279   -2.233847   -0.863262
     98          6           0      -16.180691   -2.279974   -0.753107
     99          6           0      -19.227842   -0.084695   -0.970624
    100          6           0      -18.549622   -3.467252   -1.133290
    101          8           0      -18.199989   -4.608523   -1.074342
    102          6           0      -20.048089   -3.154885   -1.320621
    103          7           0      -13.239479   -2.682958   -0.199509
    104          6           0      -14.062168   -3.659382   -0.418718
    105          6           0      -13.420195   -5.037717   -0.092685
    106          6           0      -11.919214   -4.711381    0.095427
    107          6           0      -11.941386   -3.167292    0.005664
    108          6           0      -14.082880   -5.679592    1.144788
    109          6           0      -11.015521   -5.427606   -0.954588
    110          6           0      -10.872021   -6.945725   -0.759906
    111          7           0      -11.739256   -0.165232    0.236740
    112          6           0      -10.651662   -1.019400    0.278921
    113          6           0       -9.498337   -0.201224    0.546972
    114          6           0       -9.930103    1.150804    0.695675
    115          6           0      -11.327060    1.062208    0.447775
    116          6           0       -8.176381   -0.686232    0.703977
    117          6           0       -9.569827    2.519217    0.889251
    118          8           0       -8.434810    3.001195    1.180817
    119          6           0      -10.936078    3.308627    0.884628
    120          6           0      -11.066035    3.953339    2.173908
    121          8           0      -11.471973    3.395185    3.192941
    122          8           0      -10.515952    5.204438    2.056930
    123          6           0      -10.342074    5.885124    3.357527
    124          1           0      -17.526311    1.811423   -0.075130
    125          1           0      -16.009458   -4.328201   -0.945967
    126          1           0       -9.884672   -3.026259    0.237691
    127          1           0      -13.657824    4.381848    1.466950
    128          1           0      -16.116069    4.151331   -0.138376
    129          1           0      -15.421417    3.909282    2.770402
    130          1           0      -16.846930    2.962371    2.265896
    131          1           0      -16.861655    4.689300    2.123266
    132          1           0      -14.536517    4.882020   -1.384500
    133          1           0      -12.910152    4.725843   -1.399635
    134          1           0      -14.145457    7.195127   -1.095363
    135          1           0      -12.565736    6.869941   -0.380900
    136          1           0      -19.699495    0.110138   -0.007035
    137          1           0      -19.879404   -0.506379   -1.736099
    138          1           0      -18.949450    0.876202   -1.402727
    139          1           0      -20.302113   -2.703941   -2.280410
    140          1           0      -20.232390   -2.487158   -0.479638
    141          1           0      -20.729942   -3.991855   -1.173073
    142          1           0      -13.587773   -5.595833   -1.013529
    143          1           0      -11.615246   -4.965916    1.110740
    144          1           0      -14.560073   -4.987454    1.838916
    145          1           0      -13.444554   -6.216084    1.847583
    146          1           0      -14.830647   -6.364713    0.745449
    147          1           0      -10.006296   -5.025096   -0.879521
    148          1           0      -11.385791   -5.222911   -1.959699
    149          1           0      -11.537724   -7.236963    0.052586
    150          1           0       -9.902117   -7.150816   -0.306531
    151          1           0      -10.952161   -7.599603   -1.627975
    152          1           0       -8.052627   -1.404032   -0.107009
    153          1           0       -7.965066   -1.223660    1.628288
    154          1           0       -7.495689    0.165566    0.720114
    155          1           0      -10.772415    4.069895    0.121426
    156          1           0       -9.589384    5.311432    3.899033
    157          1           0      -11.292693    6.039316    3.866991
    158          1           0       -9.929826    6.872971    3.151241
 ---------------------------------------------------------------------

 SCF Done:  E(RPBE1PBE) =  -4067.37592536     A.U. after   16 cycles

 Excitation energies and oscillator strengths:

 Excited State   1:      Singlet-A      1.8203 eV  681.13 nm  f=0.3739  <S**2>=0.000
     309 -> 315       -0.17689
     312 -> 313        0.69218
     312 <- 313       -0.10905
 This state for optimization and/or second-order correction.
 Total Energy, E(TD-HF/TD-DFT) =  -4067.30903160
 Copying the excited state density for this state as the 1-particle RhoCI density.

 Excited State   2:      Singlet-A      1.9095 eV  649.29 nm  f=0.3631  <S**2>=0.000
     310 -> 316        0.19445
     311 -> 314        0.68514

 Excited State   3:      Singlet-A      1.9529 eV  634.86 nm  f=0.0000  <S**2>=0.000
     311 -> 313        0.70710

 Excited State   4:      Singlet-A      1.9689 eV  629.72 nm  f=0.0000  <S**2>=0.000
     312 -> 314        0.70709

 Excited State   5:      Singlet-A      2.2084 eV  561.41 nm  f=0.1017  <S**2>=0.000
     310 -> 314        0.65623
     311 -> 316       -0.25150

 The electronic state is 1-A.
 Alpha  occ. eigenvalues --  -46.91742 -46.91649 -19.25495 -19.25381 -19.20129
 Alpha  occ. eigenvalues --  -19.19597 -19.19558 -19.19464 -19.18585 -19.18189
 Alpha  occ. eigenvalues --  -14.41900 -14.41530 -14.41050 -14.41006 -14.39669
 Alpha  occ. eigenvalues --  -14.39351 -14.39256 -14.38591 -10.35468 -10.35433
 Alpha  occ. eigenvalues --  -10.33183 -10.32629 -10.32536 -10.31966 -10.29385
 Alpha  occ. eigenvalues --  -10.29338 -10.29174 -10.29024 -10.28920 -10.28759
 Alpha  occ. eigenvalues --  -10.28617 -10.28407 -10.28326 -10.28225 -10.28130
 Alpha  occ. eigenvalues --  -10.28105 -10.28049 -10.27915 -10.27770 -10.27612
 Alpha  occ. eigenvalues --  -10.26814 -10.26768 -10.26689 -10.26669 -10.26624
 Alpha  occ. eigenvalues --  -10.26603 -10.26480 -10.26350 -10.26243 -10.26171
 Alpha  occ. eigenvalues --  -10.26144 -10.26143 -10.25936 -10.25922 -10.25887
 Alpha  occ. eigenvalues --  -10.25781 -10.25536 -10.25375 -10.25326 -10.25309
 Alpha  occ. eigenvalues --  -10.25224 -10.25111 -10.24895 -10.24856 -10.24710
 Alpha  occ. eigenvalues --  -10.24632 -10.24432 -10.24370 -10.24321 -10.24209
 Alpha  occ. eigenvalues --  -10.24166 -10.24152 -10.23636 -10.23586 -10.23523
 Alpha  occ. eigenvalues --  -10.23519 -10.23402 -10.23370 -10.23147 -10.23062
 Alpha  occ. eigenvalues --  -10.22909 -10.22909 -10.22780 -10.22757 -10.22325
 Alpha  occ. eigenvalues --  -10.22121  -3.13933  -3.13916  -1.86767  -1.86742
 Alpha  occ. eigenvalues --   -1.86312  -1.86308  -1.86160  -1.86145  -1.10653
 Alpha  occ. eigenvalues --   -1.10203  -1.07049  -1.06088  -1.04752  -1.01957
 Alpha  occ. eigenvalues --   -1.01513  -1.00016  -0.99940  -0.98911  -0.98324
 Alpha  occ. eigenvalues --   -0.98199  -0.97674  -0.96798  -0.96312  -0.95267
 Alpha  occ. eigenvalues --   -0.86874  -0.85148  -0.83540  -0.83417  -0.82959
 Alpha  occ. eigenvalues --   -0.82523  -0.82225  -0.81967  -0.81751  -0.81642
 Alpha  occ. eigenvalues --   -0.81240  -0.81176  -0.81031  -0.80691  -0.78323
 Alpha  occ. eigenvalues --   -0.78133  -0.77796  -0.77659  -0.76568  -0.76505
 Alpha  occ. eigenvalues --   -0.75753  -0.75595  -0.75293  -0.75259  -0.74516
 Alpha  occ. eigenvalues --   -0.74432  -0.72693  -0.72360  -0.71642  -0.71547
 Alpha  occ. eigenvalues --   -0.71180  -0.70600  -0.70206  -0.69974  -0.69419
 Alpha  occ. eigenvalues --   -0.69108  -0.66989  -0.66626  -0.66021  -0.65832
 Alpha  occ. eigenvalues --   -0.64345  -0.63683  -0.63098  -0.63070  -0.62599
 Alpha  occ. eigenvalues --   -0.61897  -0.61279  -0.60590  -0.60122  -0.59822
 Alpha  occ. eigenvalues --   -0.59735  -0.59558  -0.59230  -0.59071  -0.58583
 Alpha  occ. eigenvalues --   -0.58565  -0.56320  -0.56068  -0.54411  -0.54049
 Alpha  occ. eigenvalues --   -0.53900  -0.53857  -0.53615  -0.53415  -0.52827
 Alpha  occ. eigenvalues --   -0.52391  -0.52324  -0.52080  -0.51900  -0.50568
 Alpha  occ. eigenvalues --   -0.50472  -0.50212  -0.50098  -0.49923  -0.49700
 Alpha  occ. eigenvalues --   -0.49570  -0.49091  -0.49028  -0.48502  -0.48432
 Alpha  occ. eigenvalues --   -0.47793  -0.47743  -0.47671  -0.47577  -0.47457
 Alpha  occ. eigenvalues --   -0.47301  -0.47191  -0.47094  -0.46895  -0.46682
 Alpha  occ. eigenvalues --   -0.46578  -0.46409  -0.46134  -0.45878  -0.45524
 Alpha  occ. eigenvalues --   -0.45503  -0.45392  -0.45374  -0.45217  -0.44750
 Alpha  occ. eigenvalues --   -0.44654  -0.44327  -0.44142  -0.44021  -0.43812
 Alpha  occ. eigenvalues --   -0.43782  -0.43640  -0.43509  -0.43494  -0.43146
 Alpha  occ. eigenvalues --   -0.43075  -0.43025  -0.43006  -0.42724  -0.42683
 Alpha  occ. eigenvalues --   -0.42398  -0.42380  -0.42173  -0.42090  -0.41589
 Alpha  occ. eigenvalues --   -0.41437  -0.41288  -0.41209  -0.41075  -0.40996
 Alpha  occ. eigenvalues --   -0.40938  -0.40849  -0.40646  -0.40504  -0.40305
 Alpha  occ. eigenvalues --   -0.40233  -0.39834  -0.39828  -0.39634  -0.39613
 Alpha  occ. eigenvalues --   -0.39160  -0.39123  -0.38997  -0.38940  -0.38842
 Alpha  occ. eigenvalues --   -0.38753  -0.38427  -0.38349  -0.38189  -0.38135
 Alpha  occ. eigenvalues --   -0.37873  -0.37820  -0.37808  -0.37705  -0.37700
 Alpha  occ. eigenvalues --   -0.37514  -0.37428  -0.37171  -0.37043  -0.36909
 Alpha  occ. eigenvalues --   -0.36668  -0.36534  -0.36400  -0.36216  -0.36162
 Alpha  occ. eigenvalues --   -0.36001  -0.35659  -0.35413  -0.35206  -0.35078
 Alpha  occ. eigenvalues --   -0.35076  -0.34606  -0.34481  -0.34249  -0.33958
 Alpha  occ. eigenvalues --   -0.33502  -0.33103  -0.32994  -0.32870  -0.32540
 Alpha  occ. eigenvalues --   -0.32461  -0.31893  -0.31659  -0.31405  -0.31325
 Alpha  occ. eigenvalues --   -0.31014  -0.30584  -0.29490  -0.29046  -0.29020
 Alpha  occ. eigenvalues --   -0.28609  -0.28505  -0.27553  -0.26892  -0.26851
 Alpha  occ. eigenvalues --   -0.26183  -0.26019  -0.25774  -0.25703  -0.25620
 Alpha  occ. eigenvalues --   -0.25463  -0.25305  -0.24877  -0.20979  -0.20541
 Alpha  occ. eigenvalues --   -0.18762  -0.18576
 Alpha virt. eigenvalues --   -0.11095  -0.10856  -0.05436  -0.05066  -0.04146
 Alpha virt. eigenvalues --   -0.03530  -0.02203  -0.01995  -0.00043   0.00670
 Alpha virt. eigenvalues --    0.00925   0.00956   0.01431   0.01582   0.01816

 Mulliken charges:
               1
     1  Mg  12.000221
     2  C    5.983124
     3  C    6.014500
     4  C    6.020931
     5  C    5.999176
     6  N    6.990915
     7  C    6.025988
     8  C    5.995408
     9  C    6.005735
    10  C    5.970212
    11  C    6.001937
    12  C    5.994970
    13  C    5.998365
    14  H    1.000146
    15  N    7.004449
    16  C    5.958384
    17  C    5.984429
    18  C    5.983092
    19  C    5.965918
    20  C    6.005314
    21  C    5.987461
    22  O    7.974558
    23  C    6.003123
    24  N    7.011184
    25  C    5.962856
    26  C    6.006170
    27  C    5.996053
    28  C    6.031134
    29  C    6.004481
    30  C    5.995139
    31  C    5.994489
    32  N    6.997725
    33  C    6.032548
    34  C    6.028473
    35  C    6.002426
    36  C    6.029652
    37  C    5.999520
    38  C    6.015633
    39  O    8.026836
    40  C    6.001992
    41  C    6.003379
    42  O    8.005270
    43  O    8.000124
    44  C    5.998109
    45  H    0.989952
    46  H    0.993738
    47  H    1.011714
    48  H    0.996392
    49  H    1.001300
    50  H    0.997463
    51  H    0.988286
    52  H    1.002330
    53  H    1.008538
    54  H    0.996505
    55  H    0.996751
    56  H    1.005255
    57  H    0.983958
    58  H    0.981447
    59  H    0.982643
    60  H    0.992755
    61  H    0.995261
    62  H    0.986891
    63  H    1.002772
    64  H    0.997861
    65  H    1.000545
    66  H    1.001542
    67  H    0.987853
    68  H    1.009515
    69  H    0.996080
    70  H    1.010262
    71  H    1.007833
    72  H    0.996208
    73  H    1.013479
    74  H    1.017012
    75  H    1.016999
    76  H    1.008426
    77  H    1.004307
    78  H    1.005049
    79  H    1.001532
    80  Mg  11.999936
    81  C    6.000190
    82  C    5.999765
    83  C    5.999895
    84  C    6.000132
    85  N    7.000107
    86  C    5.999433
    87  C    6.000227
    88  C    5.999776
    89  C    6.000809
    90  C    5.999870
    91  C    6.000127
    92  C    5.999936
    93  H    1.000131
    94  N    6.999938
    95  C    6.000822
    96  C    6.000489
    97  C    6.000424
    98  C    6.000469
    99  C    5.999891
   100  C    6.000303
   101  O    8.000693
   102  C    5.999892
   103  N    6.999983
   104  C    6.000545
   105  C    5.999884
   106  C    6.000297
   107  C    5.999284
   108  C    5.999894
   109  C    6.000127
   110  C    5.999954
   111  N    7.000061
   112  C    5.999195
   113  C    5.999277
   114  C    5.999822
   115  C    5.999572
   116  C    6.000116
   117  C    5.999500
   118  O    7.998940
   119  C    6.000037
   120  C    5.999935
   121  O    7.999964
   122  O    7.999911
   123  C    6.000019
   124  H    1.000319
   125  H    1.000210
   126  H    0.999647
   127  H    1.000083
   128  H    1.000139
   129  H    1.000318
   130  H    1.000005
   131  H    1.000287
   132  H    0.999823
   133  H    0.999933
   134  H    0.999987
   135  H    0.999975
   136  H    1.000557
   137  H    1.000418
   138  H    1.000333
   139  H    1.000248
   140  H    1.000149
   141  H    1.000467
   142  H    0.999934
   143  H    0.999979
   144  H    1.000057
   145  H    1.000281
   146  H    1.000029
   147  H    0.999843
   148  H    0.999776
   149  H    1.000073
   150  H    0.999899
   151  H    0.999893
   152  H    0.999353
   153  H    0.999437
   154  H    0.999386
   155  H    0.999713
   156  H    0.999976
   157  H    1.000027
   158  H    0.999873
 Sum of Mulliken charges = 624.00000

 Dipole moment (field-independent basis, Debye):
    X=             -7.8431    Y=              0.8311    Z=             -6.7907  Tot=             10.4076
 Quadrupole moment (field-independent basis, Debye-Ang):
   XX=           -200.8142   YY=              1.3533   ZZ=             -0.4361
   XY=             17.3484   XZ=            -92.9670   YZ=              5.1007

 Normal termination of Gaussian 16 at Thu Oct 14 17:01:17 2021.
