 Gaussian 16, Revision A.03,
 Gaussian 16:  ES64L-G16RevA.03 25-Dec-2016

 --------------------------------------------------------
 #p PBE1PBE/Def2SVP td=(nstates=5) density=(transition=1)
 --------------------------------------------------------

 --------------------------------
 TDDFT excited states in gaussian
 --------------------------------
 Symbolic Z-matrix:
 Charge =  0 Multiplicity = 1

                         Standard orientation:
 ---------------------------------------------------------------------
 Center     Atomic      Atomic             Coordinates (Angstroms)
 Number     Number       Type             X           Y           Z
 ---------------------------------------------------------------------
      1         12           0       18.732245   -0.053260    0.137837
      2          6           0       15.352870   -0.796955    0.121094
      3          6           0       18.601756    0.494402   -3.274904
      4          6           0       21.783505    1.374893    0.350036
      5          6           0       18.565089   -0.327221    3.649909
      6          7           0       17.074222    0.132254   -1.357097
      7          6           0       15.871357   -0.403647   -1.131828
      8          6           0       14.976010   -0.259728   -2.401209
      9          6           0       16.089154   -0.111161   -3.542822
     10          6           0       17.392118    0.122869   -2.686572
     11          6           0       16.098926   -1.299988   -4.533833
     12          6           0       14.140056    0.997092   -2.317540
     13          6           0       12.707507    0.865317   -2.810539
     14          1           0       11.967523    2.011114   -3.598386
     15          7           0       20.077792    0.661504   -1.357947
     16          6           0       19.845006    0.881852   -2.663328
     17          6           0       21.055586    1.370939   -3.239046
     18          6           0       22.066520    1.472320   -2.235743
     19          6           0       21.356463    1.132765   -0.996402
     20          6           0       21.215240    1.517639   -4.707143
     21          6           0       23.424250    2.032009   -2.471826
     22          8           0       23.771362    2.344300   -3.598729
     23          6           0       24.439602    2.167424   -1.343419
     24          7           0       20.067324    0.384426    1.850289
     25          6           0       21.234008    1.045106    1.608195
     26          6           0       21.847957    1.516871    2.886126
     27          6           0       20.784887    0.961514    3.947644
     28          6           0       19.738059    0.218768    3.155015
     29          6           0       23.305836    1.071348    3.105666
     30          6           0       20.155266    2.041517    4.934615
     31          6           0       20.170100    1.811649    6.464177
     32          7           0       17.320893   -0.486763    1.587284
     33          6           0       17.414596   -0.629906    2.935980
     34          6           0       16.292759   -1.299955    3.425929
     35          6           0       15.414595   -1.433130    2.359386
     36          6           0       16.050995   -0.860295    1.286896
     37          6           0       16.066422   -1.665598    4.922212
     38          6           0       14.179413   -1.908438    1.942412
     39          8           0       13.275961   -2.370154    2.630703
     40          6           0       13.979467   -1.496181    0.404828
     41          6           0       13.892025   -2.630829   -0.441835
     42          8           0       14.763854   -3.398112   -0.856912
     43          8           0       12.547992   -2.752345   -0.781052
     44          6           0       12.093586   -3.825716   -1.648370
     45          1           0       18.607240    0.516911   -4.366443
     46          1           0       22.759737    1.810675    0.574631
     47          1           0       18.654243   -0.464021    4.729727
     48          1           0       14.339686   -1.142200   -2.461764
     49          1           0       16.031819    0.823384   -4.099946
     50          1           0       15.415709   -2.090595   -4.224205
     51          1           0       17.111489   -1.696271   -4.616258
     52          1           0       15.841540   -0.907422   -5.517304
     53          1           0       14.539429    1.901303   -2.777342
     54          1           0       14.201495    1.291597   -1.269895
     55          1           0       12.113746    0.558265   -1.949738
     56          1           0       12.790536   -0.005869   -3.460319
     57          1           0       21.730742    0.598014   -4.983365
     58          1           0       21.791117    2.407941   -4.960512
     59          1           0       20.265720    1.593615   -5.237102
     60          1           0       24.161247    3.073972   -0.805813
     61          1           0       25.383430    2.416252   -1.827959
     62          1           0       24.447931    1.272886   -0.720791
     63          1           0       21.772548    2.594301    2.742895
     64          1           0       21.252849    0.294292    4.671495
     65          1           0       23.915551    1.960953    2.944277
     66          1           0       23.603444    0.252100    2.450357
     67          1           0       23.440401    0.779484    4.146924
     68          1           0       19.105590    2.171102    4.671401
     69          1           0       20.644759    3.013319    4.866913
     70          1           0       19.219482    1.290177    6.575200
     71          1           0       20.111098    2.763206    6.990943
     72          1           0       20.860691    1.092212    6.903973
     73          1           0       15.822928   -0.753677    5.465885
     74          1           0       16.932079   -2.056543    5.457259
     75          1           0       15.236113   -2.363909    5.030926
     76          1           0       13.102266   -0.849282    0.385324
     77          1           0       11.076465   -4.070304   -1.343747
     78          1           0       12.759144   -4.687160   -1.709646
     79          1           0       11.972139   -3.408212   -2.647991
     80         12           0      -18.491414    0.658603    0.074169
     81          6           0      -15.892035   -1.807603   -0.513228
     82          6           0      -20.402828   -1.937915    1.058790
     83          6           0      -20.783022    2.837257    0.526702
     84          6           0      -16.363406    3.120057   -1.322148
     85          7           0      -18.114977   -1.712364    0.275056
     86          6           0      -16.987028   -2.414443    0.070924
     87          6           0      -17.168426   -3.866301    0.553393
     88          6           0      -18.767593   -3.873231    0.587244
     89          6           0      -19.115306   -2.448967    0.706112
     90          6           0      -19.506757   -4.746743   -0.412547
     91          6           0      -16.447800   -4.032629    1.902448
     92          6           0      -16.014562   -5.502290    2.180001
     93          1           0      -16.034278   -6.645578    1.063123
     94          7           0      -20.379963    0.505645    0.764581
     95          6           0      -21.057446   -0.664332    1.049729
     96          6           0      -22.430519   -0.313792    1.399905
     97          6           0      -22.537440    1.096849    1.323294
     98          6           0      -21.191000    1.524494    0.848410
     99          6           0      -23.466814   -1.286142    1.751439
    100          6           0      -23.780203    2.067027    1.684341
    101          8           0      -23.652802    3.259912    1.731203
    102          6           0      -25.088705    1.511782    2.274914
    103          7           0      -18.632461    2.646547   -0.601537
    104          6           0      -19.648127    3.365350   -0.130118
    105          6           0      -19.542521    4.842231   -0.400195
    106          6           0      -18.011281    4.942571   -0.605910
    107          6           0      -17.695174    3.463394   -1.017338
    108          6           0      -20.346356    5.334401   -1.692380
    109          6           0      -17.173120    5.478944    0.629428
    110          6           0      -17.822532    6.473830    1.634906
    111          7           0      -16.603753    0.687406   -0.847133
    112          6           0      -15.836470    1.709211   -1.300947
    113          6           0      -14.546484    1.289681   -1.615655
    114          6           0      -14.566797   -0.053649   -1.370463
    115          6           0      -15.808521   -0.412571   -0.884505
    116          6           0      -13.393206    2.185438   -2.059425
    117          6           0      -13.684494   -1.229551   -1.409567
    118          8           0      -12.582784   -1.429711   -1.898659
    119          6           0      -14.543986   -2.399074   -0.757950
    120          6           0      -14.506155   -3.527984   -1.671028
    121          8           0      -15.158995   -3.665354   -2.710472
    122          8           0      -13.440118   -4.278105   -1.322162
    123          6           0      -13.056307   -5.216901   -2.361120
    124          1           0      -21.065833   -2.794294    1.198962
    125          1           0      -21.602133    3.546868    0.656513
    126          1           0      -15.712282    3.930690   -1.655315
    127          1           0      -16.860258   -4.583604   -0.207375
    128          1           0      -19.036917   -4.328350    1.539383
    129          1           0      -20.024907   -5.574646    0.070448
    130          1           0      -18.810521   -5.148364   -1.148551
    131          1           0      -20.226914   -4.207076   -1.027596
    132          1           0      -17.174359   -3.813775    2.685272
    133          1           0      -15.617730   -3.342240    2.051141
    134          1           0      -16.487527   -5.899585    3.078664
    135          1           0      -15.023478   -5.360828    2.610867
    136          1           0      -23.038885   -2.215146    2.127577
    137          1           0      -24.023050   -1.452155    0.828706
    138          1           0      -24.150834   -0.945722    2.529136
    139          1           0      -24.973948    1.075865    3.267311
    140          1           0      -25.489852    0.870474    1.489811
    141          1           0      -25.836527    2.303657    2.324753
    142          1           0      -19.961632    5.281790    0.504606
    143          1           0      -17.733568    5.582602   -1.443014
    144          1           0      -20.845993    6.224410   -1.310511
    145          1           0      -21.094938    4.628397   -2.053652
    146          1           0      -19.736807    5.636558   -2.543142
    147          1           0      -16.237650    5.895481    0.258648
    148          1           0      -17.062622    4.560429    1.206091
    149          1           0      -18.360483    5.931287    2.411931
    150          1           0      -18.416176    7.125124    0.992471
    151          1           0      -17.087186    7.131913    2.096530
    152          1           0      -13.599486    3.147136   -1.589055
    153          1           0      -13.382631    2.372845   -3.132745
    154          1           0      -12.462341    1.742480   -1.705793
    155          1           0      -14.059540   -2.644263    0.188030
    156          1           0      -12.182383   -5.814350   -2.103051
    157          1           0      -13.015234   -4.829181   -3.379137
    158          1           0      -13.813668   -5.994269   -2.467847
 ---------------------------------------------------------------------

 SCF Done:  E(RPBE1PBE) =  -4067.33080029     A.U. after   16 cycles

 Excitation energies and oscillator strengths:

 Excited State   1:      Singlet-A      1.8605 eV  666.39 nm  f=0.3947  <S**2>=0.000
     309 -> 315        0.17787
     311 -> 313        0.69231
     311 <- 313       -0.11025
 This state for optimization and/or second-order correction.
 Total Energy, E(TD-HF/TD-DFT) =  -4067.26242668
 Copying the excited state density for this state as the 1-particle RhoCI density.

 Excited State   2:      Singlet-A      1.8734 eV  661.81 nm  f=0.0000  <S**2>=0.000
     312 -> 313        0.70710

 Excited State   3:      Singlet-A      1.9474 eV  636.66 nm  f=0.3532  <S**2>=0.000
     310 -> 316        0.18521
     312 -> 314        0.68729

 Excited State   4:      Singlet-A      2.1966 eV  564.45 nm  f=0.0000  <S**2>=0.000
     311 -> 314        0.70710

 Excited State   5:      Singlet-A      2.2364 eV  554.38 nm  f=0.0966  <S**2>=0.000
     309 -> 313        0.64805
     311 -> 315       -0.26582

 The electronic state is 1-A.
 Alpha  occ. eigenvalues --  -46.93033 -46.92742 -19.25551 -19.25222 -19.20492
 Alpha  occ. eigenvalues --  -19.20302 -19.19479 -19.19298 -19.19017 -19.18576
 Alpha  occ. eigenvalues --  -14.41846 -14.41473 -14.40763 -14.40726 -14.39437
 Alpha  occ. eigenvalues --  -14.39423 -14.38848 -14.38459 -10.36478 -10.35208
 Alpha  occ. eigenvalues --  -10.33931 -10.32325 -10.32168 -10.31757 -10.29240
 Alpha  occ. eigenvalues --  -10.29116 -10.29013 -10.28840 -10.28728 -10.28596
 Alpha  occ. eigenvalues --  -10.28574 -10.28221 -10.28105 -10.28023 -10.27769
 Alpha  occ. eigenvalues --  -10.27528 -10.27485 -10.27452 -10.27088 -10.26721
 Alpha  occ. eigenvalues --  -10.26653 -10.26503 -10.26294 -10.26264 -10.26178
 Alpha  occ. eigenvalues --  -10.26121 -10.26088 -10.25966 -10.25949 -10.25926
 Alpha  occ. eigenvalues --  -10.25912 -10.25787 -10.25725 -10.25629 -10.25445
 Alpha  occ. eigenvalues --  -10.25428 -10.25273 -10.25220 -10.25179 -10.25161
 Alpha  occ. eigenvalues --  -10.25161 -10.25106 -10.25041 -10.24805 -10.24594
 Alpha  occ. eigenvalues --  -10.24437 -10.24426 -10.24417 -10.24341 -10.24333
 Alpha  occ. eigenvalues --  -10.24229 -10.23924 -10.23905 -10.23597 -10.23570
 Alpha  occ. eigenvalues --  -10.23452 -10.23443 -10.23332 -10.23326 -10.23272
 Alpha  occ. eigenvalues --  -10.23100 -10.23010 -10.22892 -10.22503 -10.22364
 Alpha  occ. eigenvalues --  -10.21724  -3.14942  -3.14824  -1.87795  -1.87666
 Alpha  occ. eigenvalues --   -1.87311  -1.87216  -1.87157  -1.87033  -1.11281
 Alpha  occ. eigenvalues --   -1.10391  -1.07149  -1.04758  -1.04726  -1.04388
 Alpha  occ. eigenvalues --   -1.02225  -1.01446  -1.00429  -1.00164  -0.99749
 Alpha  occ. eigenvalues --   -0.99147  -0.98678  -0.98453  -0.98362  -0.97280
 Alpha  occ. eigenvalues --   -0.88244  -0.86786  -0.83782  -0.83350  -0.83208
 Alpha  occ. eigenvalues --   -0.82947  -0.82664  -0.82399  -0.82214  -0.81712
 Alpha  occ. eigenvalues --   -0.81235  -0.81211  -0.80527  -0.80160  -0.79683
 Alpha  occ. eigenvalues --   -0.78873  -0.78575  -0.77453  -0.77298  -0.76611
 Alpha  occ. eigenvalues --   -0.76442  -0.75887  -0.75798  -0.75066  -0.75060
 Alpha  occ. eigenvalues --   -0.74444  -0.72674  -0.72495  -0.71901  -0.71133
 Alpha  occ. eigenvalues --   -0.70967  -0.70838  -0.70752  -0.70096  -0.69577
 Alpha  occ. eigenvalues --   -0.69506  -0.67905  -0.67297  -0.66843  -0.66047
 Alpha  occ. eigenvalues --   -0.64297  -0.63957  -0.63637  -0.63144  -0.62516
 Alpha  occ. eigenvalues --   -0.62178  -0.61737  -0.61058  -0.60528  -0.60297
 Alpha  occ. eigenvalues --   -0.60030  -0.59905  -0.59522  -0.59393  -0.59120
 Alpha  occ. eigenvalues --   -0.58241  -0.57201  -0.56426  -0.55171  -0.55023
 Alpha  occ. eigenvalues --   -0.54480  -0.53987  -0.53824  -0.53677  -0.53474
 Alpha  occ. eigenvalues --   -0.52952  -0.52796  -0.52590  -0.52496  -0.52115
 Alpha  occ. eigenvalues --   -0.50989  -0.50913  -0.50623  -0.50066  -0.50002
 Alpha  occ. eigenvalues --   -0.49795  -0.49339  -0.49127  -0.48885  -0.48535
 Alpha  occ. eigenvalues --   -0.48201  -0.48198  -0.48020  -0.47955  -0.47546
 Alpha  occ. eigenvalues --   -0.47225  -0.47138  -0.46877  -0.46809  -0.46693
 Alpha  occ. eigenvalues --   -0.46487  -0.46323  -0.46070  -0.46061  -0.45918
 Alpha  occ. eigenvalues --   -0.45813  -0.45733  -0.45234  -0.44984  -0.44982
 Alpha  occ. eigenvalues --   -0.44733  -0.44694  -0.44504  -0.44263  -0.44215
 Alpha  occ. eigenvalues --   -0.44047  -0.43684  -0.43640  -0.43548  -0.43437
 Alpha  occ. eigenvalues --   -0.43326  -0.43288  -0.43006  -0.42916  -0.42862
 Alpha  occ. eigenvalues --   -0.42637  -0.42210  -0.42181  -0.42071  -0.41716
 Alpha  occ. eigenvalues --   -0.41571  -0.41486  -0.41438  -0.41390  -0.41303
 Alpha  occ. eigenvalues --   -0.40806  -0.40768  -0.40647  -0.40554  -0.40500
 Alpha  occ. eigenvalues --   -0.40261  -0.40197  -0.40061  -0.39820  -0.39758
 Alpha  occ. eigenvalues --   -0.39457  -0.39418  -0.39268  -0.39107  -0.38951
 Alpha  occ. eigenvalues --   -0.38811  -0.38673  -0.38655  -0.38420  -0.38400
 Alpha  occ. eigenvalues --   -0.38236  -0.38056  -0.37992  -0.37935  -0.37813
 Alpha  occ. eigenvalues --   -0.37760  -0.37547  -0.37383  -0.37139  -0.37044
 Alpha  occ. eigenvalues --   -0.37005  -0.36845  -0.36764  -0.36649  -0.36353
 Alpha  occ. eigenvalues --   -0.36275  -0.36154  -0.35848  -0.35335  -0.35181
 Alpha  occ. eigenvalues --   -0.34622  -0.34614  -0.34202  -0.33592  -0.33225
 Alpha  occ. eigenvalues --   -0.33160  -0.33144  -0.32975  -0.32937  -0.32419
 Alpha  occ. eigenvalues --   -0.32389  -0.32209  -0.31657  -0.31108  -0.30840
 Alpha  occ. eigenvalues --   -0.30685  -0.30658  -0.29779  -0.29517  -0.29404
 Alpha  occ. eigenvalues --   -0.29011  -0.28651  -0.27969  -0.27409  -0.26940
 Alpha  occ. eigenvalues --   -0.26560  -0.26385  -0.26144  -0.25889  -0.25511
 Alpha  occ. eigenvalues --   -0.25472  -0.25275  -0.25060  -0.21476  -0.20329
 Alpha  occ. eigenvalues --   -0.19181  -0.18867
 Alpha virt. eigenvalues --   -0.11618  -0.10753  -0.05734  -0.04627  -0.04371
 Alpha virt. eigenvalues --   -0.03605  -0.02070  -0.01811  -0.00425  -0.00387
 Alpha virt. eigenvalues --   -0.00181   0.00138   0.00525   0.01119   0.01412

 Mulliken charges:
               1
     1  Mg  11.997551
     2  C    5.998835
     3  C    6.025935
     4  C    6.007476
     5  C    5.977241
     6  N    7.013473
     7  C    6.018690
     8  C    5.992801
     9  C    6.009102
    10  C    5.962116
    11  C    6.000465
    12  C    5.999277
    13  C    5.997514
    14  H    1.009127
    15  N    7.001808
    16  C    5.958188
    17  C    5.976704
    18  C    5.989507
    19  C    5.966612
    20  C    6.004287
    21  C    5.990162
    22  O    7.982832
    23  C    6.002294
    24  N    6.992009
    25  C    5.973490
    26  C    6.009644
    27  C    5.991175
    28  C    6.033496
    29  C    6.003419
    30  C    5.997722
    31  C    6.002342
    32  N    7.002788
    33  C    6.030172
    34  C    6.029765
    35  C    6.003628
    36  C    6.018311
    37  C    6.001163
    38  C    6.017304
    39  O    8.031394
    40  C    6.004222
    41  C    6.001085
    42  O    8.010967
    43  O    8.001905
    44  C    5.996517
    45  H    0.994951
    46  H    0.988709
    47  H    1.005672
    48  H    0.998271
    49  H    1.000823
    50  H    0.988855
    51  H    1.004311
    52  H    0.998717
    53  H    1.010735
    54  H    0.994013
    55  H    0.995332
    56  H    1.003621
    57  H    0.978959
    58  H    0.983258
    59  H    0.979237
    60  H    0.990573
    61  H    0.987825
    62  H    0.992495
    63  H    1.000523
    64  H    1.000609
    65  H    1.000809
    66  H    1.001016
    67  H    0.988996
    68  H    0.995176
    69  H    1.009171
    70  H    0.992737
    71  H    1.002606
    72  H    1.002554
    73  H    1.019105
    74  H    1.019212
    75  H    1.011070
    76  H    1.009472
    77  H    1.003931
    78  H    1.004397
    79  H    1.007743
    80  Mg  11.999953
    81  C    6.000241
    82  C    5.999953
    83  C    5.999818
    84  C    6.000072
    85  N    7.000134
    86  C    5.999687
    87  C    6.000039
    88  C    5.999937
    89  C    6.000145
    90  C    5.999980
    91  C    6.000061
    92  C    6.000025
    93  H    0.999999
    94  N    6.999909
    95  C    6.000368
    96  C    6.000107
    97  C    6.000215
    98  C    6.000260
    99  C    5.999962
   100  C    6.000138
   101  O    8.000257
   102  C    5.999976
   103  N    6.999943
   104  C    6.000363
   105  C    5.999889
   106  C    6.000027
   107  C    5.999819
   108  C    5.999981
   109  C    6.000038
   110  C    5.999985
   111  N    7.000051
   112  C    5.999772
   113  C    5.999709
   114  C    6.000000
   115  C    5.999699
   116  C    5.999993
   117  C    5.999800
   118  O    7.999621
   119  C    5.999908
   120  C    5.999965
   121  O    8.000004
   122  O    7.999920
   123  C    6.000011
   124  H    1.000134
   125  H    1.000100
   126  H    0.999928
   127  H    0.999983
   128  H    0.999999
   129  H    1.000046
   130  H    1.000095
   131  H    1.000053
   132  H    0.999926
   133  H    0.999975
   134  H    0.999969
   135  H    0.999894
   136  H    1.000117
   137  H    1.000215
   138  H    1.000179
   139  H    1.000071
   140  H    1.000089
   141  H    1.000175
   142  H    1.000005
   143  H    1.000040
   144  H    1.000078
   145  H    1.000025
   146  H    1.000128
   147  H    0.999987
   148  H    0.999935
   149  H    0.999939
   150  H    1.000046
   151  H    0.999971
   152  H    0.999863
   153  H    0.999867
   154  H    0.999742
   155  H    0.999828
   156  H    0.999827
   157  H    1.000024
   158  H    1.000008
 Sum of Mulliken charges = 624.00000

 Dipole moment (field-independent basis, Debye):
    X=             -7.9290    Y=             -3.3996    Z=              6.1212  Tot=             10.5781
 Quadrupole moment (field-independent basis, Debye-Ang):
   XX=           -285.1224   YY=              1.3398   ZZ=              0.5916
   XY=            -63.2053   XZ=            114.7134   YZ=              0.1526

 Normal termination of Gaussian 16 at Thu Oct 14 10:39:51 2021.
