 Gaussian 16, Revision A.03,
 Gaussian 16:  ES64L-G16RevA.03 25-Dec-2016

 --------------------------------------------------------
 #p PBE1PBE/Def2SVP td=(nstates=5) density=(transition=1)
 --------------------------------------------------------

 --------------------------------
 TDDFT excited states in gaussian
 --------------------------------
 Symbolic Z-matrix:
 Charge =  0 Multiplicity = 1

                         Standard orientation:
 ---------------------------------------------------------------------
 Center     Atomic      Atomic             Coordinates (Angstroms)
 Number     Number       Type             X           Y           Z
 ---------------------------------------------------------------------
      1         12           0      -14.972110    0.310108   -0.204596
      2          6           0      -11.874518    1.896174   -0.768412
      3          6           0      -14.266600   -1.724377   -2.844726
      4          6           0      -17.559128   -1.686169    0.797238
      5          6           0      -15.163762    2.230071    2.791572
      6          7           0      -13.162719    0.019561   -1.577004
      7          6           0      -12.086843    0.841228   -1.755344
      8          6           0      -11.110097    0.301384   -2.814314
      9          6           0      -12.169561   -0.595890   -3.623608
     10          6           0      -13.280351   -0.781863   -2.620037
     11          6           0      -12.700400    0.017774   -4.946921
     12          6           0       -9.923956   -0.590329   -2.230109
     13          6           0       -8.638750   -0.722052   -3.032607
     14          1           0       -8.223959   -2.045963   -3.709167
     15          7           0      -15.899977   -1.496497   -0.910879
     16          6           0      -15.513761   -2.062415   -2.091046
     17          6           0      -16.413941   -3.050740   -2.492801
     18          6           0      -17.430261   -3.068262   -1.464713
     19          6           0      -17.001469   -2.088290   -0.427051
     20          6           0      -16.300842   -3.871711   -3.771716
     21          6           0      -18.636052   -3.978235   -1.528640
     22          8           0      -18.780079   -4.749689   -2.511915
     23          6           0      -19.805269   -3.949176   -0.482308
     24          7           0      -16.131411    0.327731    1.523200
     25          6           0      -17.191281   -0.603992    1.691662
     26          6           0      -18.088714   -0.162065    2.813987
     27          6           0      -17.219234    0.810778    3.639724
     28          6           0      -16.143587    1.227185    2.594525
     29          6           0      -19.414162    0.566990    2.497672
     30          6           0      -16.513123    0.084762    4.902417
     31          6           0      -17.305264   -0.060393    6.193033
     32          7           0      -13.837696    1.901434    0.698371
     33          6           0      -14.043419    2.576594    1.892128
     34          6           0      -13.021007    3.467916    2.157811
     35          6           0      -12.128797    3.286944    1.087101
     36          6           0      -12.667130    2.302072    0.241821
     37          6           0      -12.956490    4.379564    3.342390
     38          6           0      -10.989604    3.771110    0.507232
     39          8           0      -10.306178    4.731085    0.804173
     40          6           0      -10.651057    2.718682   -0.569431
     41          6           0       -9.465340    1.979060   -0.025543
     42          8           0       -9.457614    1.405361    1.018912
     43          8           0       -8.370014    2.130335   -0.877727
     44          6           0       -7.177332    1.589526   -0.324544
     45          1           0      -14.185684   -2.255718   -3.795549
     46          1           0      -18.508857   -2.157380    1.060562
     47          1           0      -15.363582    2.875933    3.648859
     48          1           0      -10.789354    1.070496   -3.516151
     49          1           0      -11.645709   -1.509630   -3.902872
     50          1           0      -12.080595   -0.473317   -5.697628
     51          1           0      -12.523850    1.091744   -5.005029
     52          1           0      -13.744460   -0.243490   -5.120266
     53          1           0      -10.249919   -1.623488   -2.109614
     54          1           0       -9.740113   -0.230559   -1.217518
     55          1           0       -7.859639   -0.432991   -2.325758
     56          1           0       -8.661157    0.049308   -3.802246
     57          1           0      -17.203466   -4.150987   -4.316235
     58          1           0      -15.731377   -4.706652   -3.364113
     59          1           0      -15.777800   -3.297208   -4.536254
     60          1           0      -20.290005   -2.973605   -0.507996
     61          1           0      -19.284825   -4.169414    0.449545
     62          1           0      -20.530521   -4.760030   -0.549009
     63          1           0      -18.272665   -1.046649    3.422855
     64          1           0      -17.787489    1.666892    4.003578
     65          1           0      -19.452364    1.612503    2.803016
     66          1           0      -20.271021   -0.095226    2.623354
     67          1           0      -19.404652    0.657307    1.411579
     68          1           0      -15.655272    0.743334    5.036837
     69          1           0      -16.165755   -0.912411    4.631424
     70          1           0      -17.284897   -1.103134    6.508704
     71          1           0      -18.337616    0.242855    6.016505
     72          1           0      -16.853021    0.511855    7.003453
     73          1           0      -11.962849    4.244362    3.768604
     74          1           0      -13.658379    4.098392    4.128471
     75          1           0      -13.073791    5.430173    3.076195
     76          1           0      -10.383009    3.247421   -1.483487
     77          1           0       -6.637700    2.368874    0.212829
     78          1           0       -6.437971    1.309328   -1.075798
     79          1           0       -7.372530    0.764013    0.357816
     80         12           0       14.086259   -1.061110   -0.212377
     81          6           0       14.725937    2.459424   -0.631241
     82          6           0       10.851206   -0.511541   -0.835438
     83          6           0       13.480884   -4.106773    1.047863
     84          6           0       17.409804   -1.349896    0.871555
     85          7           0       12.953033    0.751104   -0.616716
     86          6           0       13.413137    2.039947   -0.936212
     87          6           0       12.257534    2.931059   -1.532079
     88          6           0       11.039893    1.958160   -1.512503
     89          6           0       11.653016    0.624577   -1.008488
     90          6           0        9.838265    2.369339   -0.700085
     91          6           0       12.630801    3.556963   -2.980579
     92          6           0       12.460059    5.076428   -3.099833
     93          1           0       11.465381    5.520973   -4.235770
     94          7           0       12.402980   -2.214217   -0.061351
     95          6           0       11.155953   -1.832161   -0.354852
     96          6           0       10.188602   -2.897743   -0.086776
     97          6           0       10.972924   -3.915597    0.558013
     98          6           0       12.359685   -3.438125    0.557725
     99          6           0        8.759824   -2.793848   -0.409309
    100          6           0       10.364810   -5.200072    1.203876
    101          8           0       11.065134   -6.074610    1.685823
    102          6           0        8.893275   -5.461394    1.255562
    103          7           0       15.253884   -2.460402    0.775086
    104          6           0       14.785634   -3.731020    1.092034
    105          6           0       15.934466   -4.625613    1.663062
    106          6           0       17.229661   -3.825968    1.261357
    107          6           0       16.615937   -2.475721    0.891845
    108          6           0       15.823623   -5.095297    3.150180
    109          6           0       18.011191   -4.439040    0.067192
    110          6           0       19.518516   -4.430524    0.107395
    111          7           0       15.737489    0.263852    0.123464
    112          6           0       17.002467   -0.009626    0.560505
    113          6           0       17.845771    1.258287    0.433763
    114          6           0       17.010823    2.224485   -0.073241
    115          6           0       15.723418    1.594690   -0.179137
    116          6           0       19.329034    1.285546    0.724677
    117          6           0       16.865467    3.608619   -0.487416
    118          8           0       17.795828    4.441631   -0.482751
    119          6           0       15.273454    3.869622   -0.799341
    120          6           0       14.584029    4.812896    0.164232
    121          8           0       14.626651    4.613252    1.394346
    122          8           0       14.094249    5.957646   -0.465907
    123          6           0       13.820105    7.034474    0.478468
    124          1           0        9.804086   -0.428151   -1.133131
    125          1           0       13.204347   -5.110140    1.377360
    126          1           0       18.458735   -1.545733    1.105606
    127          1           0       12.188366    3.739637   -0.804664
    128          1           0       10.633059    2.009743   -2.523353
    129          1           0        9.981901    3.308549   -0.165729
    130          1           0        9.881884    1.605372    0.075417
    131          1           0        8.929588    2.470648   -1.294267
    132          1           0       11.967354    3.013452   -3.652710
    133          1           0       13.632036    3.229746   -3.259598
    134          1           0       13.461000    5.493209   -3.211683
    135          1           0       12.044983    5.463391   -2.168325
    136          1           0        8.010998   -2.937190    0.369047
    137          1           0        8.548763   -3.693847   -0.985730
    138          1           0        8.492535   -2.000764   -1.107991
    139          1           0        8.577652   -5.501249    0.212329
    140          1           0        8.436529   -4.573833    1.694313
    141          1           0        8.778025   -6.377196    1.833973
    142          1           0       15.885107   -5.525695    1.050222
    143          1           0       17.884216   -3.624797    2.109079
    144          1           0       14.828291   -4.773960    3.456192
    145          1           0       16.624767   -4.735158    3.794969
    146          1           0       15.732251   -6.179027    3.232733
    147          1           0       17.631230   -3.774336   -0.708391
    148          1           0       17.708654   -5.449747   -0.207511
    149          1           0       19.825011   -5.411550   -0.255765
    150          1           0       19.919841   -4.324476    1.115776
    151          1           0       19.832479   -3.736308   -0.672477
    152          1           0       19.608539    0.285961    1.057058
    153          1           0       19.493653    1.941788    1.578989
    154          1           0       19.865824    1.658058   -0.147552
    155          1           0       15.177908    4.196035   -1.834925
    156          1           0       14.488612    7.891896    0.414420
    157          1           0       13.797049    6.717732    1.521276
    158          1           0       12.813920    7.385517    0.250873
 ---------------------------------------------------------------------

 SCF Done:  E(RPBE1PBE) =  -4067.34155966     A.U. after   16 cycles

 Excitation energies and oscillator strengths:

 Excited State   1:      Singlet-A      1.6165 eV  767.00 nm  f=0.0000  <S**2>=0.000
     312 -> 313        0.70710
 This state for optimization and/or second-order correction.
 Total Energy, E(TD-HF/TD-DFT) =  -4067.28215536
 Copying the excited state density for this state as the 1-particle RhoCI density.

 Excited State   2:      Singlet-A      1.8517 eV  669.56 nm  f=0.4587  <S**2>=0.000
     310 -> 316        0.16634
     312 -> 314        0.69480
     312 <- 314       -0.11400

 Excited State   3:      Singlet-A      1.8621 eV  665.84 nm  f=0.3385  <S**2>=0.000
     309 -> 315        0.18145
     311 -> 313        0.68718
     311 <- 313       -0.10528

 Excited State   4:      Singlet-A      2.1541 eV  575.57 nm  f=0.1182  <S**2>=0.000
     309 -> 313        0.65688
     311 -> 315       -0.24324

 Excited State   5:      Singlet-A      2.2570 eV  549.32 nm  f=0.0000  <S**2>=0.000
     311 -> 314        0.70710

 The electronic state is 1-A.
 Alpha  occ. eigenvalues --  -46.93750 -46.91808 -19.27229 -19.26093 -19.21154
 Alpha  occ. eigenvalues --  -19.20962 -19.20032 -19.18876 -19.18417 -19.18210
 Alpha  occ. eigenvalues --  -14.42559 -14.42392 -14.42064 -14.41233 -14.39497
 Alpha  occ. eigenvalues --  -14.39268 -14.39073 -14.38890 -10.37732 -10.36752
 Alpha  occ. eigenvalues --  -10.33549 -10.32279 -10.32194 -10.30520 -10.30164
 Alpha  occ. eigenvalues --  -10.30157 -10.29505 -10.29285 -10.28887 -10.28798
 Alpha  occ. eigenvalues --  -10.28592 -10.28417 -10.28291 -10.28256 -10.28009
 Alpha  occ. eigenvalues --  -10.27977 -10.27966 -10.27742 -10.27608 -10.27436
 Alpha  occ. eigenvalues --  -10.27374 -10.27116 -10.26720 -10.26671 -10.26466
 Alpha  occ. eigenvalues --  -10.26397 -10.26360 -10.26264 -10.26077 -10.26025
 Alpha  occ. eigenvalues --  -10.25902 -10.25886 -10.25770 -10.25754 -10.25711
 Alpha  occ. eigenvalues --  -10.25661 -10.25554 -10.25517 -10.25515 -10.25347
 Alpha  occ. eigenvalues --  -10.25308 -10.25268 -10.25207 -10.25114 -10.25079
 Alpha  occ. eigenvalues --  -10.25002 -10.24869 -10.24632 -10.24621 -10.24218
 Alpha  occ. eigenvalues --  -10.24147 -10.24120 -10.24036 -10.23710 -10.23606
 Alpha  occ. eigenvalues --  -10.23532 -10.23530 -10.23459 -10.23337 -10.23295
 Alpha  occ. eigenvalues --  -10.23145 -10.23053 -10.22981 -10.22936 -10.22843
 Alpha  occ. eigenvalues --  -10.21930  -3.15629  -3.14034  -1.88467  -1.87995
 Alpha  occ. eigenvalues --   -1.87847  -1.86856  -1.86392  -1.86285  -1.12435
 Alpha  occ. eigenvalues --   -1.10984  -1.04960  -1.04896  -1.04357  -1.03641
 Alpha  occ. eigenvalues --   -1.02631  -1.02108  -1.00391  -0.99401  -0.98653
 Alpha  occ. eigenvalues --   -0.98572  -0.97986  -0.97237  -0.96577  -0.96522
 Alpha  occ. eigenvalues --   -0.88779  -0.86875  -0.83434  -0.83284  -0.83073
 Alpha  occ. eigenvalues --   -0.83047  -0.83000  -0.82381  -0.81983  -0.81626
 Alpha  occ. eigenvalues --   -0.81567  -0.81477  -0.80389  -0.80271  -0.78709
 Alpha  occ. eigenvalues --   -0.78571  -0.77972  -0.77912  -0.77235  -0.76973
 Alpha  occ. eigenvalues --   -0.76212  -0.76167  -0.75491  -0.75070  -0.74637
 Alpha  occ. eigenvalues --   -0.74547  -0.72817  -0.72451  -0.71902  -0.71757
 Alpha  occ. eigenvalues --   -0.71275  -0.71202  -0.70474  -0.70339  -0.70102
 Alpha  occ. eigenvalues --   -0.69137  -0.68124  -0.66847  -0.66749  -0.65445
 Alpha  occ. eigenvalues --   -0.63969  -0.63412  -0.62965  -0.62859  -0.62785
 Alpha  occ. eigenvalues --   -0.62182  -0.61700  -0.61188  -0.60747  -0.59851
 Alpha  occ. eigenvalues --   -0.59747  -0.59472  -0.59406  -0.59337  -0.58886
 Alpha  occ. eigenvalues --   -0.58829  -0.57425  -0.57132  -0.55083  -0.54912
 Alpha  occ. eigenvalues --   -0.54776  -0.54270  -0.54200  -0.53832  -0.53615
 Alpha  occ. eigenvalues --   -0.53282  -0.53128  -0.52892  -0.52766  -0.51948
 Alpha  occ. eigenvalues --   -0.51180  -0.50853  -0.50258  -0.49928  -0.49920
 Alpha  occ. eigenvalues --   -0.49718  -0.49640  -0.49310  -0.48504  -0.48369
 Alpha  occ. eigenvalues --   -0.48216  -0.48156  -0.47861  -0.47696  -0.47394
 Alpha  occ. eigenvalues --   -0.47278  -0.47219  -0.46881  -0.46738  -0.46486
 Alpha  occ. eigenvalues --   -0.46426  -0.46195  -0.46117  -0.46040  -0.45916
 Alpha  occ. eigenvalues --   -0.45842  -0.45706  -0.45535  -0.45306  -0.45199
 Alpha  occ. eigenvalues --   -0.44895  -0.44768  -0.44533  -0.44395  -0.44130
 Alpha  occ. eigenvalues --   -0.44045  -0.43942  -0.43851  -0.43689  -0.43599
 Alpha  occ. eigenvalues --   -0.43395  -0.43293  -0.43150  -0.42976  -0.42794
 Alpha  occ. eigenvalues --   -0.42709  -0.42609  -0.42075  -0.41947  -0.41902
 Alpha  occ. eigenvalues --   -0.41762  -0.41694  -0.41512  -0.41339  -0.41180
 Alpha  occ. eigenvalues --   -0.41171  -0.41137  -0.40844  -0.40803  -0.40683
 Alpha  occ. eigenvalues --   -0.40596  -0.40428  -0.40123  -0.40084  -0.39893
 Alpha  occ. eigenvalues --   -0.39560  -0.39461  -0.39310  -0.39096  -0.38884
 Alpha  occ. eigenvalues --   -0.38850  -0.38711  -0.38688  -0.38600  -0.38419
 Alpha  occ. eigenvalues --   -0.38214  -0.38054  -0.37913  -0.37835  -0.37828
 Alpha  occ. eigenvalues --   -0.37604  -0.37474  -0.37453  -0.37369  -0.37139
 Alpha  occ. eigenvalues --   -0.36627  -0.36575  -0.36461  -0.36264  -0.36057
 Alpha  occ. eigenvalues --   -0.35994  -0.35897  -0.35658  -0.35520  -0.35429
 Alpha  occ. eigenvalues --   -0.35262  -0.35070  -0.34429  -0.34419  -0.34058
 Alpha  occ. eigenvalues --   -0.33540  -0.33293  -0.32877  -0.32809  -0.32684
 Alpha  occ. eigenvalues --   -0.32460  -0.32252  -0.32149  -0.31980  -0.31671
 Alpha  occ. eigenvalues --   -0.31512  -0.31133  -0.30454  -0.30307  -0.29809
 Alpha  occ. eigenvalues --   -0.29634  -0.29069  -0.28539  -0.27138  -0.27082
 Alpha  occ. eigenvalues --   -0.26356  -0.25876  -0.25753  -0.25606  -0.25433
 Alpha  occ. eigenvalues --   -0.25396  -0.25288  -0.24670  -0.21362  -0.21059
 Alpha  occ. eigenvalues --   -0.19683  -0.18448
 Alpha virt. eigenvalues --   -0.12044  -0.10928  -0.06035  -0.04843  -0.04327
 Alpha virt. eigenvalues --   -0.04279  -0.02254  -0.01912  -0.01687  -0.01445
 Alpha virt. eigenvalues --   -0.00799   0.00039   0.00369   0.00690   0.01173

 Mulliken charges:
               1
     1  Mg  12.000000
     2  C    6.000000
     3  C    6.000000
     4  C    6.000000
     5  C    6.000000
     6  N    7.000000
     7  C    6.000000
     8  C    6.000000
     9  C    6.000000
    10  C    6.000000
    11  C    6.000000
    12  C    6.000000
    13  C    6.000000
    14  H    1.000000
    15  N    7.000000
    16  C    6.000000
    17  C    6.000000
    18  C    6.000000
    19  C    6.000000
    20  C    6.000000
    21  C    6.000000
    22  O    8.000000
    23  C    6.000000
    24  N    7.000000
    25  C    6.000000
    26  C    6.000000
    27  C    6.000000
    28  C    6.000000
    29  C    6.000000
    30  C    6.000000
    31  C    6.000000
    32  N    7.000000
    33  C    6.000000
    34  C    6.000000
    35  C    6.000000
    36  C    6.000000
    37  C    6.000000
    38  C    6.000000
    39  O    8.000000
    40  C    6.000000
    41  C    6.000000
    42  O    8.000000
    43  O    8.000000
    44  C    6.000000
    45  H    1.000000
    46  H    1.000000
    47  H    1.000000
    48  H    1.000000
    49  H    1.000000
    50  H    1.000000
    51  H    1.000000
    52  H    1.000000
    53  H    1.000000
    54  H    1.000000
    55  H    1.000000
    56  H    1.000000
    57  H    1.000000
    58  H    1.000000
    59  H    1.000000
    60  H    1.000000
    61  H    1.000000
    62  H    1.000000
    63  H    1.000000
    64  H    1.000000
    65  H    1.000000
    66  H    1.000000
    67  H    1.000000
    68  H    1.000000
    69  H    1.000000
    70  H    1.000000
    71  H    1.000000
    72  H    1.000000
    73  H    1.000000
    74  H    1.000000
    75  H    1.000000
    76  H    1.000000
    77  H    1.000000
    78  H    1.000000
    79  H    1.000000
    80  Mg  12.000000
    81  C    6.000000
    82  C    6.000000
    83  C    6.000000
    84  C    6.000000
    85  N    7.000000
    86  C    6.000000
    87  C    6.000000
    88  C    6.000000
    89  C    6.000000
    90  C    6.000000
    91  C    6.000000
    92  C    6.000000
    93  H    1.000000
    94  N    7.000000
    95  C    6.000000
    96  C    6.000000
    97  C    6.000000
    98  C    6.000000
    99  C    6.000000
   100  C    6.000000
   101  O    8.000000
   102  C    6.000000
   103  N    7.000000
   104  C    6.000000
   105  C    6.000000
   106  C    6.000000
   107  C    6.000000
   108  C    6.000000
   109  C    6.000000
   110  C    6.000000
   111  N    7.000000
   112  C    6.000000
   113  C    6.000000
   114  C    6.000000
   115  C    6.000000
   116  C    6.000000
   117  C    6.000000
   118  O    8.000000
   119  C    6.000000
   120  C    6.000000
   121  O    8.000000
   122  O    8.000000
   123  C    6.000000
   124  H    1.000000
   125  H    1.000000
   126  H    1.000000
   127  H    1.000000
   128  H    1.000000
   129  H    1.000000
   130  H    1.000000
   131  H    1.000000
   132  H    1.000000
   133  H    1.000000
   134  H    1.000000
   135  H    1.000000
   136  H    1.000000
   137  H    1.000000
   138  H    1.000000
   139  H    1.000000
   140  H    1.000000
   141  H    1.000000
   142  H    1.000000
   143  H    1.000000
   144  H    1.000000
   145  H    1.000000
   146  H    1.000000
   147  H    1.000000
   148  H    1.000000
   149  H    1.000000
   150  H    1.000000
   151  H    1.000000
   152  H    1.000000
   153  H    1.000000
   154  H    1.000000
   155  H    1.000000
   156  H    1.000000
   157  H    1.000000
   158  H    1.000000
 Sum of Mulliken charges = 624.00000

 Dipole moment (field-independent basis, Debye):
    X=             -0.0000    Y=              0.0000    Z=              0.0000  Tot=              0.0000
 Quadrupole moment (field-independent basis, Debye-Ang):
   XX=             -0.0000   YY=              0.0000   ZZ=             -0.0000
   XY=              0.0000   XZ=             -0.0000   YZ=              0.0000

 Normal termination of Gaussian 16 at Thu Oct 14 18:01:01 2021.
