 Gaussian 16, Revision A.03,
 Gaussian 16:  ES64L-G16RevA.03 25-Dec-2016

 --------------------------------------------------------
 #p PBE1PBE/Def2SVP td=(nstates=5) density=(transition=1)
 --------------------------------------------------------

 --------------------------------
 TDDFT excited states in gaussian
 --------------------------------
 Symbolic Z-matrix:
 Charge =  0 Multiplicity = 1

                         Standard orientation:
 ---------------------------------------------------------------------
 Center     Atomic      Atomic             Coordinates (Angstroms)
 Number     Number       Type             X           Y           Z
 ---------------------------------------------------------------------
      1         12           0      -28.109921   -0.049620   -0.259983
      2          6           0      -24.798833    0.436803    0.909126
      3          6           0      -28.035964   -3.125527    1.175616
      4          6           0      -31.484957   -0.156308   -0.656380
      5          6           0      -28.161904    3.289055   -1.189115
      6          7           0      -26.558860   -1.056899    1.038542
      7          6           0      -25.251265   -0.759675    1.317710
      8          6           0      -24.566137   -1.870081    2.023789
      9          6           0      -25.546608   -3.112571    1.783844
     10          6           0      -26.782649   -2.416568    1.326029
     11          6           0      -24.977400   -4.097465    0.775394
     12          6           0      -24.340407   -1.417785    3.475029
     13          6           0      -22.860637   -1.485864    4.043852
     14          1           0      -22.530677   -2.266082    5.351939
     15          7           0      -29.596341   -1.423865    0.130605
     16          6           0      -29.323149   -2.693517    0.658209
     17          6           0      -30.525358   -3.467104    0.573312
     18          6           0      -31.581642   -2.633980    0.071524
     19          6           0      -30.883378   -1.359581   -0.246087
     20          6           0      -30.537016   -4.937304    0.971770
     21          6           0      -33.041660   -2.970255   -0.134685
     22          8           0      -33.311989   -4.188516    0.073256
     23          6           0      -34.225156   -2.013162   -0.452685
     24          7           0      -29.653847    1.370914   -0.856976
     25          6           0      -30.965703    1.067859   -0.971439
     26          6           0      -31.836691    2.276730   -1.404715
     27          6           0      -30.735954    3.357689   -1.683244
     28          6           0      -29.414351    2.627652   -1.150980
     29          6           0      -32.663686    1.900437   -2.621031
     30          6           0      -30.934142    4.670433   -0.988842
     31          6           0      -31.248813    5.809903   -1.919711
     32          7           0      -26.800326    1.495705   -0.353907
     33          6           0      -26.892625    2.820125   -0.800177
     34          6           0      -25.662551    3.426453   -0.873371
     35          6           0      -24.792087    2.513065   -0.244373
     36          6           0      -25.545788    1.399351    0.118948
     37          6           0      -25.406280    4.719233   -1.618620
     38          6           0      -23.363559    2.267705    0.088259
     39          8           0      -22.410915    2.951723   -0.124039
     40          6           0      -23.418507    0.930993    0.920400
     41          6           0      -22.226269    0.100026    0.498853
     42          8           0      -21.201422   -0.042309    1.165843
     43          8           0      -22.480126   -0.529797   -0.743778
     44          6           0      -21.407892   -1.444536   -1.134674
     45          1           0      -27.957277   -4.184442    1.431486
     46          1           0      -32.551312   -0.177275   -0.893227
     47          1           0      -28.159368    4.378834   -1.248719
     48          1           0      -23.596809   -2.051482    1.559290
     49          1           0      -25.670225   -3.634345    2.732454
     50          1           0      -24.443472   -3.615253   -0.042293
     51          1           0      -25.809640   -4.610364    0.292151
     52          1           0      -24.362871   -4.878880    1.222376
     53          1           0      -24.982019   -2.034652    4.104076
     54          1           0      -24.733975   -0.425080    3.693535
     55          1           0      -22.682477   -0.425309    4.223450
     56          1           0      -22.150563   -1.699449    3.245798
     57          1           0      -30.097591   -5.079528    1.959091
     58          1           0      -29.906164   -5.450690    0.246224
     59          1           0      -31.508224   -5.419123    1.092570
     60          1           0      -34.022316   -1.701810   -1.476892
     61          1           0      -34.179521   -1.166342    0.232186
     62          1           0      -35.196436   -2.494340   -0.334815
     63          1           0      -32.542132    2.611724   -0.644719
     64          1           0      -30.570881    3.450791   -2.756335
     65          1           0      -33.178273    0.966577   -2.394114
     66          1           0      -31.983620    1.754558   -3.460887
     67          1           0      -33.357358    2.627126   -3.042236
     68          1           0      -30.054712    5.014350   -0.444389
     69          1           0      -31.702746    4.706110   -0.217033
     70          1           0      -32.171245    6.276496   -1.576212
     71          1           0      -31.470261    5.478103   -2.934093
     72          1           0      -30.442111    6.535798   -2.027165
     73          1           0      -24.329072    4.761591   -1.782835
     74          1           0      -25.722705    5.593983   -1.050975
     75          1           0      -25.983151    4.625856   -2.538459
     76          1           0      -23.140318    1.277911    1.916239
     77          1           0      -21.794785   -2.232475   -1.781009
     78          1           0      -21.040877   -2.014241   -0.282133
     79          1           0      -20.558610   -0.937086   -1.593011
     80         12           0       27.774541    0.706681   -0.669060
     81          6           0       26.305769   -2.525556   -0.938306
     82          6           0       24.671935    2.041573   -0.099283
     83          6           0       29.301397    3.580970    0.617107
     84          6           0       30.945335   -0.808089   -0.671619
     85          7           0       25.708558   -0.313209   -0.290357
     86          6           0       25.322231   -1.539269   -0.679299
     87          6           0       23.822013   -1.543988   -0.909272
     88          6           0       23.259093   -0.080246   -0.572355
     89          6           0       24.701462    0.628925   -0.448991
     90          6           0       22.419427    0.417890   -1.770102
     91          6           0       23.149521   -2.621667   -0.074138
     92          6           0       23.709496   -2.853244    1.349446
     93          1           0       22.840035   -2.351962    2.534787
     94          7           0       27.077238    2.631449    0.081197
     95          6           0       25.737722    2.917960    0.230524
     96          6           0       25.673709    4.304597    0.571279
     97          6           0       26.994861    4.800240    0.891483
     98          6           0       27.895542    3.688200    0.495356
     99          6           0       24.367214    5.023399    0.816433
    100          6           0       27.362349    6.098381    1.612023
    101          8           0       26.486627    6.837248    2.019081
    102          6           0       28.711954    6.507907    1.861500
    103          7           0       29.811578    1.280449   -0.007072
    104          6           0       30.162822    2.516032    0.317222
    105          6           0       31.644260    2.660647    0.625357
    106          6           0       32.079456    1.133790    0.555206
    107          6           0       30.930717    0.487890   -0.131746
    108          6           0       32.436463    3.594576   -0.414094
    109          6           0       32.427077    0.583722    2.014588
    110          6           0       33.840023    0.224488    2.377976
    111          7           0       28.498958   -1.136424   -1.011986
    112          6           0       29.831326   -1.587063   -1.107966
    113          6           0       29.873480   -2.999091   -1.531567
    114          6           0       28.522582   -3.343136   -1.486128
    115          6           0       27.695827   -2.249213   -1.050699
    116          6           0       31.088477   -3.859687   -2.022606
    117          6           0       27.624194   -4.484331   -1.688489
    118          8           0       27.810896   -5.659667   -2.044345
    119          6           0       26.166246   -4.017326   -1.366770
    120          6           0       25.868539   -4.905664   -0.208472
    121          8           0       26.501872   -4.950687    0.814884
    122          8           0       24.877262   -5.737607   -0.514998
    123          6           0       24.346606   -6.673083    0.537248
    124          1           0       23.695134    2.515345   -0.215720
    125          1           0       29.913099    4.426918    0.936895
    126          1           0       31.958592   -1.195148   -0.541189
    127          1           0       23.826937   -1.815174   -1.965013
    128          1           0       22.688273   -0.054820    0.356261
    129          1           0       21.406341    0.609421   -1.417011
    130          1           0       22.323041   -0.299780   -2.585225
    131          1           0       22.873499    1.359069   -2.078942
    132          1           0       23.209831   -3.576842   -0.595847
    133          1           0       22.100567   -2.375989    0.094047
    134          1           0       24.623745   -2.328531    1.626455
    135          1           0       23.851428   -3.932272    1.410982
    136          1           0       23.513021    4.350268    0.738959
    137          1           0       24.335846    5.885009    0.148659
    138          1           0       24.434140    5.487191    1.799943
    139          1           0       29.281893    5.860534    2.528315
    140          1           0       28.708887    7.499360    2.313991
    141          1           0       29.159687    6.470927    0.867799
    142          1           0       31.857099    2.969955    1.648337
    143          1           0       33.047331    1.215857    0.060326
    144          1           0       31.732591    4.019154   -1.130511
    145          1           0       33.121752    2.950733   -0.965734
    146          1           0       33.056595    4.378695    0.023027
    147          1           0       31.952799   -0.380857    2.195924
    148          1           0       32.090436    1.277471    2.783747
    149          1           0       34.043071   -0.846235    2.355889
    150          1           0       33.858868    0.592801    3.404219
    151          1           0       34.605632    0.843747    1.910285
    152          1           0       31.676047   -4.130872   -1.145923
    153          1           0       31.622553   -3.264305   -2.763316
    154          1           0       30.703413   -4.793195   -2.432560
    155          1           0       25.589659   -4.189870   -2.276290
    156          1           0       24.921760   -7.596315    0.611136
    157          1           0       23.309477   -6.944442    0.336045
    158          1           0       24.388251   -6.098638    1.462639
 ---------------------------------------------------------------------

 SCF Done:  E(RPBE1PBE) =  -4067.33646130     A.U. after   16 cycles

 Excitation energies and oscillator strengths:

 Excited State   1:      Singlet-A      1.8485 eV  670.73 nm  f=0.3280  <S**2>=0.000
     309 -> 316       -0.16627
     311 -> 313        0.69367
     311 <- 313       -0.11249
 This state for optimization and/or second-order correction.
 Total Energy, E(TD-HF/TD-DFT) =  -4067.26853015
 Copying the excited state density for this state as the 1-particle RhoCI density.

 Excited State   2:      Singlet-A      1.8532 eV  669.01 nm  f=0.3590  <S**2>=0.000
     310 -> 315        0.19389
     312 -> 314        0.68669

 Excited State   3:      Singlet-A      1.9017 eV  651.96 nm  f=0.0000  <S**2>=0.000
     312 -> 313        0.70711

 Excited State   4:      Singlet-A      2.1189 eV  585.12 nm  f=0.0000  <S**2>=0.000
     311 -> 314        0.70711

 Excited State   5:      Singlet-A      2.2158 eV  559.54 nm  f=0.0727  <S**2>=0.000
     310 -> 314        0.63257
     312 -> 315       -0.30036

 The electronic state is 1-A.
 Alpha  occ. eigenvalues --  -46.93576 -46.92426 -19.26301 -19.25696 -19.21276
 Alpha  occ. eigenvalues --  -19.20111 -19.19125 -19.19069 -19.18532 -19.18250
 Alpha  occ. eigenvalues --  -14.41939 -14.41920 -14.41696 -14.41454 -14.39837
 Alpha  occ. eigenvalues --  -14.39718 -14.39188 -14.38741 -10.37430 -10.35727
 Alpha  occ. eigenvalues --  -10.32847 -10.32690 -10.32179 -10.31401 -10.29764
 Alpha  occ. eigenvalues --  -10.29696 -10.29661 -10.29135 -10.28922 -10.28913
 Alpha  occ. eigenvalues --  -10.28791 -10.28547 -10.28545 -10.28499 -10.28348
 Alpha  occ. eigenvalues --  -10.28313 -10.28294 -10.28294 -10.27704 -10.27465
 Alpha  occ. eigenvalues --  -10.26804 -10.26707 -10.26663 -10.26567 -10.26532
 Alpha  occ. eigenvalues --  -10.26341 -10.26199 -10.26196 -10.26138 -10.26041
 Alpha  occ. eigenvalues --  -10.26029 -10.26028 -10.26011 -10.25979 -10.25878
 Alpha  occ. eigenvalues --  -10.25830 -10.25751 -10.25676 -10.25651 -10.25549
 Alpha  occ. eigenvalues --  -10.25446 -10.25313 -10.25081 -10.25052 -10.24718
 Alpha  occ. eigenvalues --  -10.24683 -10.24656 -10.24635 -10.24556 -10.24433
 Alpha  occ. eigenvalues --  -10.24361 -10.24308 -10.24159 -10.24086 -10.24070
 Alpha  occ. eigenvalues --  -10.23971 -10.23781 -10.23646 -10.23578 -10.23552
 Alpha  occ. eigenvalues --  -10.22965 -10.22917 -10.22913 -10.22817 -10.22631
 Alpha  occ. eigenvalues --  -10.22460  -3.15470  -3.14568  -1.88271  -1.87874
 Alpha  occ. eigenvalues --   -1.87669  -1.87389  -1.86947  -1.86796  -1.11819
 Alpha  occ. eigenvalues --   -1.10356  -1.06868  -1.04922  -1.03567  -1.02814
 Alpha  occ. eigenvalues --   -1.02511  -1.02325  -0.99893  -0.99209  -0.98964
 Alpha  occ. eigenvalues --   -0.98269  -0.98007  -0.97419  -0.97079  -0.96218
 Alpha  occ. eigenvalues --   -0.87708  -0.86299  -0.84213  -0.83649  -0.83377
 Alpha  occ. eigenvalues --   -0.83246  -0.83044  -0.82555  -0.82206  -0.81430
 Alpha  occ. eigenvalues --   -0.81397  -0.80474  -0.80252  -0.79605  -0.79116
 Alpha  occ. eigenvalues --   -0.78905  -0.78630  -0.78329  -0.77076  -0.76950
 Alpha  occ. eigenvalues --   -0.76827  -0.76114  -0.75424  -0.75031  -0.74846
 Alpha  occ. eigenvalues --   -0.74596  -0.72234  -0.72158  -0.71765  -0.71632
 Alpha  occ. eigenvalues --   -0.71200  -0.70816  -0.70688  -0.70552  -0.69883
 Alpha  occ. eigenvalues --   -0.69295  -0.68004  -0.67298  -0.66688  -0.66177
 Alpha  occ. eigenvalues --   -0.63796  -0.63392  -0.63222  -0.62924  -0.62529
 Alpha  occ. eigenvalues --   -0.62137  -0.61696  -0.61132  -0.60710  -0.60169
 Alpha  occ. eigenvalues --   -0.60005  -0.59958  -0.59614  -0.59517  -0.59332
 Alpha  occ. eigenvalues --   -0.58564  -0.57699  -0.57000  -0.55093  -0.54843
 Alpha  occ. eigenvalues --   -0.54643  -0.54226  -0.53847  -0.53659  -0.53589
 Alpha  occ. eigenvalues --   -0.53074  -0.52733  -0.52394  -0.51830  -0.51397
 Alpha  occ. eigenvalues --   -0.50848  -0.50741  -0.50356  -0.50355  -0.50227
 Alpha  occ. eigenvalues --   -0.49592  -0.49474  -0.49448  -0.49104  -0.48996
 Alpha  occ. eigenvalues --   -0.48466  -0.48455  -0.48244  -0.48079  -0.47825
 Alpha  occ. eigenvalues --   -0.47686  -0.47406  -0.47199  -0.46922  -0.46852
 Alpha  occ. eigenvalues --   -0.46658  -0.46531  -0.46406  -0.46217  -0.46075
 Alpha  occ. eigenvalues --   -0.45748  -0.45538  -0.45209  -0.45165  -0.44850
 Alpha  occ. eigenvalues --   -0.44803  -0.44689  -0.44513  -0.44356  -0.44291
 Alpha  occ. eigenvalues --   -0.44275  -0.44030  -0.43802  -0.43601  -0.43518
 Alpha  occ. eigenvalues --   -0.43314  -0.43116  -0.43016  -0.42913  -0.42664
 Alpha  occ. eigenvalues --   -0.42444  -0.42435  -0.41955  -0.41902  -0.41645
 Alpha  occ. eigenvalues --   -0.41631  -0.41605  -0.41341  -0.41324  -0.41185
 Alpha  occ. eigenvalues --   -0.41030  -0.40836  -0.40666  -0.40525  -0.40492
 Alpha  occ. eigenvalues --   -0.40283  -0.40223  -0.40096  -0.40082  -0.39959
 Alpha  occ. eigenvalues --   -0.39921  -0.39808  -0.39693  -0.39559  -0.39133
 Alpha  occ. eigenvalues --   -0.38960  -0.38757  -0.38691  -0.38567  -0.38502
 Alpha  occ. eigenvalues --   -0.38345  -0.38153  -0.37979  -0.37742  -0.37583
 Alpha  occ. eigenvalues --   -0.37334  -0.37279  -0.37252  -0.37229  -0.36917
 Alpha  occ. eigenvalues --   -0.36875  -0.36579  -0.36418  -0.36336  -0.36224
 Alpha  occ. eigenvalues --   -0.36210  -0.36115  -0.36025  -0.35712  -0.35067
 Alpha  occ. eigenvalues --   -0.35005  -0.34956  -0.34727  -0.34063  -0.33775
 Alpha  occ. eigenvalues --   -0.33649  -0.33212  -0.32925  -0.32782  -0.32403
 Alpha  occ. eigenvalues --   -0.32402  -0.32213  -0.32094  -0.31768  -0.31467
 Alpha  occ. eigenvalues --   -0.31410  -0.30706  -0.30313  -0.29868  -0.29273
 Alpha  occ. eigenvalues --   -0.29124  -0.28866  -0.28828  -0.27435  -0.27013
 Alpha  occ. eigenvalues --   -0.26174  -0.26015  -0.25683  -0.25527  -0.25500
 Alpha  occ. eigenvalues --   -0.25365  -0.25112  -0.24482  -0.21391  -0.21222
 Alpha  occ. eigenvalues --   -0.19288  -0.18983
 Alpha virt. eigenvalues --   -0.11757  -0.11264  -0.05925  -0.05380  -0.03995
 Alpha virt. eigenvalues --   -0.03963  -0.02127  -0.02064  -0.01664  -0.00965
 Alpha virt. eigenvalues --   -0.00481   0.00418   0.00707   0.00968   0.01382

 Mulliken charges:
               1
     1  Mg  11.998772
     2  C    6.022660
     3  C    6.006837
     4  C    5.966883
     5  C    5.980999
     6  N    7.026548
     7  C    5.973818
     8  C    6.009454
     9  C    5.984947
    10  C    6.023333
    11  C    5.995902
    12  C    6.004204
    13  C    5.999704
    14  H    0.995138
    15  N    6.994006
    16  C    6.033245
    17  C    6.020186
    18  C    6.007370
    19  C    6.040139
    20  C    5.997470
    21  C    6.011262
    22  O    8.018957
    23  C    6.002331
    24  N    6.982585
    25  C    6.036475
    26  C    5.990170
    27  C    6.005961
    28  C    5.981332
    29  C    5.997059
    30  C    6.005117
    31  C    6.001813
    32  N    6.999331
    33  C    5.977711
    34  C    5.972345
    35  C    5.996806
    36  C    5.967307
    37  C    5.999193
    38  C    5.980935
    39  O    7.975326
    40  C    5.997669
    41  C    5.996549
    42  O    7.993952
    43  O    8.001600
    44  C    6.002704
    45  H    1.014395
    46  H    1.001359
    47  H    0.985447
    48  H    1.001988
    49  H    1.004824
    50  H    1.013892
    51  H    0.995572
    52  H    1.009922
    53  H    0.990353
    54  H    1.003533
    55  H    1.004492
    56  H    1.001549
    57  H    1.015802
    58  H    1.016641
    59  H    1.013525
    60  H    1.009378
    61  H    1.009414
    62  H    1.009743
    63  H    0.999968
    64  H    0.998230
    65  H    0.991811
    66  H    1.004291
    67  H    1.005560
    68  H    1.004522
    69  H    0.989978
    70  H    0.993299
    71  H    0.995095
    72  H    1.001843
    73  H    0.986701
    74  H    0.981499
    75  H    0.985621
    76  H    0.995264
    77  H    0.993693
    78  H    0.994796
    79  H    0.999896
    80  Mg  12.000204
    81  C    6.000442
    82  C    5.999044
    83  C    5.999462
    84  C    6.000750
    85  N    7.000268
    86  C    5.998895
    87  C    6.000039
    88  C    5.999466
    89  C    6.001597
    90  C    5.999951
    91  C    6.000092
    92  C    6.000288
    93  H    0.999496
    94  N    6.999741
    95  C    6.001630
    96  C    6.000682
    97  C    6.000399
    98  C    6.001366
    99  C    5.999838
   100  C    6.000490
   101  O    8.000712
   102  C    5.999837
   103  N    7.000148
   104  C    6.001056
   105  C    5.999509
   106  C    6.000575
   107  C    5.998559
   108  C    5.999900
   109  C    6.000031
   110  C    6.000070
   111  N    7.000095
   112  C    5.998417
   113  C    5.998949
   114  C    5.999994
   115  C    5.998848
   116  C    5.999878
   117  C    5.999285
   118  O    7.998690
   119  C    6.000016
   120  C    5.999750
   121  O    7.999890
   122  O    7.999949
   123  C    6.000074
   124  H    1.000292
   125  H    1.000389
   126  H    0.999619
   127  H    1.000227
   128  H    1.000237
   129  H    1.000201
   130  H    1.000410
   131  H    0.999848
   132  H    1.000191
   133  H    0.999725
   134  H    0.999993
   135  H    1.000146
   136  H    1.000743
   137  H    1.000755
   138  H    1.000644
   139  H    1.000420
   140  H    1.000478
   141  H    1.000256
   142  H    1.000058
   143  H    0.999806
   144  H    0.999872
   145  H    1.000453
   146  H    1.000045
   147  H    1.000140
   148  H    0.999496
   149  H    1.000080
   150  H    0.999797
   151  H    0.999811
   152  H    0.999350
   153  H    0.999423
   154  H    0.999585
   155  H    0.999624
   156  H    0.999904
   157  H    0.999778
   158  H    0.999828
 Sum of Mulliken charges = 624.00000

 Dipole moment (field-independent basis, Debye):
    X=             -5.6148    Y=             -7.6886    Z=              1.7173  Tot=              9.6742
 Quadrupole moment (field-independent basis, Debye-Ang):
   XX=            299.5122   YY=              0.3781   ZZ=             -1.0532
   XY=            238.0261   XZ=            -42.6535   YZ=              1.4638

 Normal termination of Gaussian 16 at Thu Oct 14 21:53:10 2021.
