 Gaussian 16, Revision A.03,
 Gaussian 16:  ES64L-G16RevA.03 25-Dec-2016

 --------------------------------------------------------
 #p PBE1PBE/Def2SVP td=(nstates=5) density=(transition=1)
 --------------------------------------------------------

 --------------------------------
 TDDFT excited states in gaussian
 --------------------------------
 Symbolic Z-matrix:
 Charge =  0 Multiplicity = 1

                         Standard orientation:
 ---------------------------------------------------------------------
 Center     Atomic      Atomic             Coordinates (Angstroms)
 Number     Number       Type             X           Y           Z
 ---------------------------------------------------------------------
      1         12           0       19.643027    0.198108    0.618888
      2          6           0       17.673607   -1.182821   -2.033621
      3          6           0       20.548488    2.777279   -1.460036
      4          6           0       21.879876    1.320284    2.887158
      5          6           0       19.399727   -2.937924    2.214965
      6          7           0       19.142136    0.712465   -1.486182
      7          6           0       18.270049    0.069601   -2.378797
      8          6           0       18.161847    0.889448   -3.638890
      9          6           0       19.462716    1.795312   -3.566625
     10          6           0       19.797991    1.721227   -2.047959
     11          6           0       20.564792    1.129762   -4.465697
     12          6           0       16.786148    1.625022   -3.811288
     13          6           0       16.309001    1.493125   -5.169309
     14          1           0       14.762814    1.888126   -5.388410
     15          7           0       20.865842    1.946128    0.687988
     16          6           0       21.063405    2.885952   -0.244211
     17          6           0       21.888148    3.922377    0.296561
     18          6           0       22.311166    3.529659    1.549039
     19          6           0       21.625584    2.182931    1.821507
     20          6           0       22.362871    5.139102   -0.559780
     21          6           0       23.185481    4.294885    2.563636
     22          8           0       23.476305    3.761998    3.604508
     23          6           0       23.598224    5.724728    2.305004
     24          7           0       20.713219   -0.820518    2.168777
     25          6           0       21.484661   -0.054580    3.035853
     26          6           0       21.788462   -0.813481    4.286533
     27          6           0       20.972994   -2.183078    4.088551
     28          6           0       20.259067   -1.962739    2.775709
     29          6           0       23.250243   -0.957060    4.545086
     30          6           0       19.960062   -2.631820    5.279197
     31          6           0       20.216332   -3.915607    5.964440
     32          7           0       18.703983   -1.687891    0.257459
     33          6           0       18.723864   -2.836972    1.015384
     34          6           0       17.817938   -3.860164    0.333318
     35          6           0       17.293618   -3.216646   -0.805633
     36          6           0       17.905303   -1.914517   -0.835083
     37          6           0       17.595322   -5.294308    0.832525
     38          6           0       16.514934   -3.468487   -1.980238
     39          8           0       15.872394   -4.486088   -2.324383
     40          6           0       16.855493   -2.235505   -2.914077
     41          6           0       15.488982   -1.778321   -3.507318
     42          8           0       14.892762   -0.789254   -3.043084
     43          8           0       15.174247   -2.543829   -4.580959
     44          6           0       13.768675   -2.222036   -5.006306
     45          1           0       20.664465    3.705912   -2.023399
     46          1           0       22.585287    1.670283    3.644581
     47          1           0       19.184080   -3.902396    2.679169
     48          1           0       18.331984    0.192260   -4.458994
     49          1           0       19.273334    2.804074   -3.931830
     50          1           0       21.005410    0.235544   -4.025566
     51          1           0       21.323238    1.875729   -4.699339
     52          1           0       20.116247    0.850767   -5.419432
     53          1           0       16.999546    2.690926   -3.727750
     54          1           0       16.065437    1.328448   -3.048868
     55          1           0       16.280695    0.447497   -5.476311
     56          1           0       16.944072    2.115886   -5.799834
     57          1           0       22.040101    5.993435    0.035161
     58          1           0       21.895333    5.220741   -1.540911
     59          1           0       23.438691    5.078796   -0.723787
     60          1           0       24.277787    6.073490    3.082683
     61          1           0       22.597151    6.151980    2.362570
     62          1           0       24.052159    5.771829    1.315185
     63          1           0       21.314642   -0.201131    5.053978
     64          1           0       21.716455   -2.973910    3.991959
     65          1           0       23.434558   -0.320395    5.409483
     66          1           0       23.866948   -0.526794    3.756152
     67          1           0       23.600633   -1.975731    4.712900
     68          1           0       19.024278   -2.767431    4.737030
     69          1           0       19.848454   -1.783882    5.953635
     70          1           0       19.398777   -4.618005    5.804232
     71          1           0       20.127231   -3.531199    6.979933
     72          1           0       21.228147   -4.292727    5.809605
     73          1           0       18.320310   -5.906274    0.297045
     74          1           0       16.588667   -5.657400    0.625598
     75          1           0       17.714711   -5.314119    1.915812
     76          1           0       17.509541   -2.672913   -3.667158
     77          1           0       12.989999   -2.617130   -4.354081
     78          1           0       13.518940   -2.524847   -6.022664
     79          1           0       13.721196   -1.133746   -5.049622
     80         12           0      -19.590688   -0.464641   -0.197458
     81          6           0      -18.607378    2.891283    0.242959
     82          6           0      -16.425310   -1.118085   -1.090786
     83          6           0      -20.492043   -3.603761   -0.078718
     84          6           0      -22.624670    0.441848    1.458954
     85          7           0      -17.729293    0.764718   -0.349574
     86          6           0      -17.542781    2.098924   -0.212283
     87          6           0      -16.134450    2.553252   -0.538146
     88          6           0      -15.574828    1.243179   -1.224778
     89          6           0      -16.606996    0.189441   -0.880550
     90          6           0      -15.345046    1.355132   -2.788430
     91          6           0      -15.148591    3.100446    0.584150
     92          6           0      -15.433459    2.877910    2.093269
     93          1           0      -14.202386    2.687220    3.056007
     94          7           0      -18.565597   -2.130257   -0.687707
     95          6           0      -17.264228   -2.229547   -0.923498
     96          6           0      -16.905443   -3.668504   -1.049356
     97          6           0      -18.192818   -4.405748   -0.906907
     98          6           0      -19.147003   -3.363203   -0.528016
     99          6           0      -15.545165   -4.165411   -1.458771
    100          6           0      -18.367259   -5.899048   -1.000001
    101          8           0      -17.393651   -6.588949   -1.292295
    102          6           0      -19.695085   -6.683936   -0.690225
    103          7           0      -21.333075   -1.508189    0.708195
    104          6           0      -21.434689   -2.757870    0.413078
    105          6           0      -22.874384   -3.244919    0.891823
    106          6           0      -23.387886   -1.980103    1.583005
    107          6           0      -22.365556   -0.910678    1.249692
    108          6           0      -23.852547   -3.823118   -0.144349
    109          6           0      -23.388325   -2.077493    3.195836
    110          6           0      -24.766066   -2.072632    3.883193
    111          7           0      -20.463440    1.232540    0.736442
    112          6           0      -21.711338    1.487971    1.240455
    113          6           0      -21.917596    2.949418    1.412740
    114          6           0      -20.659100    3.560695    1.149625
    115          6           0      -19.866556    2.444848    0.636119
    116          6           0      -23.164559    3.654020    1.992169
    117          6           0      -19.885174    4.756801    1.125240
    118          8           0      -20.065086    5.915511    1.537478
    119          6           0      -18.532817    4.394421    0.460381
    120          6           0      -18.400904    5.276991   -0.784201
    121          8           0      -17.724875    6.239398   -1.033972
    122          8           0      -19.110753    4.658746   -1.819287
    123          6           0      -19.034420    5.277727   -3.179024
    124          1           0      -15.385775   -1.303096   -1.370023
    125          1           0      -20.758513   -4.663350   -0.095119
    126          1           0      -23.644451    0.733807    1.716906
    127          1           0      -16.263306    3.302718   -1.318832
    128          1           0      -14.600091    1.003799   -0.799457
    129          1           0      -15.669639    2.326066   -3.161128
    130          1           0      -16.085528    0.650306   -3.165003
    131          1           0      -14.308204    1.115458   -3.024974
    132          1           0      -15.042000    4.171272    0.410254
    133          1           0      -14.149222    2.707101    0.394966
    134          1           0      -16.049409    1.980067    2.144624
    135          1           0      -15.869637    3.743302    2.591266
    136          1           0      -15.541507   -5.213732   -1.756547
    137          1           0      -14.864904   -3.892685   -0.651075
    138          1           0      -15.259739   -3.491550   -2.267246
    139          1           0      -20.636168   -6.410450   -1.168859
    140          1           0      -19.925303   -6.549082    0.366623
    141          1           0      -19.603046   -7.747086   -0.910485
    142          1           0      -22.800541   -4.078461    1.589474
    143          1           0      -24.395028   -1.628167    1.356907
    144          1           0      -23.413849   -3.857528   -1.141703
    145          1           0      -24.800510   -3.284070   -0.148734
    146          1           0      -24.119652   -4.863018    0.043726
    147          1           0      -22.855071   -1.243608    3.650264
    148          1           0      -22.852845   -2.997767    3.430197
    149          1           0      -24.800374   -1.597060    4.863687
    150          1           0      -25.003307   -3.123295    4.050071
    151          1           0      -25.397578   -1.542122    3.170451
    152          1           0      -23.875759    2.997036    2.491765
    153          1           0      -23.645971    4.094058    1.119181
    154          1           0      -22.826946    4.482363    2.614548
    155          1           0      -17.720536    4.615500    1.151998
    156          1           0      -18.900778    6.356685   -3.253925
    157          1           0      -20.023263    5.082960   -3.593757
    158          1           0      -18.349326    4.846589   -3.909285
 ---------------------------------------------------------------------

 SCF Done:  E(RPBE1PBE) =  -4067.32944585     A.U. after   16 cycles

 Excitation energies and oscillator strengths:

 Excited State   1:      Singlet-A      1.6781 eV  738.82 nm  f=0.0000  <S**2>=0.000
     312 -> 313        0.70711
 This state for optimization and/or second-order correction.
 Total Energy, E(TD-HF/TD-DFT) =  -4067.26777528
 Copying the excited state density for this state as the 1-particle RhoCI density.

 Excited State   2:      Singlet-A      1.8312 eV  677.06 nm  f=0.3432  <S**2>=0.000
     310 -> 315       -0.18209
     312 -> 314        0.68923

 Excited State   3:      Singlet-A      1.9112 eV  648.74 nm  f=0.3991  <S**2>=0.000
     309 -> 316        0.17697
     311 -> 313        0.69113
     311 <- 313       -0.10569

 Excited State   4:      Singlet-A      2.2680 eV  546.66 nm  f=0.0971  <S**2>=0.000
     309 -> 313        0.65264
     311 -> 316       -0.25852

 Excited State   5:      Singlet-A      2.2731 eV  545.45 nm  f=0.0126  <S**2>=0.000
     310 -> 314        0.57937
     312 -> 315        0.39822

 The electronic state is 1-A.
 Alpha  occ. eigenvalues --  -46.93441 -46.92796 -19.26835 -19.25196 -19.20561
 Alpha  occ. eigenvalues --  -19.20062 -19.19507 -19.19456 -19.19163 -19.18950
 Alpha  occ. eigenvalues --  -14.41811 -14.41710 -14.41485 -14.41286 -14.39993
 Alpha  occ. eigenvalues --  -14.39865 -14.38911 -14.38908 -10.36838 -10.36779
 Alpha  occ. eigenvalues --  -10.32898 -10.32648 -10.32589 -10.32203 -10.29091
 Alpha  occ. eigenvalues --  -10.29048 -10.28893 -10.28873 -10.28836 -10.28786
 Alpha  occ. eigenvalues --  -10.28712 -10.28660 -10.28596 -10.28533 -10.28488
 Alpha  occ. eigenvalues --  -10.28445 -10.27922 -10.27781 -10.27614 -10.27610
 Alpha  occ. eigenvalues --  -10.27214 -10.26838 -10.26724 -10.26697 -10.26648
 Alpha  occ. eigenvalues --  -10.26576 -10.26468 -10.26468 -10.26294 -10.26192
 Alpha  occ. eigenvalues --  -10.26075 -10.25873 -10.25872 -10.25736 -10.25571
 Alpha  occ. eigenvalues --  -10.25538 -10.25453 -10.25285 -10.25253 -10.25249
 Alpha  occ. eigenvalues --  -10.25216 -10.25205 -10.25124 -10.24923 -10.24779
 Alpha  occ. eigenvalues --  -10.24760 -10.24443 -10.24366 -10.24152 -10.24123
 Alpha  occ. eigenvalues --  -10.24070 -10.24028 -10.24018 -10.24017 -10.23976
 Alpha  occ. eigenvalues --  -10.23769 -10.23666 -10.23660 -10.23584 -10.23572
 Alpha  occ. eigenvalues --  -10.23197 -10.22993 -10.22902 -10.22784 -10.22707
 Alpha  occ. eigenvalues --  -10.22496  -3.15500  -3.14718  -1.88328  -1.87873
 Alpha  occ. eigenvalues --   -1.87726  -1.87553  -1.87079  -1.86941  -1.10847
 Alpha  occ. eigenvalues --   -1.10738  -1.06257  -1.04432  -1.03870  -1.02721
 Alpha  occ. eigenvalues --   -1.02046  -1.01967  -1.01383  -0.99411  -0.98687
 Alpha  occ. eigenvalues --   -0.98557  -0.98012  -0.97569  -0.97355  -0.96241
 Alpha  occ. eigenvalues --   -0.87830  -0.85670  -0.84155  -0.83182  -0.83165
 Alpha  occ. eigenvalues --   -0.82915  -0.82855  -0.82612  -0.82483  -0.81579
 Alpha  occ. eigenvalues --   -0.81498  -0.81090  -0.79930  -0.79874  -0.79174
 Alpha  occ. eigenvalues --   -0.78670  -0.78177  -0.78136  -0.77155  -0.76852
 Alpha  occ. eigenvalues --   -0.76529  -0.76008  -0.75098  -0.75039  -0.74782
 Alpha  occ. eigenvalues --   -0.74766  -0.72819  -0.72361  -0.71968  -0.71853
 Alpha  occ. eigenvalues --   -0.71316  -0.70928  -0.70907  -0.69808  -0.69771
 Alpha  occ. eigenvalues --   -0.69225  -0.67724  -0.66870  -0.66586  -0.65952
 Alpha  occ. eigenvalues --   -0.63994  -0.63565  -0.63124  -0.63050  -0.62326
 Alpha  occ. eigenvalues --   -0.62052  -0.61855  -0.61295  -0.60706  -0.60148
 Alpha  occ. eigenvalues --   -0.59980  -0.59510  -0.59396  -0.59347  -0.58997
 Alpha  occ. eigenvalues --   -0.58804  -0.57646  -0.56681  -0.55113  -0.54874
 Alpha  occ. eigenvalues --   -0.54393  -0.54029  -0.53682  -0.53163  -0.53008
 Alpha  occ. eigenvalues --   -0.52826  -0.52723  -0.52025  -0.51653  -0.51545
 Alpha  occ. eigenvalues --   -0.51004  -0.50501  -0.50395  -0.50125  -0.50022
 Alpha  occ. eigenvalues --   -0.49654  -0.49589  -0.49045  -0.48903  -0.48568
 Alpha  occ. eigenvalues --   -0.48495  -0.48258  -0.48104  -0.48054  -0.47585
 Alpha  occ. eigenvalues --   -0.47517  -0.47354  -0.47330  -0.47150  -0.47029
 Alpha  occ. eigenvalues --   -0.46599  -0.46478  -0.46284  -0.46080  -0.45732
 Alpha  occ. eigenvalues --   -0.45617  -0.45605  -0.45203  -0.45194  -0.45041
 Alpha  occ. eigenvalues --   -0.44883  -0.44639  -0.44523  -0.44401  -0.44057
 Alpha  occ. eigenvalues --   -0.44003  -0.43825  -0.43693  -0.43465  -0.43420
 Alpha  occ. eigenvalues --   -0.43300  -0.43205  -0.43127  -0.42891  -0.42829
 Alpha  occ. eigenvalues --   -0.42588  -0.42568  -0.42482  -0.42305  -0.42159
 Alpha  occ. eigenvalues --   -0.42136  -0.41872  -0.41675  -0.41338  -0.41333
 Alpha  occ. eigenvalues --   -0.41210  -0.41076  -0.40989  -0.40913  -0.40757
 Alpha  occ. eigenvalues --   -0.40567  -0.40507  -0.40215  -0.40158  -0.40104
 Alpha  occ. eigenvalues --   -0.39645  -0.39484  -0.39264  -0.39085  -0.39002
 Alpha  occ. eigenvalues --   -0.38789  -0.38774  -0.38478  -0.38379  -0.38274
 Alpha  occ. eigenvalues --   -0.38124  -0.37899  -0.37811  -0.37784  -0.37672
 Alpha  occ. eigenvalues --   -0.37611  -0.37257  -0.37030  -0.36948  -0.36859
 Alpha  occ. eigenvalues --   -0.36833  -0.36821  -0.36393  -0.36289  -0.36127
 Alpha  occ. eigenvalues --   -0.36038  -0.35794  -0.35670  -0.35579  -0.35106
 Alpha  occ. eigenvalues --   -0.34883  -0.34691  -0.34093  -0.33803  -0.33736
 Alpha  occ. eigenvalues --   -0.33460  -0.33249  -0.32951  -0.32679  -0.32261
 Alpha  occ. eigenvalues --   -0.32086  -0.31967  -0.31954  -0.31523  -0.31296
 Alpha  occ. eigenvalues --   -0.31158  -0.30040  -0.29924  -0.29400  -0.29277
 Alpha  occ. eigenvalues --   -0.29076  -0.28972  -0.28360  -0.27419  -0.27102
 Alpha  occ. eigenvalues --   -0.26566  -0.26135  -0.25989  -0.25949  -0.25877
 Alpha  occ. eigenvalues --   -0.25472  -0.25071  -0.25048  -0.21400  -0.21051
 Alpha  occ. eigenvalues --   -0.19168  -0.17916
 Alpha virt. eigenvalues --   -0.11412  -0.10254  -0.05872  -0.05514  -0.04762
 Alpha virt. eigenvalues --   -0.04230  -0.02637  -0.01967  -0.01437  -0.00897
 Alpha virt. eigenvalues --    0.00192   0.00480   0.00539   0.01033   0.01271

 Mulliken charges:
               1
     1  Mg  12.000000
     2  C    6.000000
     3  C    6.000000
     4  C    6.000000
     5  C    6.000000
     6  N    7.000000
     7  C    6.000000
     8  C    6.000000
     9  C    6.000000
    10  C    6.000000
    11  C    6.000000
    12  C    6.000000
    13  C    6.000000
    14  H    1.000000
    15  N    7.000000
    16  C    6.000000
    17  C    6.000000
    18  C    6.000000
    19  C    6.000000
    20  C    6.000000
    21  C    6.000000
    22  O    8.000000
    23  C    6.000000
    24  N    7.000000
    25  C    6.000000
    26  C    6.000000
    27  C    6.000000
    28  C    6.000000
    29  C    6.000000
    30  C    6.000000
    31  C    6.000000
    32  N    7.000000
    33  C    6.000000
    34  C    6.000000
    35  C    6.000000
    36  C    6.000000
    37  C    6.000000
    38  C    6.000000
    39  O    8.000000
    40  C    6.000000
    41  C    6.000000
    42  O    8.000000
    43  O    8.000000
    44  C    6.000000
    45  H    1.000000
    46  H    1.000000
    47  H    1.000000
    48  H    1.000000
    49  H    1.000000
    50  H    1.000000
    51  H    1.000000
    52  H    1.000000
    53  H    1.000000
    54  H    1.000000
    55  H    1.000000
    56  H    1.000000
    57  H    1.000000
    58  H    1.000000
    59  H    1.000000
    60  H    1.000000
    61  H    1.000000
    62  H    1.000000
    63  H    1.000000
    64  H    1.000000
    65  H    1.000000
    66  H    1.000000
    67  H    1.000000
    68  H    1.000000
    69  H    1.000000
    70  H    1.000000
    71  H    1.000000
    72  H    1.000000
    73  H    1.000000
    74  H    1.000000
    75  H    1.000000
    76  H    1.000000
    77  H    1.000000
    78  H    1.000000
    79  H    1.000000
    80  Mg  12.000000
    81  C    6.000000
    82  C    6.000000
    83  C    6.000000
    84  C    6.000000
    85  N    7.000000
    86  C    6.000000
    87  C    6.000000
    88  C    6.000000
    89  C    6.000000
    90  C    6.000000
    91  C    6.000000
    92  C    6.000000
    93  H    1.000000
    94  N    7.000000
    95  C    6.000000
    96  C    6.000000
    97  C    6.000000
    98  C    6.000000
    99  C    6.000000
   100  C    6.000000
   101  O    8.000000
   102  C    6.000000
   103  N    7.000000
   104  C    6.000000
   105  C    6.000000
   106  C    6.000000
   107  C    6.000000
   108  C    6.000000
   109  C    6.000000
   110  C    6.000000
   111  N    7.000000
   112  C    6.000000
   113  C    6.000000
   114  C    6.000000
   115  C    6.000000
   116  C    6.000000
   117  C    6.000000
   118  O    8.000000
   119  C    6.000000
   120  C    6.000000
   121  O    8.000000
   122  O    8.000000
   123  C    6.000000
   124  H    1.000000
   125  H    1.000000
   126  H    1.000000
   127  H    1.000000
   128  H    1.000000
   129  H    1.000000
   130  H    1.000000
   131  H    1.000000
   132  H    1.000000
   133  H    1.000000
   134  H    1.000000
   135  H    1.000000
   136  H    1.000000
   137  H    1.000000
   138  H    1.000000
   139  H    1.000000
   140  H    1.000000
   141  H    1.000000
   142  H    1.000000
   143  H    1.000000
   144  H    1.000000
   145  H    1.000000
   146  H    1.000000
   147  H    1.000000
   148  H    1.000000
   149  H    1.000000
   150  H    1.000000
   151  H    1.000000
   152  H    1.000000
   153  H    1.000000
   154  H    1.000000
   155  H    1.000000
   156  H    1.000000
   157  H    1.000000
   158  H    1.000000
 Sum of Mulliken charges = 624.00000

 Dipole moment (field-independent basis, Debye):
    X=              0.0000    Y=             -0.0000    Z=             -0.0000  Tot=              0.0000
 Quadrupole moment (field-independent basis, Debye-Ang):
   XX=             -0.0000   YY=             -0.0000   ZZ=              0.0000
   XY=             -0.0000   XZ=              0.0000   YZ=             -0.0000

 Normal termination of Gaussian 16 at Thu Oct 14 19:40:06 2021.
