 Gaussian 16, Revision A.03,
 Gaussian 16:  ES64L-G16RevA.03 25-Dec-2016

 --------------------------------------------------------
 #p PBE1PBE/Def2SVP td=(nstates=5) density=(transition=1)
 --------------------------------------------------------

 --------------------------------
 TDDFT excited states in gaussian
 --------------------------------
 Symbolic Z-matrix:
 Charge =  0 Multiplicity = 1

                         Standard orientation:
 ---------------------------------------------------------------------
 Center     Atomic      Atomic             Coordinates (Angstroms)
 Number     Number       Type             X           Y           Z
 ---------------------------------------------------------------------
      1         12           0       -9.155811    0.220917    0.701112
      2          6           0       -8.539910   -2.214087   -1.592188
      3          6           0       -6.544495   -1.100988    2.686580
      4          6           0       -9.046469    3.134574    2.329865
      5          6           0      -11.415622    1.808864   -1.625754
      6          7           0       -7.777960   -1.453995    0.534475
      7          6           0       -7.650291   -2.310575   -0.424009
      8          6           0       -6.723487   -3.522884   -0.054585
      9          6           0       -6.326845   -3.276216    1.450739
     10          6           0       -6.938660   -1.845636    1.641488
     11          6           0       -6.680896   -4.388829    2.438452
     12          6           0       -5.470615   -3.687901   -1.103390
     13          6           0       -5.024396   -2.475029   -1.903758
     14          1           0       -3.635564   -2.432136   -2.541076
     15          7           0       -7.946104    0.910973    2.285014
     16          6           0       -6.998084    0.223245    3.003816
     17          6           0       -6.438398    1.064561    3.970423
     18          6           0       -7.112000    2.343661    3.883177
     19          6           0       -8.075254    2.194395    2.760630
     20          6           0       -5.453576    0.528579    4.993291
     21          6           0       -6.805430    3.546314    4.793923
     22          8           0       -5.915103    3.407369    5.662491
     23          6           0       -7.451113    4.825862    4.736498
     24          7           0      -10.009046    2.311550    0.295337
     25          6           0       -9.921133    3.187113    1.256020
     26          6           0      -10.834306    4.426500    1.035091
     27          6           0      -11.639918    3.986924   -0.206979
     28          6           0      -11.034660    2.576959   -0.592863
     29          6           0      -11.727237    4.747732    2.178854
     30          6           0      -11.584359    5.058623   -1.395186
     31          6           0      -12.936997    5.819407   -1.712495
     32          7           0       -9.968330   -0.122007   -1.162209
     33          6           0      -10.883001    0.549354   -1.983212
     34          6           0      -11.112064   -0.271711   -3.212749
     35          6           0      -10.180794   -1.312186   -3.086058
     36          6           0       -9.481764   -1.173718   -1.850309
     37          6           0      -12.017737   -0.032482   -4.320289
     38          6           0       -9.691939   -2.404168   -3.795181
     39          8           0       -9.982219   -2.919718   -4.884669
     40          6           0       -8.681235   -3.094556   -2.835842
     41          6           0       -9.139858   -4.557209   -2.625622
     42          8           0       -8.485309   -5.572017   -2.793775
     43          8           0      -10.446546   -4.636032   -2.194745
     44          6           0      -11.016998   -5.973429   -1.994245
     45          1           0       -5.695572   -1.554048    3.202531
     46          1           0       -9.172795    4.046410    2.916927
     47          1           0      -12.224975    2.211341   -2.238285
     48          1           0       -7.373279   -4.397305   -0.010183
     49          1           0       -5.257622   -3.098550    1.570164
     50          1           0       -7.429667   -4.028079    3.143380
     51          1           0       -5.820020   -4.706278    3.027995
     52          1           0       -7.021586   -5.324488    1.994995
     53          1           0       -5.818090   -4.520681   -1.715271
     54          1           0       -4.516500   -3.956548   -0.649456
     55          1           0       -5.116841   -1.662304   -1.183790
     56          1           0       -5.806661   -2.322988   -2.647646
     57          1           0       -5.666671    0.631021    6.057656
     58          1           0       -4.464965    0.927382    4.764698
     59          1           0       -5.336293   -0.544123    4.840700
     60          1           0       -8.524331    4.863494    4.922433
     61          1           0       -7.425998    5.217249    3.719996
     62          1           0       -6.946662    5.597245    5.317555
     63          1           0      -10.366921    5.393873    0.851597
     64          1           0      -12.676690    3.737053    0.018662
     65          1           0      -11.423985    5.609488    2.773221
     66          1           0      -11.665627    3.972816    2.943767
     67          1           0      -12.748186    4.897794    1.828169
     68          1           0      -11.366356    4.522513   -2.319850
     69          1           0      -10.899947    5.888024   -1.222140
     70          1           0      -12.739750    6.885235   -1.820337
     71          1           0      -13.572320    5.752076   -0.829265
     72          1           0      -13.257348    5.426356   -2.677549
     73          1           0      -12.859997    0.493047   -3.869661
     74          1           0      -12.363223   -0.975544   -4.745329
     75          1           0      -11.436353    0.487297   -5.081240
     76          1           0       -7.733952   -3.340904   -3.314943
     77          1           0      -12.100796   -5.900184   -2.086318
     78          1           0      -10.875983   -6.453450   -1.025983
     79          1           0      -10.608502   -6.731248   -2.663428
     80         12           0        9.076998    0.849304   -0.021895
     81          6           0        8.205683   -2.534181    0.532398
     82          6           0        5.880541    1.455381   -0.456080
     83          6           0       10.061738    3.627858   -1.519210
     84          6           0       12.435777   -0.300115   -0.182548
     85          7           0        7.254854   -0.472758    0.229934
     86          6           0        7.106134   -1.713432    0.521316
     87          6           0        5.629071   -2.032655    0.830949
     88          6           0        4.835359   -0.869643    0.044212
     89          6           0        6.070933    0.102831   -0.157849
     90          6           0        4.142581   -1.281200   -1.314783
     91          6           0        5.335773   -1.907988    2.416294
     92          6           0        4.273026   -2.827411    3.100663
     93          1           0        3.082519   -3.308831    2.191938
     94          7           0        8.105168    2.438985   -0.686268
     95          6           0        6.720390    2.505145   -0.720351
     96          6           0        6.326255    3.854321   -1.259454
     97          6           0        7.597592    4.509299   -1.539761
     98          6           0        8.706655    3.586510   -1.283081
     99          6           0        4.868891    4.231374   -1.447439
    100          6           0        7.802515    5.927094   -2.026187
    101          8           0        8.904004    6.427869   -2.292173
    102          6           0        6.625241    6.804550   -2.166115
    103          7           0       11.065468    1.629973   -0.676640
    104          6           0       11.131827    2.789755   -1.305042
    105          6           0       12.645523    3.279943   -1.388067
    106          6           0       13.407797    1.914251   -0.951133
    107          6           0       12.231105    1.032971   -0.540756
    108          6           0       13.046441    3.866061   -2.782097
    109          6           0       14.483379    2.003151    0.180798
    110          6           0       15.918768    1.778376   -0.219912
    111          7           0       10.199121   -0.988272    0.346476
    112          6           0       11.550602   -1.244674    0.227539
    113          6           0       11.798425   -2.613929    0.408908
    114          6           0       10.504035   -3.161390    0.490347
    115          6           0        9.545470   -2.178471    0.418712
    116          6           0       13.069455   -3.302163    0.413285
    117          6           0        9.862368   -4.397789    0.717844
    118          8           0       10.231940   -5.573644    0.984230
    119          6           0        8.318841   -4.075455    0.479831
    120          6           0        7.484304   -4.779870    1.485660
    121          8           0        7.478978   -4.624184    2.705028
    122          8           0        6.576145   -5.617962    0.764943
    123          6           0        5.644371   -6.431445    1.556413
    124          1           0        4.803377    1.637094   -0.453683
    125          1           0       10.374391    4.576870   -1.958286
    126          1           0       13.477544   -0.628456   -0.156077
    127          1           0        5.372141   -2.927494    0.264667
    128          1           0        3.993837   -0.556130    0.661038
    129          1           0        4.477573   -2.257875   -1.663384
    130          1           0        4.403632   -0.597113   -2.122044
    131          1           0        3.072884   -1.299635   -1.106489
    132          1           0        5.107405   -0.877542    2.689013
    133          1           0        6.279004   -2.053672    2.943158
    134          1           0        3.797026   -2.375196    3.971329
    135          1           0        4.763686   -3.784086    3.284162
    136          1           0        4.654991    5.238229   -1.087045
    137          1           0        4.180541    3.540154   -0.961086
    138          1           0        4.584291    4.059017   -2.485123
    139          1           0        5.896455    6.378120   -2.855989
    140          1           0        6.936784    7.786220   -2.523122
    141          1           0        6.091528    7.028525   -1.242486
    142          1           0       12.891772    4.014904   -0.621800
    143          1           0       13.785552    1.361440   -1.812511
    144          1           0       12.231169    3.741183   -3.494952
    145          1           0       13.981561    3.335057   -2.961245
    146          1           0       13.346714    4.899184   -2.612043
    147          1           0       14.240405    1.237144    0.917538
    148          1           0       14.398184    2.965319    0.686245
    149          1           0       15.872995    1.760582   -1.307999
    150          1           0       16.206176    0.783578    0.122458
    151          1           0       16.584664    2.586222    0.080983
    152          1           0       13.708562   -2.773765    1.120199
    153          1           0       13.682061   -3.180479   -0.480074
    154          1           0       12.927600   -4.331391    0.743456
    155          1           0        8.055063   -4.408827   -0.524363
    156          1           0        5.065141   -7.092442    0.911154
    157          1           0        4.875467   -5.775339    1.964773
    158          1           0        6.211818   -7.057434    2.244257
 ---------------------------------------------------------------------

 SCF Done:  E(RPBE1PBE) =  -4067.31232553     A.U. after   17 cycles

 Excitation energies and oscillator strengths:

 Excited State   1:      Singlet-A      1.7411 eV  712.09 nm  f=0.0000  <S**2>=0.000
     312 -> 313        0.70707
 This state for optimization and/or second-order correction.
 Total Energy, E(TD-HF/TD-DFT) =  -4067.24833996
 Copying the excited state density for this state as the 1-particle RhoCI density.

 Excited State   2:      Singlet-A      1.8538 eV  668.82 nm  f=0.4151  <S**2>=0.000
     309 -> 316       -0.15875
     311 -> 313        0.69690
     311 <- 313       -0.12222

 Excited State   3:      Singlet-A      1.9489 eV  636.18 nm  f=0.3481  <S**2>=0.000
     310 -> 315        0.20413
     312 -> 314        0.68074

 Excited State   4:      Singlet-A      2.0859 eV  594.40 nm  f=0.0000  <S**2>=0.000
     311 -> 314        0.70708

 Excited State   5:      Singlet-A      2.2125 eV  560.38 nm  f=0.0827  <S**2>=0.000
     310 -> 314        0.64589
     312 -> 315       -0.26569

 The electronic state is 1-A.
 Alpha  occ. eigenvalues --  -46.93884 -46.92711 -19.25618 -19.24561 -19.20455
 Alpha  occ. eigenvalues --  -19.20345 -19.19177 -19.19098 -19.18693 -19.18042
 Alpha  occ. eigenvalues --  -14.42874 -14.41577 -14.41572 -14.41074 -14.40279
 Alpha  occ. eigenvalues --  -14.39777 -14.39582 -14.38224 -10.36878 -10.36235
 Alpha  occ. eigenvalues --  -10.32122 -10.31808 -10.31771 -10.31595 -10.30726
 Alpha  occ. eigenvalues --  -10.29426 -10.29165 -10.29031 -10.28860 -10.28803
 Alpha  occ. eigenvalues --  -10.28765 -10.28737 -10.28586 -10.28320 -10.28320
 Alpha  occ. eigenvalues --  -10.28270 -10.28260 -10.28006 -10.27995 -10.27845
 Alpha  occ. eigenvalues --  -10.27302 -10.27256 -10.27218 -10.27135 -10.26791
 Alpha  occ. eigenvalues --  -10.26491 -10.26456 -10.26438 -10.26406 -10.26341
 Alpha  occ. eigenvalues --  -10.26217 -10.26097 -10.26089 -10.25997 -10.25988
 Alpha  occ. eigenvalues --  -10.25704 -10.25419 -10.25417 -10.25334 -10.25321
 Alpha  occ. eigenvalues --  -10.25225 -10.25220 -10.25056 -10.25027 -10.24979
 Alpha  occ. eigenvalues --  -10.24974 -10.24959 -10.24938 -10.24605 -10.24540
 Alpha  occ. eigenvalues --  -10.24273 -10.24089 -10.23891 -10.23825 -10.23775
 Alpha  occ. eigenvalues --  -10.23719 -10.23669 -10.23551 -10.23286 -10.23258
 Alpha  occ. eigenvalues --  -10.23243 -10.23234 -10.22980 -10.22790 -10.22753
 Alpha  occ. eigenvalues --  -10.22316  -3.15872  -3.14748  -1.88689  -1.88280
 Alpha  occ. eigenvalues --   -1.88060  -1.87591  -1.87130  -1.86957  -1.10991
 Alpha  occ. eigenvalues --   -1.08622  -1.04017  -1.03755  -1.02708  -1.02283
 Alpha  occ. eigenvalues --   -1.01969  -1.01479  -1.00358  -0.99784  -0.99768
 Alpha  occ. eigenvalues --   -0.99288  -0.98371  -0.98153  -0.97299  -0.96005
 Alpha  occ. eigenvalues --   -0.87403  -0.87296  -0.84202  -0.83886  -0.83759
 Alpha  occ. eigenvalues --   -0.83499  -0.82863  -0.82616  -0.82279  -0.82119
 Alpha  occ. eigenvalues --   -0.81833  -0.81567  -0.81031  -0.79936  -0.79184
 Alpha  occ. eigenvalues --   -0.78581  -0.78519  -0.78199  -0.77408  -0.76992
 Alpha  occ. eigenvalues --   -0.76926  -0.76151  -0.75842  -0.75714  -0.74950
 Alpha  occ. eigenvalues --   -0.74720  -0.73195  -0.73015  -0.71977  -0.71863
 Alpha  occ. eigenvalues --   -0.71440  -0.71203  -0.70803  -0.70151  -0.69886
 Alpha  occ. eigenvalues --   -0.69513  -0.68014  -0.67629  -0.66671  -0.66601
 Alpha  occ. eigenvalues --   -0.64143  -0.63424  -0.63333  -0.62947  -0.62884
 Alpha  occ. eigenvalues --   -0.62239  -0.61555  -0.61548  -0.60576  -0.60358
 Alpha  occ. eigenvalues --   -0.60326  -0.60019  -0.59951  -0.59549  -0.59282
 Alpha  occ. eigenvalues --   -0.59088  -0.57978  -0.55764  -0.55569  -0.54996
 Alpha  occ. eigenvalues --   -0.54754  -0.54654  -0.53833  -0.53752  -0.53335
 Alpha  occ. eigenvalues --   -0.52958  -0.52844  -0.52244  -0.51852  -0.51804
 Alpha  occ. eigenvalues --   -0.51421  -0.51192  -0.50434  -0.50263  -0.50142
 Alpha  occ. eigenvalues --   -0.49935  -0.49467  -0.49119  -0.48772  -0.48574
 Alpha  occ. eigenvalues --   -0.48475  -0.48197  -0.48020  -0.47927  -0.47677
 Alpha  occ. eigenvalues --   -0.47661  -0.47476  -0.47291  -0.47002  -0.46949
 Alpha  occ. eigenvalues --   -0.46911  -0.46569  -0.46276  -0.46023  -0.45869
 Alpha  occ. eigenvalues --   -0.45716  -0.45659  -0.45474  -0.45433  -0.45011
 Alpha  occ. eigenvalues --   -0.44977  -0.44914  -0.44675  -0.44401  -0.44366
 Alpha  occ. eigenvalues --   -0.44160  -0.44031  -0.43836  -0.43706  -0.43594
 Alpha  occ. eigenvalues --   -0.43449  -0.43355  -0.43188  -0.43187  -0.42967
 Alpha  occ. eigenvalues --   -0.42572  -0.42557  -0.42401  -0.42261  -0.42231
 Alpha  occ. eigenvalues --   -0.42064  -0.41943  -0.41715  -0.41581  -0.41533
 Alpha  occ. eigenvalues --   -0.41447  -0.41182  -0.40993  -0.40844  -0.40819
 Alpha  occ. eigenvalues --   -0.40660  -0.40244  -0.40237  -0.40076  -0.40018
 Alpha  occ. eigenvalues --   -0.39738  -0.39661  -0.39496  -0.39317  -0.38923
 Alpha  occ. eigenvalues --   -0.38739  -0.38716  -0.38686  -0.38669  -0.38330
 Alpha  occ. eigenvalues --   -0.38067  -0.37793  -0.37706  -0.37649  -0.37413
 Alpha  occ. eigenvalues --   -0.37369  -0.37020  -0.36892  -0.36693  -0.36527
 Alpha  occ. eigenvalues --   -0.36402  -0.36292  -0.36012  -0.35905  -0.35864
 Alpha  occ. eigenvalues --   -0.35800  -0.35741  -0.35583  -0.35448  -0.35204
 Alpha  occ. eigenvalues --   -0.35172  -0.34944  -0.34907  -0.34175  -0.33902
 Alpha  occ. eigenvalues --   -0.33797  -0.33426  -0.33222  -0.33058  -0.32802
 Alpha  occ. eigenvalues --   -0.32361  -0.32049  -0.31759  -0.31484  -0.31446
 Alpha  occ. eigenvalues --   -0.30985  -0.30619  -0.29947  -0.29805  -0.29714
 Alpha  occ. eigenvalues --   -0.29450  -0.28881  -0.28725  -0.27343  -0.27320
 Alpha  occ. eigenvalues --   -0.26553  -0.26019  -0.25965  -0.25865  -0.25233
 Alpha  occ. eigenvalues --   -0.25222  -0.25021  -0.24940  -0.21978  -0.21033
 Alpha  occ. eigenvalues --   -0.19495  -0.19234
 Alpha virt. eigenvalues --   -0.12112  -0.11094  -0.05990  -0.05605  -0.04364
 Alpha virt. eigenvalues --   -0.04344  -0.02537  -0.02203  -0.02069  -0.00464
 Alpha virt. eigenvalues --    0.00033   0.00328   0.00660   0.01164   0.01231

 Mulliken charges:
               1
     1  Mg  12.000000
     2  C    6.000000
     3  C    6.000000
     4  C    6.000000
     5  C    6.000000
     6  N    7.000000
     7  C    6.000000
     8  C    6.000000
     9  C    6.000000
    10  C    6.000000
    11  C    6.000000
    12  C    6.000000
    13  C    6.000000
    14  H    1.000000
    15  N    7.000000
    16  C    6.000000
    17  C    6.000000
    18  C    6.000000
    19  C    6.000000
    20  C    6.000000
    21  C    6.000000
    22  O    8.000000
    23  C    6.000000
    24  N    7.000000
    25  C    6.000000
    26  C    6.000000
    27  C    6.000000
    28  C    6.000000
    29  C    6.000000
    30  C    6.000000
    31  C    6.000000
    32  N    7.000000
    33  C    6.000000
    34  C    6.000000
    35  C    6.000000
    36  C    6.000000
    37  C    6.000000
    38  C    6.000000
    39  O    8.000000
    40  C    6.000000
    41  C    6.000000
    42  O    8.000000
    43  O    8.000000
    44  C    6.000000
    45  H    1.000000
    46  H    1.000000
    47  H    1.000000
    48  H    1.000000
    49  H    1.000000
    50  H    1.000000
    51  H    1.000000
    52  H    1.000000
    53  H    1.000000
    54  H    1.000000
    55  H    1.000000
    56  H    1.000000
    57  H    1.000000
    58  H    1.000000
    59  H    1.000000
    60  H    1.000000
    61  H    1.000000
    62  H    1.000000
    63  H    1.000000
    64  H    1.000000
    65  H    1.000000
    66  H    1.000000
    67  H    1.000000
    68  H    1.000000
    69  H    1.000000
    70  H    1.000000
    71  H    1.000000
    72  H    1.000000
    73  H    1.000000
    74  H    1.000000
    75  H    1.000000
    76  H    1.000000
    77  H    1.000000
    78  H    1.000000
    79  H    1.000000
    80  Mg  12.000000
    81  C    6.000000
    82  C    6.000000
    83  C    6.000000
    84  C    6.000000
    85  N    7.000000
    86  C    6.000000
    87  C    6.000000
    88  C    6.000000
    89  C    6.000000
    90  C    6.000000
    91  C    6.000000
    92  C    6.000000
    93  H    1.000000
    94  N    7.000000
    95  C    6.000000
    96  C    6.000000
    97  C    6.000000
    98  C    6.000000
    99  C    6.000000
   100  C    6.000000
   101  O    8.000000
   102  C    6.000000
   103  N    7.000000
   104  C    6.000000
   105  C    6.000000
   106  C    6.000000
   107  C    6.000000
   108  C    6.000000
   109  C    6.000000
   110  C    6.000000
   111  N    7.000000
   112  C    6.000000
   113  C    6.000000
   114  C    6.000000
   115  C    6.000000
   116  C    6.000000
   117  C    6.000000
   118  O    8.000000
   119  C    6.000000
   120  C    6.000000
   121  O    8.000000
   122  O    8.000000
   123  C    6.000000
   124  H    1.000000
   125  H    1.000000
   126  H    1.000000
   127  H    1.000000
   128  H    1.000000
   129  H    1.000000
   130  H    1.000000
   131  H    1.000001
   132  H    1.000000
   133  H    1.000000
   134  H    1.000000
   135  H    1.000000
   136  H    1.000000
   137  H    1.000000
   138  H    1.000000
   139  H    1.000000
   140  H    1.000000
   141  H    1.000000
   142  H    1.000000
   143  H    1.000000
   144  H    1.000000
   145  H    1.000000
   146  H    1.000000
   147  H    1.000000
   148  H    1.000000
   149  H    1.000000
   150  H    1.000000
   151  H    1.000000
   152  H    1.000000
   153  H    1.000000
   154  H    1.000000
   155  H    1.000000
   156  H    1.000000
   157  H    1.000000
   158  H    1.000000
 Sum of Mulliken charges = 624.00000

 Dipole moment (field-independent basis, Debye):
    X=             -0.0000    Y=              0.0000    Z=              0.0000  Tot=              0.0000
 Quadrupole moment (field-independent basis, Debye-Ang):
   XX=             -0.0003   YY=              0.0000   ZZ=              0.0000
   XY=              0.0001   XZ=             -0.0001   YZ=              0.0000

 Normal termination of Gaussian 16 at Thu Oct 14 04:52:35 2021.
