 Gaussian 16, Revision A.03,
 Gaussian 16:  ES64L-G16RevA.03 25-Dec-2016

 --------------------------------------------------------
 #p PBE1PBE/Def2SVP td=(nstates=5) density=(transition=1)
 --------------------------------------------------------

 --------------------------------
 TDDFT excited states in gaussian
 --------------------------------
 Symbolic Z-matrix:
 Charge =  0 Multiplicity = 1

                         Standard orientation:
 ---------------------------------------------------------------------
 Center     Atomic      Atomic             Coordinates (Angstroms)
 Number     Number       Type             X           Y           Z
 ---------------------------------------------------------------------
      1         12           0       28.942696   -0.400346   -0.682980
      2          6           0       29.415911    1.830843    2.075658
      3          6           0       28.234697   -2.835245    1.600234
      4          6           0       28.964713   -2.490917   -3.067440
      5          6           0       30.758315    1.852439   -2.625697
      6          7           0       28.865481   -0.381365    1.529332
      7          6           0       29.008900    0.552606    2.464372
      8          6           0       28.612459    0.065425    3.890157
      9          6           0       28.820688   -1.502234    3.687467
     10          6           0       28.592232   -1.585812    2.188552
     11          6           0       30.238359   -1.973371    3.995269
     12          6           0       27.125028    0.404978    4.242268
     13          6           0       26.754061    0.259580    5.720982
     14          1           0       25.800957    1.194845    6.299101
     15          7           0       28.188275   -2.222678   -0.796128
     16          6           0       27.952024   -3.066942    0.236679
     17          6           0       27.389084   -4.296169   -0.362303
     18          6           0       27.494012   -4.170286   -1.842585
     19          6           0       28.253518   -2.951993   -1.962127
     20          6           0       26.786872   -5.404134    0.446094
     21          6           0       26.998817   -5.019596   -2.970232
     22          8           0       27.397608   -4.852698   -4.173430
     23          6           0       26.090255   -6.123559   -2.611314
     24          7           0       29.928581   -0.445991   -2.522432
     25          6           0       29.717674   -1.438448   -3.393943
     26          6           0       30.302124   -1.118422   -4.737796
     27          6           0       30.748860    0.413203   -4.672187
     28          6           0       30.397306    0.698330   -3.191180
     29          6           0       31.496239   -1.980218   -5.170703
     30          6           0       30.180826    1.358607   -5.760290
     31          6           0       28.688812    1.519160   -5.572627
     32          7           0       29.772682    1.586933   -0.412995
     33          6           0       30.510761    2.326611   -1.348296
     34          6           0       30.948592    3.562239   -0.673317
     35          6           0       30.445563    3.447109    0.621114
     36          6           0       29.760717    2.205535    0.754430
     37          6           0       31.762186    4.580312   -1.244305
     38          6           0       30.348377    4.073017    1.929797
     39          8           0       30.656363    5.173523    2.389714
     40          6           0       29.782639    2.997468    2.958856
     41          6           0       28.682942    3.656297    3.746207
     42          8           0       27.616381    3.996131    3.194549
     43          8           0       28.959520    3.567497    5.056230
     44          6           0       27.893083    4.176232    5.895461
     45          1           0       28.227079   -3.730150    2.225557
     46          1           0       28.904018   -3.133129   -3.948528
     47          1           0       31.256239    2.640610   -3.193421
     48          1           0       29.259186    0.426535    4.690012
     49          1           0       28.068117   -2.084744    4.218543
     50          1           0       30.906608   -1.132220    4.179196
     51          1           0       30.558633   -2.528219    3.113191
     52          1           0       30.238495   -2.690376    4.816658
     53          1           0       26.471538   -0.353657    3.811587
     54          1           0       26.867816    1.409031    3.903083
     55          1           0       27.642085    0.182114    6.348932
     56          1           0       26.244763   -0.695077    5.853067
     57          1           0       27.003424   -5.288926    1.507403
     58          1           0       27.301604   -6.321732    0.161887
     59          1           0       25.717469   -5.510871    0.263565
     60          1           0       26.593314   -6.790334   -1.910678
     61          1           0       25.768399   -6.566419   -3.553192
     62          1           0       25.229730   -5.714457   -2.081144
     63          1           0       29.560362   -1.240705   -5.525999
     64          1           0       31.829654    0.528054   -4.758020
     65          1           0       31.344465   -2.493167   -6.120731
     66          1           0       31.706231   -2.690802   -4.371788
     67          1           0       32.443676   -1.446457   -5.240555
     68          1           0       30.335483    0.932625   -6.751030
     69          1           0       30.636178    2.348963   -5.750324
     70          1           0       28.284067    0.644493   -6.080535
     71          1           0       28.342939    2.439465   -6.044455
     72          1           0       28.409414    1.443952   -4.521549
     73          1           0       31.315986    5.529495   -0.947783
     74          1           0       31.810283    4.486917   -2.329002
     75          1           0       32.717407    4.368429   -0.764185
     76          1           0       30.617844    2.699941    3.592126
     77          1           0       28.370304    4.925377    6.527343
     78          1           0       27.378519    3.351548    6.388943
     79          1           0       27.157351    4.787397    5.371520
     80         12           0      -29.599965    0.471833    0.216474
     81          6           0      -26.599179   -1.356790    0.541747
     82          6           0      -27.771967    3.122379   -1.125431
     83          6           0      -32.530188    1.721651   -0.994364
     84          6           0      -31.297622   -2.549456    1.121808
     85          7           0      -27.472609    0.820124   -0.187963
     86          6           0      -26.458207   -0.052168   -0.007919
     87          6           0      -25.116434    0.523343   -0.567040
     88          6           0      -25.510143    2.064312   -0.719080
     89          6           0      -27.071266    2.047651   -0.643501
     90          6           0      -25.026376    3.111263    0.309791
     91          6           0      -24.778658   -0.199640   -1.925506
     92          6           0      -23.260849   -0.442462   -2.153475
     93          1           0      -22.745137   -0.203489   -3.630833
     94          7           0      -30.135446    2.329204   -0.755338
     95          6           0      -29.214892    3.261371   -1.154903
     96          6           0      -29.944994    4.347478   -1.689246
     97          6           0      -31.325387    3.992713   -1.750789
     98          6           0      -31.417094    2.641009   -1.103936
     99          6           0      -29.336315    5.631372   -2.201669
    100          6           0      -32.409517    4.735630   -2.454334
    101          8           0      -32.181089    5.730680   -3.123244
    102          6           0      -33.793535    4.340074   -2.483567
    103          7           0      -31.630069   -0.399815    0.000267
    104          6           0      -32.682832    0.439841   -0.392540
    105          6           0      -34.002161   -0.230959   -0.169620
    106          6           0      -33.638736   -1.631981    0.447629
    107          6           0      -32.124416   -1.556523    0.539111
    108          6           0      -34.865970    0.655499    0.736630
    109          6           0      -34.330698   -2.844898   -0.281112
    110          6           0      -35.180333   -3.746588    0.562137
    111          7           0      -29.097658   -1.583802    0.779344
    112          6           0      -29.902832   -2.629872    1.157990
    113          6           0      -29.084254   -3.757559    1.654967
    114          6           0      -27.783891   -3.276180    1.348064
    115          6           0      -27.851488   -1.964185    0.918161
    116          6           0      -29.521230   -5.129361    2.144447
    117          6           0      -26.409507   -3.694511    1.269081
    118          8           0      -25.898238   -4.798943    1.511347
    119          6           0      -25.561324   -2.520795    0.780060
    120          6           0      -24.477900   -2.210727    1.731458
    121          8           0      -23.340599   -2.240440    1.427732
    122          8           0      -24.920208   -1.701579    2.918098
    123          6           0      -23.791478   -1.171828    3.713611
    124          1           0      -27.225358    4.000301   -1.477351
    125          1           0      -33.442778    2.223094   -1.320409
    126          1           0      -31.631161   -3.555510    1.386754
    127          1           0      -24.337474    0.344488    0.174336
    128          1           0      -25.455919    2.460340   -1.733011
    129          1           0      -24.836540    2.636827    1.273261
    130          1           0      -25.675564    3.972681    0.467005
    131          1           0      -24.066780    3.466901   -0.063925
    132          1           0      -25.211694    0.339076   -2.768816
    133          1           0      -25.295885   -1.156888   -1.859575
    134          1           0      -23.129618   -1.486771   -1.869565
    135          1           0      -22.802268    0.186940   -1.390489
    136          1           0      -29.996155    6.498257   -2.238905
    137          1           0      -28.999636    5.367689   -3.203911
    138          1           0      -28.361948    5.905095   -1.796917
    139          1           0      -34.143477    4.346526   -1.450494
    140          1           0      -33.916577    3.370713   -2.967434
    141          1           0      -34.348730    5.072832   -3.069238
    142          1           0      -34.471244   -0.480064   -1.121164
    143          1           0      -33.773715   -1.761254    1.521712
    144          1           0      -34.489938    1.674833    0.827451
    145          1           0      -34.910101    0.269816    1.755159
    146          1           0      -35.815003    0.863016    0.243181
    147          1           0      -33.504971   -3.401847   -0.723941
    148          1           0      -35.072739   -2.550444   -1.022355
    149          1           0      -34.805593   -4.760372    0.423609
    150          1           0      -36.218608   -3.753933    0.229908
    151          1           0      -35.254358   -3.420876    1.599743
    152          1           0      -29.710909   -5.826883    1.328360
    153          1           0      -30.367643   -5.091775    2.831365
    154          1           0      -28.602360   -5.479866    2.614309
    155          1           0      -25.010981   -2.814207   -0.112958
    156          1           0      -24.199656   -0.779415    4.645374
    157          1           0      -23.265034   -0.391731    3.163871
    158          1           0      -23.099258   -1.932424    4.073107
 ---------------------------------------------------------------------

 SCF Done:  E(RPBE1PBE) =  -4067.35768505     A.U. after   16 cycles

 Excitation energies and oscillator strengths:

 Excited State   1:      Singlet-A      1.8299 eV  677.55 nm  f=0.0000  <S**2>=0.000
     312 -> 313        0.70711
 This state for optimization and/or second-order correction.
 Total Energy, E(TD-HF/TD-DFT) =  -4067.29043783
 Copying the excited state density for this state as the 1-particle RhoCI density.

 Excited State   2:      Singlet-A      1.8414 eV  673.31 nm  f=0.3591  <S**2>=0.000
     310 -> 316        0.16192
     312 -> 314        0.69293
     312 <- 314       -0.11101

 Excited State   3:      Singlet-A      1.8469 eV  671.31 nm  f=0.4080  <S**2>=0.000
     309 -> 315       -0.16866
     311 -> 313        0.69386
     311 <- 313       -0.11308

 Excited State   4:      Singlet-A      2.1300 eV  582.08 nm  f=0.0000  <S**2>=0.000
     311 -> 314        0.70711

 Excited State   5:      Singlet-A      2.1929 eV  565.38 nm  f=0.0924  <S**2>=0.000
     310 -> 314        0.65168
     312 -> 316       -0.24159

 The electronic state is 1-A.
 Alpha  occ. eigenvalues --  -46.94202 -46.91170 -19.26904 -19.25715 -19.20115
 Alpha  occ. eigenvalues --  -19.19285 -19.18990 -19.18990 -19.18396 -19.17634
 Alpha  occ. eigenvalues --  -14.42427 -14.42304 -14.41925 -14.40939 -14.39595
 Alpha  occ. eigenvalues --  -14.39031 -14.38888 -14.38235 -10.36087 -10.35714
 Alpha  occ. eigenvalues --  -10.32472 -10.31835 -10.31552 -10.30698 -10.29934
 Alpha  occ. eigenvalues --  -10.29680 -10.29660 -10.29126 -10.29033 -10.28906
 Alpha  occ. eigenvalues --  -10.28887 -10.28806 -10.28615 -10.28199 -10.28116
 Alpha  occ. eigenvalues --  -10.27982 -10.27803 -10.27682 -10.27525 -10.27238
 Alpha  occ. eigenvalues --  -10.27016 -10.26871 -10.26856 -10.26850 -10.26627
 Alpha  occ. eigenvalues --  -10.26548 -10.26296 -10.26293 -10.26275 -10.26108
 Alpha  occ. eigenvalues --  -10.26042 -10.26027 -10.25998 -10.25880 -10.25827
 Alpha  occ. eigenvalues --  -10.25572 -10.25433 -10.25356 -10.25329 -10.25319
 Alpha  occ. eigenvalues --  -10.25252 -10.25234 -10.25191 -10.24989 -10.24831
 Alpha  occ. eigenvalues --  -10.24756 -10.24586 -10.24522 -10.24417 -10.24386
 Alpha  occ. eigenvalues --  -10.24262 -10.24041 -10.23915 -10.23774 -10.23668
 Alpha  occ. eigenvalues --  -10.23593 -10.23593 -10.23256 -10.23163 -10.23051
 Alpha  occ. eigenvalues --  -10.22894 -10.22829 -10.22654 -10.22574 -10.22382
 Alpha  occ. eigenvalues --  -10.22071  -3.15941  -3.13488  -1.88792  -1.88294
 Alpha  occ. eigenvalues --   -1.88156  -1.86310  -1.85875  -1.85722  -1.12725
 Alpha  occ. eigenvalues --   -1.11402  -1.04373  -1.03870  -1.03598  -1.03347
 Alpha  occ. eigenvalues --   -1.01817  -1.01430  -0.99740  -0.99152  -0.98405
 Alpha  occ. eigenvalues --   -0.98348  -0.98031  -0.97879  -0.97273  -0.97068
 Alpha  occ. eigenvalues --   -0.86940  -0.86310  -0.83813  -0.83710  -0.83433
 Alpha  occ. eigenvalues --   -0.83368  -0.82571  -0.82561  -0.82354  -0.82183
 Alpha  occ. eigenvalues --   -0.81954  -0.81418  -0.81275  -0.80221  -0.79213
 Alpha  occ. eigenvalues --   -0.79176  -0.78934  -0.78204  -0.77136  -0.77016
 Alpha  occ. eigenvalues --   -0.76852  -0.76754  -0.75874  -0.75227  -0.74924
 Alpha  occ. eigenvalues --   -0.74922  -0.73083  -0.73000  -0.71905  -0.71525
 Alpha  occ. eigenvalues --   -0.71210  -0.71195  -0.70792  -0.70221  -0.69817
 Alpha  occ. eigenvalues --   -0.69206  -0.67604  -0.67221  -0.66990  -0.66068
 Alpha  occ. eigenvalues --   -0.64199  -0.63793  -0.63638  -0.63212  -0.62422
 Alpha  occ. eigenvalues --   -0.62099  -0.61533  -0.61334  -0.60774  -0.60158
 Alpha  occ. eigenvalues --   -0.59686  -0.59595  -0.59399  -0.59226  -0.59076
 Alpha  occ. eigenvalues --   -0.58747  -0.57830  -0.56855  -0.54924  -0.54681
 Alpha  occ. eigenvalues --   -0.54559  -0.54285  -0.53602  -0.53589  -0.53500
 Alpha  occ. eigenvalues --   -0.53098  -0.52864  -0.52084  -0.51782  -0.51669
 Alpha  occ. eigenvalues --   -0.51014  -0.50852  -0.50618  -0.50353  -0.50180
 Alpha  occ. eigenvalues --   -0.50033  -0.49814  -0.49639  -0.49114  -0.49059
 Alpha  occ. eigenvalues --   -0.48439  -0.48214  -0.47994  -0.47933  -0.47781
 Alpha  occ. eigenvalues --   -0.47732  -0.47534  -0.47410  -0.47098  -0.47082
 Alpha  occ. eigenvalues --   -0.46958  -0.46885  -0.46397  -0.46315  -0.46165
 Alpha  occ. eigenvalues --   -0.46024  -0.45884  -0.45838  -0.45574  -0.45062
 Alpha  occ. eigenvalues --   -0.44722  -0.44613  -0.44521  -0.44463  -0.44223
 Alpha  occ. eigenvalues --   -0.44108  -0.43908  -0.43843  -0.43688  -0.43685
 Alpha  occ. eigenvalues --   -0.43254  -0.43200  -0.43096  -0.43091  -0.42990
 Alpha  occ. eigenvalues --   -0.42791  -0.42316  -0.42256  -0.42002  -0.41929
 Alpha  occ. eigenvalues --   -0.41666  -0.41576  -0.41545  -0.41437  -0.41225
 Alpha  occ. eigenvalues --   -0.41091  -0.41051  -0.41024  -0.40854  -0.40534
 Alpha  occ. eigenvalues --   -0.40510  -0.39938  -0.39921  -0.39814  -0.39670
 Alpha  occ. eigenvalues --   -0.39490  -0.39283  -0.39202  -0.39157  -0.38880
 Alpha  occ. eigenvalues --   -0.38846  -0.38818  -0.38724  -0.38474  -0.38262
 Alpha  occ. eigenvalues --   -0.38239  -0.38219  -0.37865  -0.37839  -0.37672
 Alpha  occ. eigenvalues --   -0.37508  -0.37471  -0.37426  -0.37068  -0.36838
 Alpha  occ. eigenvalues --   -0.36639  -0.36544  -0.36349  -0.36170  -0.35942
 Alpha  occ. eigenvalues --   -0.35935  -0.35757  -0.35596  -0.35572  -0.35461
 Alpha  occ. eigenvalues --   -0.35026  -0.34990  -0.34579  -0.34315  -0.34162
 Alpha  occ. eigenvalues --   -0.33649  -0.33397  -0.32896  -0.32705  -0.32557
 Alpha  occ. eigenvalues --   -0.32362  -0.32242  -0.32235  -0.31956  -0.31686
 Alpha  occ. eigenvalues --   -0.31441  -0.31237  -0.29817  -0.29489  -0.29361
 Alpha  occ. eigenvalues --   -0.29059  -0.28898  -0.28394  -0.27148  -0.26700
 Alpha  occ. eigenvalues --   -0.25984  -0.25982  -0.25717  -0.25095  -0.25063
 Alpha  occ. eigenvalues --   -0.24933  -0.24809  -0.24611  -0.21457  -0.20957
 Alpha  occ. eigenvalues --   -0.19256  -0.18739
 Alpha virt. eigenvalues --   -0.11790  -0.11204  -0.05764  -0.05325  -0.04134
 Alpha virt. eigenvalues --   -0.03908  -0.02156  -0.02012  -0.01535   0.00373
 Alpha virt. eigenvalues --    0.00442   0.00469   0.00574   0.01287   0.01419

 Mulliken charges:
               1
     1  Mg  12.000000
     2  C    6.000000
     3  C    6.000000
     4  C    6.000000
     5  C    6.000000
     6  N    7.000000
     7  C    6.000000
     8  C    6.000000
     9  C    6.000000
    10  C    6.000000
    11  C    6.000000
    12  C    6.000000
    13  C    6.000000
    14  H    1.000000
    15  N    7.000000
    16  C    6.000000
    17  C    6.000000
    18  C    6.000000
    19  C    6.000000
    20  C    6.000000
    21  C    6.000000
    22  O    8.000000
    23  C    6.000000
    24  N    7.000000
    25  C    6.000000
    26  C    6.000000
    27  C    6.000000
    28  C    6.000000
    29  C    6.000000
    30  C    6.000000
    31  C    6.000000
    32  N    7.000000
    33  C    6.000000
    34  C    6.000000
    35  C    6.000000
    36  C    6.000000
    37  C    6.000000
    38  C    6.000000
    39  O    8.000000
    40  C    6.000000
    41  C    6.000000
    42  O    8.000000
    43  O    8.000000
    44  C    6.000000
    45  H    1.000000
    46  H    1.000000
    47  H    1.000000
    48  H    1.000000
    49  H    1.000000
    50  H    1.000000
    51  H    1.000000
    52  H    1.000000
    53  H    1.000000
    54  H    1.000000
    55  H    1.000000
    56  H    1.000000
    57  H    1.000000
    58  H    1.000000
    59  H    1.000000
    60  H    1.000000
    61  H    1.000000
    62  H    1.000000
    63  H    1.000000
    64  H    1.000000
    65  H    1.000000
    66  H    1.000000
    67  H    1.000000
    68  H    1.000000
    69  H    1.000000
    70  H    1.000000
    71  H    1.000000
    72  H    1.000000
    73  H    1.000000
    74  H    1.000000
    75  H    1.000000
    76  H    1.000000
    77  H    1.000000
    78  H    1.000000
    79  H    1.000000
    80  Mg  12.000000
    81  C    6.000000
    82  C    6.000000
    83  C    6.000000
    84  C    6.000000
    85  N    7.000000
    86  C    6.000000
    87  C    6.000000
    88  C    6.000000
    89  C    6.000000
    90  C    6.000000
    91  C    6.000000
    92  C    6.000000
    93  H    1.000000
    94  N    7.000000
    95  C    6.000000
    96  C    6.000000
    97  C    6.000000
    98  C    6.000000
    99  C    6.000000
   100  C    6.000000
   101  O    8.000000
   102  C    6.000000
   103  N    7.000000
   104  C    6.000000
   105  C    6.000000
   106  C    6.000000
   107  C    6.000000
   108  C    6.000000
   109  C    6.000000
   110  C    6.000000
   111  N    7.000000
   112  C    6.000000
   113  C    6.000000
   114  C    6.000000
   115  C    6.000000
   116  C    6.000000
   117  C    6.000000
   118  O    8.000000
   119  C    6.000000
   120  C    6.000000
   121  O    8.000000
   122  O    8.000000
   123  C    6.000000
   124  H    1.000000
   125  H    1.000000
   126  H    1.000000
   127  H    1.000000
   128  H    1.000000
   129  H    1.000000
   130  H    1.000000
   131  H    1.000000
   132  H    1.000000
   133  H    1.000000
   134  H    1.000000
   135  H    1.000000
   136  H    1.000000
   137  H    1.000000
   138  H    1.000000
   139  H    1.000000
   140  H    1.000000
   141  H    1.000000
   142  H    1.000000
   143  H    1.000000
   144  H    1.000000
   145  H    1.000000
   146  H    1.000000
   147  H    1.000000
   148  H    1.000000
   149  H    1.000000
   150  H    1.000000
   151  H    1.000000
   152  H    1.000000
   153  H    1.000000
   154  H    1.000000
   155  H    1.000000
   156  H    1.000000
   157  H    1.000000
   158  H    1.000000
 Sum of Mulliken charges = 624.00000

 Dipole moment (field-independent basis, Debye):
    X=             -0.0000    Y=             -0.0000    Z=              0.0000  Tot=              0.0000
 Quadrupole moment (field-independent basis, Debye-Ang):
   XX=             -0.0000   YY=              0.0000   ZZ=             -0.0000
   XY=             -0.0000   XZ=             -0.0000   YZ=              0.0000

 Normal termination of Gaussian 16 at Thu Oct 14 14:11:28 2021.
