 Gaussian 16, Revision A.03,
 Gaussian 16:  ES64L-G16RevA.03 25-Dec-2016

 --------------------------------------------------------
 #p PBE1PBE/Def2SVP td=(nstates=5) density=(transition=1)
 --------------------------------------------------------

 --------------------------------
 TDDFT excited states in gaussian
 --------------------------------
 Symbolic Z-matrix:
 Charge =  0 Multiplicity = 1

                         Standard orientation:
 ---------------------------------------------------------------------
 Center     Atomic      Atomic             Coordinates (Angstroms)
 Number     Number       Type             X           Y           Z
 ---------------------------------------------------------------------
      1         12           0      -20.643414   -0.537434    0.314054
      2          6           0      -19.951490    2.507719   -1.348079
      3          6           0      -19.880531    0.983421    3.120866
      4          6           0      -20.284329   -3.574006    1.571956
      5          6           0      -20.708184   -2.002662   -2.922810
      6          7           0      -20.152280    1.629078    0.757320
      7          6           0      -20.010120    2.665026    0.013750
      8          6           0      -19.946378    3.949315    0.865825
      9          6           0      -19.440148    3.407868    2.298339
     10          6           0      -19.767767    1.876599    2.051240
     11          6           0      -17.923171    3.666612    2.656135
     12          6           0      -21.416024    4.604602    1.025903
     13          6           0      -21.585124    6.154432    1.137979
     14          1           0      -20.381603    6.940178    1.777505
     15          7           0      -20.354711   -1.208893    2.152185
     16          6           0      -20.106512   -0.364016    3.223507
     17          6           0      -19.958348   -1.205649    4.462842
     18          6           0      -20.119492   -2.572746    3.984358
     19          6           0      -20.259910   -2.582309    2.525717
     20          6           0      -19.651411   -0.576851    5.808880
     21          6           0      -20.144609   -3.832452    4.821769
     22          8           0      -20.241716   -4.979842    4.364749
     23          6           0      -20.087356   -3.707455    6.290299
     24          7           0      -20.616997   -2.585827   -0.577876
     25          6           0      -20.404908   -3.630133    0.202400
     26          6           0      -20.740170   -4.975369   -0.582709
     27          6           0      -20.850759   -4.397559   -2.096311
     28          6           0      -20.756382   -2.894147   -1.850312
     29          6           0      -19.690428   -6.114771   -0.365017
     30          6           0      -22.120061   -4.766036   -2.932460
     31          6           0      -21.921093   -5.687142   -4.108644
     32          7           0      -20.603673    0.101264   -1.774493
     33          6           0      -20.643616   -0.646347   -2.934610
     34          6           0      -20.426294    0.180297   -4.047536
     35          6           0      -20.109149    1.420931   -3.462698
     36          6           0      -20.186187    1.355939   -2.091586
     37          6           0      -20.432296   -0.180490   -5.447178
     38          6           0      -19.824257    2.752750   -3.833194
     39          8           0      -19.767807    3.398887   -4.914629
     40          6           0      -19.438688    3.457294   -2.455523
     41          6           0      -20.014510    4.824543   -2.397159
     42          8           0      -21.201343    5.144777   -2.397040
     43          8           0      -18.923150    5.732564   -2.221045
     44          6           0      -19.247917    7.162621   -2.144607
     45          1           0      -19.755293    1.562612    4.038559
     46          1           0      -20.225189   -4.570698    2.012719
     47          1           0      -20.808369   -2.449747   -3.914709
     48          1           0      -19.092984    4.525226    0.508793
     49          1           0      -19.970474    3.957244    3.075427
     50          1           0      -17.348800    3.987856    1.787494
     51          1           0      -17.428257    2.755105    2.990814
     52          1           0      -17.928797    4.447432    3.416573
     53          1           0      -21.954625    4.151363    1.858267
     54          1           0      -22.023978    4.271397    0.184559
     55          1           0      -22.458605    6.460006    1.714858
     56          1           0      -21.540683    6.544969    0.120555
     57          1           0      -20.266989   -0.993227    6.607058
     58          1           0      -19.771183    0.506560    5.813811
     59          1           0      -18.579413   -0.634232    5.996016
     60          1           0      -19.184543   -3.183674    6.605704
     61          1           0      -20.114918   -4.697091    6.746426
     62          1           0      -20.928889   -3.191768    6.752894
     63          1           0      -21.728419   -5.367094   -0.342117
     64          1           0      -19.937602   -4.567998   -2.668472
     65          1           0      -18.845856   -5.746404    0.217588
     66          1           0      -19.516773   -6.426657   -1.395105
     67          1           0      -20.224488   -6.949448    0.087223
     68          1           0      -22.526523   -3.835348   -3.328940
     69          1           0      -22.879156   -5.185797   -2.272098
     70          1           0      -20.891353   -6.021857   -3.990559
     71          1           0      -21.978297   -5.083568   -5.015215
     72          1           0      -22.569359   -6.562312   -4.088684
     73          1           0      -21.367629   -0.708901   -5.629725
     74          1           0      -19.740883   -0.970614   -5.740158
     75          1           0      -20.393815    0.721541   -6.058166
     76          1           0      -18.351070    3.506746   -2.394179
     77          1           0      -18.338864    7.762988   -2.100266
     78          1           0      -19.703335    7.361103   -1.174223
     79          1           0      -19.791352    7.454265   -3.042722
     80         12           0       19.778453   -0.735307   -0.227298
     81          6           0       21.751956    2.220604    0.207746
     82          6           0       17.426297    0.579059    1.901952
     83          6           0       18.080284   -3.654820   -0.205200
     84          6           0       22.663954   -2.271955   -1.551670
     85          7           0       19.631805    1.180043    0.893729
     86          6           0       20.496763    2.285663    0.888708
     87          6           0       19.882442    3.395932    1.702097
     88          6           0       18.821874    2.618524    2.590300
     89          6           0       18.639162    1.310258    1.766106
     90          6           0       19.466363    2.364274    3.999501
     91          6           0       19.353998    4.602074    0.848104
     92          6           0       19.733907    5.857068    1.456340
     93          1           0       19.567630    7.149664    0.509623
     94          7           0       17.900725   -1.299180    0.616391
     95          6           0       17.084585   -0.606731    1.419962
     96          6           0       15.888485   -1.359738    1.641624
     97          6           0       16.045459   -2.601672    1.062978
     98          6           0       17.414540   -2.572045    0.368227
     99          6           0       14.755445   -0.859563    2.593017
    100          6           0       15.042834   -3.771352    0.985530
    101          8           0       15.383644   -4.800256    0.459065
    102          6           0       13.623836   -3.607139    1.476625
    103          7           0       20.428443   -2.748472   -0.558579
    104          6           0       19.458614   -3.743843   -0.606248
    105          6           0       19.990254   -4.970882   -1.272700
    106          6           0       21.464154   -4.526623   -1.731211
    107          6           0       21.520921   -3.074239   -1.319932
    108          6           0       19.914417   -6.185917   -0.411185
    109          6           0       21.862111   -4.746409   -3.292736
    110          6           0       22.994923   -5.642957   -3.603028
    111          7           0       21.797905   -0.188061   -0.665205
    112          6           0       22.817327   -0.947437   -1.193750
    113          6           0       24.030370   -0.037083   -1.374366
    114          6           0       23.623535    1.242067   -0.944838
    115          6           0       22.273123    1.084843   -0.473421
    116          6           0       25.396210   -0.501550   -1.898087
    117          6           0       24.132623    2.553940   -0.681610
    118          8           0       25.260025    3.047252   -0.910553
    119          6           0       23.011100    3.203857    0.228375
    120          6           0       22.814311    4.646278   -0.327505
    121          8           0       21.850903    4.917014   -1.067635
    122          8           0       23.756471    5.471713    0.190914
    123          6           0       23.673827    6.798153   -0.511815
    124          1           0       16.579220    1.067356    2.389002
    125          1           0       17.542636   -4.605724   -0.227739
    126          1           0       23.572515   -2.628852   -2.040889
    127          1           0       20.661902    3.722549    2.390103
    128          1           0       17.905841    3.193440    2.721437
    129          1           0       20.228310    1.585226    3.996586
    130          1           0       18.672936    2.144875    4.712687
    131          1           0       19.930238    3.288950    4.343645
    132          1           0       18.268857    4.595952    0.953459
    133          1           0       19.626786    4.509278   -0.203390
    134          1           0       20.807791    5.895935    1.639787
    135          1           0       19.132684    5.977531    2.357854
    136          1           0       13.872205   -0.893958    1.955266
    137          1           0       14.871279    0.164846    2.946631
    138          1           0       14.705021   -1.497215    3.475503
    139          1           0       13.087737   -4.554650    1.421435
    140          1           0       13.319594   -2.877808    0.725946
    141          1           0       13.661088   -3.217978    2.494065
    142          1           0       19.339036   -5.067267   -2.141651
    143          1           0       22.162835   -5.119153   -1.141098
    144          1           0       19.144415   -6.799080   -0.877689
    145          1           0       19.526879   -5.977888    0.586015
    146          1           0       20.848140   -6.735398   -0.289290
    147          1           0       22.187256   -3.747407   -3.583083
    148          1           0       20.947884   -4.983151   -3.835381
    149          1           0       23.808375   -5.098898   -4.082322
    150          1           0       22.485155   -6.220734   -4.373252
    151          1           0       23.262309   -6.302199   -2.776065
    152          1           0       25.983348   -0.740570   -1.012092
    153          1           0       25.906292    0.268982   -2.476107
    154          1           0       25.248211   -1.346061   -2.571182
    155          1           0       23.466204    3.198739    1.217864
    156          1           0       24.066080    6.804025   -1.528641
    157          1           0       24.145387    7.625250    0.017891
    158          1           0       22.616780    7.064783   -0.503758
 ---------------------------------------------------------------------

 SCF Done:  E(RPBE1PBE) =  -4067.31295764     A.U. after   16 cycles

 Excitation energies and oscillator strengths:

 Excited State   1:      Singlet-A      1.7424 eV  711.56 nm  f=0.0000  <S**2>=0.000
     312 -> 313        0.70711
 This state for optimization and/or second-order correction.
 Total Energy, E(TD-HF/TD-DFT) =  -4067.24892457
 Copying the excited state density for this state as the 1-particle RhoCI density.

 Excited State   2:      Singlet-A      1.8312 eV  677.07 nm  f=0.3464  <S**2>=0.000
     310 -> 316        0.18211
     312 -> 314        0.68924

 Excited State   3:      Singlet-A      1.9488 eV  636.21 nm  f=0.3522  <S**2>=0.000
     309 -> 315        0.20411
     311 -> 313        0.68092

 Excited State   4:      Singlet-A      2.2125 eV  560.39 nm  f=0.0830  <S**2>=0.000
     309 -> 313        0.64636
     311 -> 315       -0.26600

 Excited State   5:      Singlet-A      2.2730 eV  545.46 nm  f=0.0125  <S**2>=0.000
     310 -> 314        0.57943
     312 -> 316       -0.39818

 The electronic state is 1-A.
 Alpha  occ. eigenvalues --  -46.92820 -46.92811 -19.26848 -19.24650 -19.20436
 Alpha  occ. eigenvalues --  -19.20076 -19.19472 -19.19210 -19.19177 -19.18794
 Alpha  occ. eigenvalues --  -14.41725 -14.41687 -14.41499 -14.41180 -14.39693
 Alpha  occ. eigenvalues --  -14.38926 -14.38923 -14.38330 -10.36793 -10.36327
 Alpha  occ. eigenvalues --  -10.32605 -10.32234 -10.32217 -10.31696 -10.29276
 Alpha  occ. eigenvalues --  -10.28908 -10.28888 -10.28851 -10.28799 -10.28695
 Alpha  occ. eigenvalues --  -10.28611 -10.28460 -10.28432 -10.28428 -10.28375
 Alpha  occ. eigenvalues --  -10.28337 -10.28101 -10.27958 -10.27229 -10.26870
 Alpha  occ. eigenvalues --  -10.26711 -10.26663 -10.26544 -10.26520 -10.26483
 Alpha  occ. eigenvalues --  -10.26324 -10.26309 -10.26207 -10.26188 -10.26104
 Alpha  occ. eigenvalues --  -10.26101 -10.26091 -10.25888 -10.25553 -10.25517
 Alpha  occ. eigenvalues --  -10.25517 -10.25457 -10.25440 -10.25299 -10.25270
 Alpha  occ. eigenvalues --  -10.25264 -10.25232 -10.25156 -10.25134 -10.24793
 Alpha  occ. eigenvalues --  -10.24655 -10.24166 -10.24085 -10.24044 -10.23997
 Alpha  occ. eigenvalues --  -10.23918 -10.23894 -10.23784 -10.23681 -10.23658
 Alpha  occ. eigenvalues --  -10.23598 -10.23587 -10.23383 -10.23330 -10.23096
 Alpha  occ. eigenvalues --  -10.22917 -10.22877 -10.22798 -10.22721 -10.22510
 Alpha  occ. eigenvalues --  -10.22421  -3.14857  -3.14733  -1.87700  -1.87568
 Alpha  occ. eigenvalues --   -1.87239  -1.87094  -1.87066  -1.86956  -1.10860
 Alpha  occ. eigenvalues --   -1.08711  -1.06273  -1.04128  -1.02736  -1.02068
 Alpha  occ. eigenvalues --   -1.01981  -1.01570  -1.00467  -0.99889  -0.98572
 Alpha  occ. eigenvalues --   -0.98259  -0.97584  -0.97370  -0.96256  -0.96116
 Alpha  occ. eigenvalues --   -0.87400  -0.85684  -0.83864  -0.83197  -0.82969
 Alpha  occ. eigenvalues --   -0.82930  -0.82497  -0.82225  -0.81936  -0.81674
 Alpha  occ. eigenvalues --   -0.81594  -0.81513  -0.81148  -0.79944  -0.78685
 Alpha  occ. eigenvalues --   -0.78623  -0.78297  -0.78151  -0.77031  -0.76867
 Alpha  occ. eigenvalues --   -0.76545  -0.76260  -0.75818  -0.75054  -0.75050
 Alpha  occ. eigenvalues --   -0.74796  -0.73307  -0.72376  -0.72081  -0.71868
 Alpha  occ. eigenvalues --   -0.71305  -0.70922  -0.70255  -0.69822  -0.69611
 Alpha  occ. eigenvalues --   -0.69239  -0.67736  -0.66777  -0.66600  -0.65967
 Alpha  occ. eigenvalues --   -0.63440  -0.63139  -0.62978  -0.62344  -0.62340
 Alpha  occ. eigenvalues --   -0.61870  -0.61653  -0.60721  -0.60463  -0.60123
 Alpha  occ. eigenvalues --   -0.60059  -0.59525  -0.59361  -0.59190  -0.59011
 Alpha  occ. eigenvalues --   -0.58819  -0.56695  -0.55860  -0.55108  -0.54760
 Alpha  occ. eigenvalues --   -0.54408  -0.53939  -0.53697  -0.53065  -0.53023
 Alpha  occ. eigenvalues --   -0.52841  -0.52348  -0.52039  -0.51908  -0.51559
 Alpha  occ. eigenvalues --   -0.51522  -0.50516  -0.50374  -0.50037  -0.50034
 Alpha  occ. eigenvalues --   -0.49669  -0.48917  -0.48864  -0.48583  -0.48582
 Alpha  occ. eigenvalues --   -0.48126  -0.48120  -0.48069  -0.47768  -0.47599
 Alpha  occ. eigenvalues --   -0.47569  -0.47344  -0.47165  -0.47107  -0.47054
 Alpha  occ. eigenvalues --   -0.47043  -0.46688  -0.46493  -0.46125  -0.45759
 Alpha  occ. eigenvalues --   -0.45621  -0.45531  -0.45217  -0.45095  -0.45056
 Alpha  occ. eigenvalues --   -0.45015  -0.44897  -0.44539  -0.44511  -0.44269
 Alpha  occ. eigenvalues --   -0.44018  -0.43839  -0.43803  -0.43457  -0.43435
 Alpha  occ. eigenvalues --   -0.43315  -0.43293  -0.43071  -0.42844  -0.42683
 Alpha  occ. eigenvalues --   -0.42583  -0.42501  -0.42498  -0.42336  -0.42150
 Alpha  occ. eigenvalues --   -0.42047  -0.41693  -0.41563  -0.41352  -0.41225
 Alpha  occ. eigenvalues --   -0.41100  -0.41004  -0.40928  -0.40924  -0.40522
 Alpha  occ. eigenvalues --   -0.40336  -0.40178  -0.40172  -0.39764  -0.39499
 Alpha  occ. eigenvalues --   -0.39278  -0.39100  -0.39023  -0.38819  -0.38790
 Alpha  occ. eigenvalues --   -0.38766  -0.38493  -0.38434  -0.38289  -0.38170
 Alpha  occ. eigenvalues --   -0.37827  -0.37818  -0.37799  -0.37626  -0.37522
 Alpha  occ. eigenvalues --   -0.37271  -0.36874  -0.36835  -0.36801  -0.36505
 Alpha  occ. eigenvalues --   -0.36408  -0.36405  -0.36052  -0.35999  -0.35897
 Alpha  occ. eigenvalues --   -0.35684  -0.35677  -0.35549  -0.35301  -0.35121
 Alpha  occ. eigenvalues --   -0.35042  -0.34705  -0.34002  -0.33751  -0.33526
 Alpha  occ. eigenvalues --   -0.33474  -0.32965  -0.32908  -0.32470  -0.32275
 Alpha  occ. eigenvalues --   -0.32101  -0.31981  -0.31590  -0.31173  -0.31071
 Alpha  occ. eigenvalues --   -0.30706  -0.29939  -0.29821  -0.29292  -0.28986
 Alpha  occ. eigenvalues --   -0.28983  -0.28821  -0.28374  -0.27451  -0.27117
 Alpha  occ. eigenvalues --   -0.26077  -0.26005  -0.25977  -0.25963  -0.25486
 Alpha  occ. eigenvalues --   -0.25323  -0.25085  -0.25044  -0.21141  -0.21065
 Alpha  occ. eigenvalues --   -0.19342  -0.17931
 Alpha virt. eigenvalues --   -0.11203  -0.10269  -0.06098  -0.05887  -0.04454
 Alpha virt. eigenvalues --   -0.04245  -0.02175  -0.01982  -0.00911  -0.00574
 Alpha virt. eigenvalues --   -0.00061   0.00467   0.01018   0.01124   0.01383

 Mulliken charges:
               1
     1  Mg  12.000000
     2  C    6.000000
     3  C    6.000000
     4  C    6.000000
     5  C    6.000000
     6  N    7.000000
     7  C    6.000000
     8  C    6.000000
     9  C    6.000000
    10  C    6.000000
    11  C    6.000000
    12  C    6.000000
    13  C    6.000000
    14  H    1.000000
    15  N    7.000000
    16  C    6.000000
    17  C    6.000000
    18  C    6.000000
    19  C    6.000000
    20  C    6.000000
    21  C    6.000000
    22  O    8.000000
    23  C    6.000000
    24  N    7.000000
    25  C    6.000000
    26  C    6.000000
    27  C    6.000000
    28  C    6.000000
    29  C    6.000000
    30  C    6.000000
    31  C    6.000000
    32  N    7.000000
    33  C    6.000000
    34  C    6.000000
    35  C    6.000000
    36  C    6.000000
    37  C    6.000000
    38  C    6.000000
    39  O    8.000000
    40  C    6.000000
    41  C    6.000000
    42  O    8.000000
    43  O    8.000000
    44  C    6.000000
    45  H    1.000000
    46  H    1.000000
    47  H    1.000000
    48  H    1.000000
    49  H    1.000000
    50  H    1.000000
    51  H    1.000000
    52  H    1.000000
    53  H    1.000000
    54  H    1.000000
    55  H    1.000000
    56  H    1.000000
    57  H    1.000000
    58  H    1.000000
    59  H    1.000000
    60  H    1.000000
    61  H    1.000000
    62  H    1.000000
    63  H    1.000000
    64  H    1.000000
    65  H    1.000000
    66  H    1.000000
    67  H    1.000000
    68  H    1.000000
    69  H    1.000000
    70  H    1.000000
    71  H    1.000000
    72  H    1.000000
    73  H    1.000000
    74  H    1.000000
    75  H    1.000000
    76  H    1.000000
    77  H    1.000000
    78  H    1.000000
    79  H    1.000000
    80  Mg  12.000000
    81  C    6.000000
    82  C    6.000000
    83  C    6.000000
    84  C    6.000000
    85  N    7.000000
    86  C    6.000000
    87  C    6.000000
    88  C    6.000000
    89  C    6.000000
    90  C    6.000000
    91  C    6.000000
    92  C    6.000000
    93  H    1.000000
    94  N    7.000000
    95  C    6.000000
    96  C    6.000000
    97  C    6.000000
    98  C    6.000000
    99  C    6.000000
   100  C    6.000000
   101  O    8.000000
   102  C    6.000000
   103  N    7.000000
   104  C    6.000000
   105  C    6.000000
   106  C    6.000000
   107  C    6.000000
   108  C    6.000000
   109  C    6.000000
   110  C    6.000000
   111  N    7.000000
   112  C    6.000000
   113  C    6.000000
   114  C    6.000000
   115  C    6.000000
   116  C    6.000000
   117  C    6.000000
   118  O    8.000000
   119  C    6.000000
   120  C    6.000000
   121  O    8.000000
   122  O    8.000000
   123  C    6.000000
   124  H    1.000000
   125  H    1.000000
   126  H    1.000000
   127  H    1.000000
   128  H    1.000000
   129  H    1.000000
   130  H    1.000000
   131  H    1.000000
   132  H    1.000000
   133  H    1.000000
   134  H    1.000000
   135  H    1.000000
   136  H    1.000000
   137  H    1.000000
   138  H    1.000000
   139  H    1.000000
   140  H    1.000000
   141  H    1.000000
   142  H    1.000000
   143  H    1.000000
   144  H    1.000000
   145  H    1.000000
   146  H    1.000000
   147  H    1.000000
   148  H    1.000000
   149  H    1.000000
   150  H    1.000000
   151  H    1.000000
   152  H    1.000000
   153  H    1.000000
   154  H    1.000000
   155  H    1.000000
   156  H    1.000000
   157  H    1.000000
   158  H    1.000000
 Sum of Mulliken charges = 624.00000

 Dipole moment (field-independent basis, Debye):
    X=              0.0000    Y=             -0.0000    Z=             -0.0000  Tot=              0.0000
 Quadrupole moment (field-independent basis, Debye-Ang):
   XX=              0.0000   YY=              0.0000   ZZ=             -0.0000
   XY=              0.0000   XZ=             -0.0000   YZ=              0.0000

 Normal termination of Gaussian 16 at Thu Oct 14 07:25:31 2021.
