 Gaussian 16, Revision A.03,
 Gaussian 16:  ES64L-G16RevA.03 25-Dec-2016

 --------------------------------------------------------
 #p PBE1PBE/Def2SVP td=(nstates=5) density=(transition=1)
 --------------------------------------------------------

 --------------------------------
 TDDFT excited states in gaussian
 --------------------------------
 Symbolic Z-matrix:
 Charge =  0 Multiplicity = 1

                         Standard orientation:
 ---------------------------------------------------------------------
 Center     Atomic      Atomic             Coordinates (Angstroms)
 Number     Number       Type             X           Y           Z
 ---------------------------------------------------------------------
      1         12           0       29.789222    0.472770    0.525065
      2          6           0       30.207226   -2.296349   -1.536652
      3          6           0       27.809796    1.904513   -1.878027
      4          6           0       29.681228    3.283184    2.449679
      5          6           0       32.069277   -1.098316    2.753600
      6          7           0       29.120179   -0.107172   -1.481027
      7          6           0       29.330289   -1.340099   -2.040066
      8          6           0       28.542149   -1.360804   -3.352086
      9          6           0       28.057778    0.062348   -3.564916
     10          6           0       28.318737    0.656192   -2.185342
     11          6           0       28.622816    0.886425   -4.690578
     12          6           0       27.394721   -2.475227   -3.450655
     13          6           0       26.443026   -2.366813   -4.685228
     14          1           0       26.813026   -3.141189   -5.977322
     15          7           0       28.748580    2.260652    0.359639
     16          6           0       28.019186    2.677542   -0.705130
     17          6           0       27.573949    4.012874   -0.402280
     18          6           0       28.127248    4.405288    0.851945
     19          6           0       28.907655    3.329855    1.272370
     20          6           0       26.689584    4.752078   -1.358447
     21          6           0       28.015687    5.811652    1.509483
     22          8           0       28.781573    6.173388    2.384775
     23          6           0       27.087693    6.837538    1.061980
     24          7           0       30.690708    0.960123    2.237123
     25          6           0       30.477764    2.165879    2.904609
     26          6           0       31.235220    2.241089    4.241702
     27          6           0       31.721989    0.761768    4.411621
     28          6           0       31.429336    0.155937    3.048834
     29          6           0       32.180983    3.358289    4.403876
     30          6           0       31.160668   -0.125685    5.655595
     31          6           0       32.124058   -0.716017    6.689634
     32          7           0       31.003102   -1.355468    0.603033
     33          6           0       31.864815   -1.805752    1.563517
     34          6           0       32.421622   -3.066941    1.206389
     35          6           0       31.722849   -3.364191   -0.025609
     36          6           0       30.937159   -2.231517   -0.379030
     37          6           0       33.374987   -3.827549    2.047006
     38          6           0       31.505548   -4.398812   -1.010471
     39          8           0       31.883116   -5.548149   -1.126990
     40          6           0       30.473596   -3.694975   -2.073245
     41          6           0       30.963550   -3.816801   -3.469993
     42          8           0       31.957811   -3.262677   -3.884868
     43          8           0       30.173680   -4.598640   -4.226745
     44          6           0       30.421017   -4.593726   -5.719714
     45          1           0       27.135176    2.343161   -2.616595
     46          1           0       29.634953    4.198081    3.043758
     47          1           0       32.719801   -1.419714    3.569897
     48          1           0       29.342862   -1.620045   -4.044590
     49          1           0       26.991932    0.049216   -3.791363
     50          1           0       29.249615    1.562713   -4.110135
     51          1           0       27.848893    1.365472   -5.290467
     52          1           0       29.317591    0.321017   -5.311998
     53          1           0       26.838454   -2.295016   -2.530524
     54          1           0       27.842969   -3.468087   -3.446727
     55          1           0       26.346696   -1.337987   -5.029852
     56          1           0       25.450143   -2.686264   -4.368657
     57          1           0       26.326472    4.223763   -2.240550
     58          1           0       27.304875    5.555779   -1.761544
     59          1           0       25.849563    5.245917   -0.869592
     60          1           0       27.010240    7.079019    0.002389
     61          1           0       27.156696    7.792048    1.583591
     62          1           0       26.134834    6.446302    1.417870
     63          1           0       30.368817    2.398884    4.884580
     64          1           0       32.796891    0.940950    4.429602
     65          1           0       31.953710    4.090719    5.178940
     66          1           0       32.231035    3.884016    3.449994
     67          1           0       33.191804    3.050396    4.671057
     68          1           0       30.616322   -0.969357    5.231751
     69          1           0       30.415362    0.334915    6.305139
     70          1           0       32.314535   -1.784217    6.582644
     71          1           0       31.913851   -0.438795    7.722232
     72          1           0       33.112725   -0.308096    6.478856
     73          1           0       34.140036   -3.140708    2.408240
     74          1           0       33.798857   -4.687676    1.529418
     75          1           0       32.867567   -4.053819    2.985336
     76          1           0       29.557455   -4.281734   -2.014502
     77          1           0       29.947100   -5.525061   -6.028925
     78          1           0       31.496720   -4.585061   -5.894306
     79          1           0       29.876484   -3.739537   -6.122407
     80         12           0      -30.419289   -0.585640   -0.300168
     81          6           0      -27.827221    1.723523   -0.409665
     82          6           0      -28.420209   -2.619617    1.803442
     83          6           0      -33.152454   -2.194078    0.751920
     84          6           0      -32.479310    1.845690   -1.808019
     85          7           0      -28.417452   -0.269462    0.901818
     86          6           0      -27.494144    0.638094    0.441189
     87          6           0      -26.159572    0.440157    1.088734
     88          6           0      -26.266822   -1.074848    1.584352
     89          6           0      -27.802300   -1.379124    1.468136
     90          6           0      -25.372216   -2.145610    0.778235
     91          6           0      -25.885164    1.588631    2.190164
     92          6           0      -24.489995    1.863032    2.443983
     93          1           0      -24.095041    1.735450    3.930537
     94          7           0      -30.746994   -2.278987    0.925021
     95          6           0      -29.786249   -2.982398    1.704252
     96          6           0      -30.470381   -4.094727    2.341732
     97          6           0      -31.852176   -4.018911    2.041270
     98          6           0      -31.963138   -2.833824    1.125862
     99          6           0      -29.779391   -5.005748    3.286552
    100          6           0      -32.952036   -4.991816    2.640520
    101          8           0      -32.558055   -5.875913    3.399561
    102          6           0      -34.367815   -5.056162    2.077933
    103          7           0      -32.479735   -0.131826   -0.438887
    104          6           0      -33.382002   -1.051991   -0.013363
    105          6           0      -34.945155   -0.551613   -0.207284
    106          6           0      -34.715177    0.657695   -1.235038
    107          6           0      -33.163385    0.830378   -1.217971
    108          6           0      -35.936918   -1.615469   -0.813289
    109          6           0      -35.427094    1.945650   -0.816980
    110          6           0      -36.467082    2.615105   -1.747081
    111          7           0      -30.148616    1.242131   -1.222028
    112          6           0      -31.057086    2.073902   -1.809591
    113          6           0      -30.362218    3.176498   -2.414806
    114          6           0      -29.054056    3.078274   -1.807397
    115          6           0      -29.025491    1.889194   -1.058928
    116          6           0      -30.978247    4.298607   -3.199427
    117          6           0      -27.799683    3.783128   -1.644442
    118          8           0      -27.372635    4.733856   -2.225935
    119          6           0      -26.855028    2.898595   -0.740835
    120          6           0      -25.604004    2.347476   -1.459891
    121          8           0      -25.620257    1.770197   -2.525747
    122          8           0      -24.447171    2.708263   -0.738692
    123          6           0      -23.187247    2.425969   -1.357453
    124          1           0      -27.731805   -3.234003    2.386127
    125          1           0      -34.068493   -2.525088    1.245295
    126          1           0      -33.152011    2.560218   -2.285910
    127          1           0      -25.354660    0.340935    0.359732
    128          1           0      -25.978347   -1.105458    2.635660
    129          1           0      -24.708150   -2.580080    1.525356
    130          1           0      -24.808391   -1.697532   -0.039367
    131          1           0      -26.064197   -2.903952    0.410788
    132          1           0      -26.333529    1.178444    3.094893
    133          1           0      -26.511778    2.394768    1.807635
    134          1           0      -24.316953    2.881894    2.099541
    135          1           0      -23.864999    1.146531    1.911038
    136          1           0      -28.696518   -4.894772    3.233109
    137          1           0      -29.954238   -6.042559    2.998150
    138          1           0      -30.073427   -4.805059    4.317046
    139          1           0      -34.947900   -4.147573    2.242434
    140          1           0      -34.861077   -5.914773    2.534722
    141          1           0      -34.281702   -5.266706    1.011872
    142          1           0      -35.206117   -0.169287    0.779162
    143          1           0      -34.914144    0.417068   -2.279589
    144          1           0      -36.675102   -1.898353   -0.063413
    145          1           0      -35.378562   -2.503924   -1.110653
    146          1           0      -36.416857   -1.140358   -1.669550
    147          1           0      -34.719747    2.707959   -0.491201
    148          1           0      -35.954778    1.885839    0.134762
    149          1           0      -36.194937    3.566627   -2.204665
    150          1           0      -37.314588    2.841450   -1.099637
    151          1           0      -36.753612    1.950629   -2.563121
    152          1           0      -30.172694    4.773315   -3.760187
    153          1           0      -31.233130    5.183929   -2.617748
    154          1           0      -31.850006    4.023060   -3.792314
    155          1           0      -26.530023    3.600674    0.027502
    156          1           0      -22.559547    2.318874   -0.472197
    157          1           0      -22.777890    3.297675   -1.867698
    158          1           0      -23.267632    1.576824   -2.034941
 ---------------------------------------------------------------------

 SCF Done:  E(RPBE1PBE) =  -4067.35146976     A.U. after   16 cycles

 Excitation energies and oscillator strengths:

 Excited State   1:      Singlet-A      1.8323 eV  676.65 nm  f=0.3778  <S**2>=0.000
     309 -> 316        0.16911
     311 -> 313        0.69535
     311 <- 313       -0.11106
 This state for optimization and/or second-order correction.
 Total Energy, E(TD-HF/TD-DFT) =  -4067.28413283
 Copying the excited state density for this state as the 1-particle RhoCI density.

 Excited State   2:      Singlet-A      1.8570 eV  667.66 nm  f=0.3851  <S**2>=0.000
     310 -> 315       -0.17288
     312 -> 314        0.69304
     312 <- 314       -0.11172

 Excited State   3:      Singlet-A      1.9756 eV  627.59 nm  f=0.0000  <S**2>=0.000
     312 -> 313        0.70711

 Excited State   4:      Singlet-A      2.0047 eV  618.46 nm  f=0.0000  <S**2>=0.000
     311 -> 314        0.70711

 Excited State   5:      Singlet-A      2.2290 eV  556.23 nm  f=0.0891  <S**2>=0.000
     310 -> 314        0.64388
     312 -> 315        0.27284

 The electronic state is 1-A.
 Alpha  occ. eigenvalues --  -46.93205 -46.91264 -19.25841 -19.25060 -19.20989
 Alpha  occ. eigenvalues --  -19.19754 -19.19275 -19.18924 -19.18648 -19.18474
 Alpha  occ. eigenvalues --  -14.42217 -14.41724 -14.41668 -14.41544 -14.39762
 Alpha  occ. eigenvalues --  -14.38849 -14.38727 -14.38100 -10.37166 -10.34951
 Alpha  occ. eigenvalues --  -10.33415 -10.32690 -10.31809 -10.31322 -10.29413
 Alpha  occ. eigenvalues --  -10.29357 -10.29328 -10.29201 -10.28927 -10.28847
 Alpha  occ. eigenvalues --  -10.28722 -10.28560 -10.28480 -10.28432 -10.28423
 Alpha  occ. eigenvalues --  -10.28090 -10.27678 -10.27442 -10.27321 -10.27129
 Alpha  occ. eigenvalues --  -10.27114 -10.26737 -10.26571 -10.26272 -10.26257
 Alpha  occ. eigenvalues --  -10.26052 -10.25989 -10.25986 -10.25939 -10.25882
 Alpha  occ. eigenvalues --  -10.25802 -10.25756 -10.25701 -10.25655 -10.25612
 Alpha  occ. eigenvalues --  -10.25507 -10.25357 -10.25331 -10.25326 -10.25128
 Alpha  occ. eigenvalues --  -10.25012 -10.24914 -10.24765 -10.24721 -10.24710
 Alpha  occ. eigenvalues --  -10.24668 -10.24510 -10.24505 -10.24353 -10.24314
 Alpha  occ. eigenvalues --  -10.24246 -10.24226 -10.24150 -10.24149 -10.24140
 Alpha  occ. eigenvalues --  -10.23928 -10.23692 -10.23413 -10.23359 -10.23355
 Alpha  occ. eigenvalues --  -10.23199 -10.23037 -10.23029 -10.22950 -10.22717
 Alpha  occ. eigenvalues --  -10.22633  -3.15205  -3.13501  -1.87992  -1.87634
 Alpha  occ. eigenvalues --   -1.87393  -1.86359  -1.85879  -1.85727  -1.10881
 Alpha  occ. eigenvalues --   -1.10611  -1.05735  -1.05693  -1.04879  -1.04273
 Alpha  occ. eigenvalues --   -1.03613  -1.01549  -0.99855  -0.99833  -0.98799
 Alpha  occ. eigenvalues --   -0.97946  -0.97416  -0.96998  -0.96959  -0.96193
 Alpha  occ. eigenvalues --   -0.86800  -0.86706  -0.83540  -0.83478  -0.83023
 Alpha  occ. eigenvalues --   -0.82646  -0.82624  -0.82442  -0.81881  -0.81254
 Alpha  occ. eigenvalues --   -0.81199  -0.80995  -0.80822  -0.80099  -0.78903
 Alpha  occ. eigenvalues --   -0.78328  -0.77994  -0.77690  -0.76926  -0.76793
 Alpha  occ. eigenvalues --   -0.76708  -0.76382  -0.75713  -0.75504  -0.75096
 Alpha  occ. eigenvalues --   -0.74646  -0.73127  -0.72239  -0.72117  -0.71596
 Alpha  occ. eigenvalues --   -0.71572  -0.71040  -0.70507  -0.70204  -0.69521
 Alpha  occ. eigenvalues --   -0.69290  -0.67236  -0.67168  -0.66270  -0.65799
 Alpha  occ. eigenvalues --   -0.63678  -0.63630  -0.63269  -0.62952  -0.62721
 Alpha  occ. eigenvalues --   -0.61878  -0.61347  -0.60855  -0.60331  -0.60093
 Alpha  occ. eigenvalues --   -0.59911  -0.59359  -0.59111  -0.58896  -0.58755
 Alpha  occ. eigenvalues --   -0.58718  -0.57443  -0.56002  -0.55068  -0.54284
 Alpha  occ. eigenvalues --   -0.54245  -0.54093  -0.53591  -0.53566  -0.53445
 Alpha  occ. eigenvalues --   -0.53085  -0.52646  -0.52572  -0.52058  -0.51693
 Alpha  occ. eigenvalues --   -0.50972  -0.50859  -0.50327  -0.49977  -0.49761
 Alpha  occ. eigenvalues --   -0.49585  -0.49355  -0.49282  -0.49082  -0.48628
 Alpha  occ. eigenvalues --   -0.48401  -0.47876  -0.47788  -0.47364  -0.47360
 Alpha  occ. eigenvalues --   -0.47156  -0.47133  -0.46969  -0.46904  -0.46733
 Alpha  occ. eigenvalues --   -0.46608  -0.46323  -0.46207  -0.45876  -0.45673
 Alpha  occ. eigenvalues --   -0.45609  -0.45489  -0.45433  -0.45069  -0.44809
 Alpha  occ. eigenvalues --   -0.44789  -0.44559  -0.44508  -0.44298  -0.44197
 Alpha  occ. eigenvalues --   -0.44054  -0.43938  -0.43915  -0.43852  -0.43694
 Alpha  occ. eigenvalues --   -0.43599  -0.43437  -0.43221  -0.43149  -0.42858
 Alpha  occ. eigenvalues --   -0.42709  -0.42547  -0.42412  -0.42141  -0.42077
 Alpha  occ. eigenvalues --   -0.41805  -0.41695  -0.41584  -0.41584  -0.41345
 Alpha  occ. eigenvalues --   -0.41217  -0.41159  -0.40978  -0.40891  -0.40788
 Alpha  occ. eigenvalues --   -0.40637  -0.40419  -0.39983  -0.39906  -0.39830
 Alpha  occ. eigenvalues --   -0.39761  -0.39577  -0.39574  -0.39359  -0.39238
 Alpha  occ. eigenvalues --   -0.39048  -0.38868  -0.38853  -0.38691  -0.38524
 Alpha  occ. eigenvalues --   -0.38467  -0.38245  -0.38072  -0.37938  -0.37671
 Alpha  occ. eigenvalues --   -0.37581  -0.37546  -0.37485  -0.37334  -0.37068
 Alpha  occ. eigenvalues --   -0.36771  -0.36643  -0.36397  -0.36329  -0.36139
 Alpha  occ. eigenvalues --   -0.35983  -0.35902  -0.35814  -0.35360  -0.35292
 Alpha  occ. eigenvalues --   -0.35086  -0.34797  -0.34460  -0.34208  -0.33755
 Alpha  occ. eigenvalues --   -0.33629  -0.33169  -0.32771  -0.32729  -0.32301
 Alpha  occ. eigenvalues --   -0.32098  -0.31919  -0.31660  -0.31343  -0.31273
 Alpha  occ. eigenvalues --   -0.30989  -0.30708  -0.29795  -0.29484  -0.29430
 Alpha  occ. eigenvalues --   -0.29252  -0.28899  -0.27883  -0.26912  -0.26613
 Alpha  occ. eigenvalues --   -0.26210  -0.26060  -0.25609  -0.25345  -0.25196
 Alpha  occ. eigenvalues --   -0.25119  -0.24985  -0.24676  -0.21221  -0.21118
 Alpha  occ. eigenvalues --   -0.18817  -0.18771
 Alpha virt. eigenvalues --   -0.11292  -0.11230  -0.05371  -0.05175  -0.03788
 Alpha virt. eigenvalues --   -0.03591  -0.02338  -0.01720  -0.01462  -0.00144
 Alpha virt. eigenvalues --    0.00363   0.00559   0.00811   0.01347   0.01650

 Mulliken charges:
               1
     1  Mg  11.999997
     2  C    5.999883
     3  C    6.000139
     4  C    6.000086
     5  C    5.999905
     6  N    6.999936
     7  C    6.000236
     8  C    5.999964
     9  C    6.000041
    10  C    5.999837
    11  C    6.000014
    12  C    5.999976
    13  C    6.000016
    14  H    0.999994
    15  N    7.000028
    16  C    5.999754
    17  C    5.999799
    18  C    5.999930
    19  C    5.999764
    20  C    6.000054
    21  C    5.999963
    22  O    7.999844
    23  C    6.000058
    24  N    7.000012
    25  C    5.999727
    26  C    6.000054
    27  C    5.999931
    28  C    6.000245
    29  C    6.000008
    30  C    5.999978
    31  C    5.999989
    32  N    6.999998
    33  C    6.000236
    34  C    6.000210
    35  C    6.000048
    36  C    6.000170
    37  C    5.999974
    38  C    6.000057
    39  O    8.000238
    40  C    6.000026
    41  C    6.000023
    42  O    8.000030
    43  O    8.000013
    44  C    5.999993
    45  H    0.999927
    46  H    0.999946
    47  H    1.000081
    48  H    0.999993
    49  H    0.999995
    50  H    1.000026
    51  H    0.999979
    52  H    0.999927
    53  H    1.000037
    54  H    0.999974
    55  H    1.000025
    56  H    1.000007
    57  H    0.999867
    58  H    0.999853
    59  H    0.999859
    60  H    0.999956
    61  H    0.999900
    62  H    0.999942
    63  H    1.000005
    64  H    1.000014
    65  H    0.999988
    66  H    1.000016
    67  H    0.999937
    68  H    0.999984
    69  H    1.000069
    70  H    0.999989
    71  H    1.000042
    72  H    1.000013
    73  H    1.000116
    74  H    1.000093
    75  H    1.000137
    76  H    1.000055
    77  H    1.000028
    78  H    1.000016
    79  H    1.000030
    80  Mg  12.000296
    81  C    5.992766
    82  C    6.019202
    83  C    6.007887
    84  C    5.977649
    85  N    7.007214
    86  C    6.027764
    87  C    5.986665
    88  C    6.010464
    89  C    5.963113
    90  C    6.001272
    91  C    5.998671
    92  C    5.995672
    93  H    1.011461
    94  N    7.004999
    95  C    5.953252
    96  C    5.987767
    97  C    5.981300
    98  C    5.971334
    99  C    6.005592
   100  C    5.986612
   101  O    7.979116
   102  C    6.003350
   103  N    6.986031
   104  C    5.976500
   105  C    6.007858
   106  C    5.992699
   107  C    6.035616
   108  C    6.001520
   109  C    5.997744
   110  C    5.999214
   111  N    7.000601
   112  C    6.041220
   113  C    6.021145
   114  C    6.009232
   115  C    6.023610
   116  C    5.998873
   117  C    6.017447
   118  O    8.029199
   119  C    6.001522
   120  C    6.005359
   121  O    8.005430
   122  O    8.003169
   123  C    5.997318
   124  H    0.991385
   125  H    0.992146
   126  H    1.006613
   127  H    1.002712
   128  H    0.997169
   129  H    0.997502
   130  H    0.987292
   131  H    1.004549
   132  H    1.011282
   133  H    0.992062
   134  H    0.997181
   135  H    1.003875
   136  H    0.982445
   137  H    0.985016
   138  H    0.982659
   139  H    0.988466
   140  H    0.987564
   141  H    0.991874
   142  H    0.998236
   143  H    1.000622
   144  H    1.000366
   145  H    1.003667
   146  H    0.990193
   147  H    0.995212
   148  H    1.008108
   149  H    0.996622
   150  H    1.003847
   151  H    1.003059
   152  H    1.012133
   153  H    1.020911
   154  H    1.016921
   155  H    1.009576
   156  H    1.005994
   157  H    1.003094
   158  H    1.004924
 Sum of Mulliken charges = 624.00000

 Dipole moment (field-independent basis, Debye):
    X=              2.6542    Y=              8.8447    Z=             -4.8449  Tot=             10.4282
 Quadrupole moment (field-independent basis, Debye-Ang):
   XX=           -153.9061   YY=             -7.7716   ZZ=             -0.1300
   XY=           -272.4158   XZ=            148.5974   YZ=              3.4949

 Normal termination of Gaussian 16 at Fri Oct 15 04:36:04 2021.
