 Gaussian 16, Revision A.03,
 Gaussian 16:  ES64L-G16RevA.03 25-Dec-2016

 --------------------------------------------------------
 #p PBE1PBE/Def2SVP td=(nstates=5) density=(transition=1)
 --------------------------------------------------------

 --------------------------------
 TDDFT excited states in gaussian
 --------------------------------
 Symbolic Z-matrix:
 Charge =  0 Multiplicity = 1

                         Standard orientation:
 ---------------------------------------------------------------------
 Center     Atomic      Atomic             Coordinates (Angstroms)
 Number     Number       Type             X           Y           Z
 ---------------------------------------------------------------------
      1         12           0      -24.553341   -0.657263   -0.060222
      2          6           0      -23.730755    2.382960   -1.432886
      3          6           0      -24.903985    0.976064    3.081261
      4          6           0      -24.849010   -3.621562    1.538271
      5          6           0      -23.897234   -2.237508   -2.945182
      6          7           0      -24.333382    1.452097    0.726140
      7          6           0      -23.969939    2.511542   -0.061164
      8          6           0      -24.015932    3.823077    0.726047
      9          6           0      -24.204559    3.270018    2.213631
     10          6           0      -24.496819    1.812215    2.009778
     11          6           0      -23.001770    3.586791    3.176259
     12          6           0      -25.202603    4.795457    0.283254
     13          6           0      -25.013262    6.282723    0.105540
     14          1           0      -24.289771    7.035651    1.164890
     15          7           0      -24.892894   -1.278303    2.031426
     16          6           0      -25.178372   -0.482783    3.085629
     17          6           0      -25.593498   -1.244230    4.215815
     18          6           0      -25.620344   -2.608402    3.785751
     19          6           0      -25.035582   -2.535179    2.413516
     20          6           0      -25.849318   -0.531601    5.504510
     21          6           0      -25.921726   -3.856282    4.598091
     22          8           0      -25.642861   -4.990326    4.196522
     23          6           0      -26.570557   -3.740308    5.966228
     24          7           0      -24.244215   -2.696638   -0.590671
     25          6           0      -24.560118   -3.738319    0.223041
     26          6           0      -24.524316   -5.056407   -0.548574
     27          6           0      -24.388653   -4.564113   -2.039553
     28          6           0      -24.170239   -3.074507   -1.861993
     29          6           0      -23.544211   -6.199260   -0.150484
     30          6           0      -25.563857   -4.954645   -3.029902
     31          6           0      -26.726971   -4.010667   -3.249940
     32          7           0      -23.851827   -0.110002   -1.795426
     33          6           0      -23.746515   -0.798252   -2.977415
     34          6           0      -23.264241   -0.006365   -4.049588
     35          6           0      -23.286616    1.275201   -3.508333
     36          6           0      -23.671406    1.160013   -2.147724
     37          6           0      -22.909804   -0.316281   -5.498128
     38          6           0      -23.039188    2.629795   -3.744948
     39          8           0      -22.616937    3.151596   -4.760417
     40          6           0      -23.290437    3.484986   -2.379570
     41          6           0      -22.035477    4.134958   -2.022554
     42          8           0      -20.983120    3.557988   -1.683976
     43          8           0      -22.075753    5.488877   -2.137153
     44          6           0      -20.815074    6.239305   -2.119814
     45          1           0      -25.065464    1.595633    3.965439
     46          1           0      -25.215966   -4.561773    1.954669
     47          1           0      -24.033892   -2.642040   -3.949507
     48          1           0      -23.097423    4.376053    0.525323
     49          1           0      -25.047118    3.749626    2.712086
     50          1           0      -23.390242    4.174841    4.007048
     51          1           0      -22.261704    4.070366    2.538406
     52          1           0      -22.579250    2.724992    3.693755
     53          1           0      -25.922237    4.624642    1.084103
     54          1           0      -25.757373    4.377025   -0.555871
     55          1           0      -25.966570    6.753279   -0.134937
     56          1           0      -24.343956    6.387529   -0.747596
     57          1           0      -26.783481   -0.953386    5.873572
     58          1           0      -26.038767    0.527845    5.330151
     59          1           0      -25.072673   -0.615477    6.265465
     60          1           0      -27.380779   -3.012082    6.013129
     61          1           0      -25.797921   -3.673465    6.733397
     62          1           0      -27.053731   -4.706913    6.111951
     63          1           0      -25.487588   -5.506016   -0.306664
     64          1           0      -23.571218   -5.049754   -2.571195
     65          1           0      -22.760409   -6.302711   -0.900714
     66          1           0      -24.136615   -7.113873   -0.131421
     67          1           0      -23.156316   -5.925480    0.830065
     68          1           0      -25.971516   -5.896668   -2.665676
     69          1           0      -25.160464   -5.132861   -4.026960
     70          1           0      -27.686159   -4.506938   -3.100507
     71          1           0      -26.734702   -3.550164   -4.238750
     72          1           0      -26.590777   -3.225773   -2.505947
     73          1           0      -23.114053   -1.369048   -5.696960
     74          1           0      -21.859540   -0.077854   -5.667938
     75          1           0      -23.522642    0.311015   -6.144842
     76          1           0      -23.989274    4.234824   -2.751473
     77          1           0      -20.870665    7.212673   -2.607416
     78          1           0      -19.933030    5.684388   -2.438035
     79          1           0      -20.688692    6.545422   -1.081228
     80         12           0       24.662511   -0.669307    0.137688
     81          6           0       22.381150    1.909979    0.862705
     82          6           0       27.041264    1.791211   -0.477112
     83          6           0       26.677308   -3.117240   -0.850129
     84          6           0       21.914112   -2.972773   -0.037907
     85          7           0       24.698557    1.559350    0.162779
     86          6           0       23.657233    2.379664    0.619072
     87          6           0       24.219709    3.741440    0.982343
     88          6           0       25.617995    3.793669    0.303537
     89          6           0       25.804986    2.281161   -0.022338
     90          6           0       25.772486    4.784886   -0.892439
     91          6           0       24.236833    4.053804    2.518875
     92          6           0       24.058154    5.595796    2.872510
     93          1           0       23.947851    6.587421    1.711252
     94          7           0       26.566034   -0.666919   -0.423024
     95          6           0       27.403853    0.428369   -0.543664
     96          6           0       28.743456    0.012751   -0.844415
     97          6           0       28.650600   -1.395262   -1.086214
     98          6           0       27.288010   -1.769383   -0.751861
     99          6           0       29.933853    1.002020   -1.032835
    100          6           0       29.706284   -2.332519   -1.574509
    101          8           0       29.436986   -3.516094   -1.890115
    102          6           0       31.211475   -2.054614   -1.860352
    103          7           0       24.322670   -2.685276   -0.638449
    104          6           0       25.348753   -3.523602   -0.877712
    105          6           0       24.845583   -4.986674   -0.960805
    106          6           0       23.331065   -4.949058   -0.727171
    107          6           0       23.179704   -3.400133   -0.390989
    108          6           0       25.349348   -5.681780   -2.188815
    109          6           0       22.763968   -5.878150    0.367602
    110          6           0       23.333913   -5.650864    1.789461
    111          7           0       22.531277   -0.605202    0.296637
    112          6           0       21.632633   -1.615361    0.358292
    113          6           0       20.382204   -1.034543    0.844891
    114          6           0       20.582891    0.351162    1.098847
    115          6           0       21.919620    0.591533    0.697866
    116          6           0       19.108181   -1.809353    1.171132
    117          6           0       19.974812    1.561459    1.551460
    118          8           0       18.891234    1.831963    2.062394
    119          6           0       21.165744    2.706693    1.347625
    120          6           0       20.624177    3.843369    0.501272
    121          8           0       20.541627    3.799257   -0.710524
    122          8           0       20.344341    4.943627    1.279472
    123          6           0       19.474467    5.985217    0.742853
    124          1           0       27.735263    2.633078   -0.518457
    125          1           0       27.408583   -3.893063   -1.085126
    126          1           0       21.157355   -3.757641    0.018318
    127          1           0       23.592904    4.517999    0.544211
    128          1           0       26.334415    4.070337    1.076497
    129          1           0       26.115018    4.130301   -1.693166
    130          1           0       26.585633    5.487719   -0.707054
    131          1           0       24.904264    5.335340   -1.254707
    132          1           0       25.200943    3.809819    2.963963
    133          1           0       23.483735    3.436076    3.006427
    134          1           0       24.974823    5.922924    3.363476
    135          1           0       23.186238    5.678603    3.520903
    136          1           0       30.547090    0.624235   -1.851866
    137          1           0       30.577078    1.055648   -0.155139
    138          1           0       29.765739    2.060198   -1.232516
    139          1           0       31.700470   -1.641837   -0.977516
    140          1           0       31.360180   -1.416178   -2.731165
    141          1           0       31.834128   -2.947887   -1.893018
    142          1           0       25.402541   -5.526706   -0.196203
    143          1           0       22.896779   -5.034338   -1.723900
    144          1           0       26.183579   -6.352780   -1.983223
    145          1           0       25.610559   -4.946927   -2.950471
    146          1           0       24.598654   -6.284942   -2.700670
    147          1           0       23.073827   -6.868906    0.034573
    148          1           0       21.675288   -5.819084    0.383917
    149          1           0       22.471015   -5.395947    2.404373
    150          1           0       24.041817   -4.825306    1.715273
    151          1           0       23.923505   -6.482439    2.175734
    152          1           0       18.648114   -1.485731    2.104353
    153          1           0       19.319842   -2.859509    1.370256
    154          1           0       18.453202   -1.763643    0.300634
    155          1           0       21.330576    3.099106    2.351416
    156          1           0       19.749204    6.107447   -0.305180
    157          1           0       19.575379    6.958543    1.223139
    158          1           0       18.458047    5.636675    0.926077
 ---------------------------------------------------------------------

 SCF Done:  E(RPBE1PBE) =  -4067.40712064     A.U. after   16 cycles

 Excitation energies and oscillator strengths:

 Excited State   1:      Singlet-A      1.8182 eV  681.90 nm  f=0.3857  <S**2>=0.000
     309 -> 315        0.16261
     312 -> 313        0.69668
     312 <- 313       -0.11885
 This state for optimization and/or second-order correction.
 Total Energy, E(TD-HF/TD-DFT) =  -4067.34030258
 Copying the excited state density for this state as the 1-particle RhoCI density.

 Excited State   2:      Singlet-A      1.9516 eV  635.30 nm  f=0.0000  <S**2>=0.000
     311 -> 313        0.70711

 Excited State   3:      Singlet-A      1.9728 eV  628.46 nm  f=0.0000  <S**2>=0.000
     312 -> 314        0.70711

 Excited State   4:      Singlet-A      2.1901 eV  566.10 nm  f=0.1401  <S**2>=0.000
     309 -> 313        0.66503
     312 -> 315       -0.22002

 Excited State   5:      Singlet-A      2.4289 eV  510.46 nm  f=0.0000  <S**2>=0.000
     310 -> 313        0.70711

 The electronic state is 1-A.
 Alpha  occ. eigenvalues --  -46.92490 -46.92306 -19.25677 -19.24901 -19.19666
 Alpha  occ. eigenvalues --  -19.19439 -19.19034 -19.18906 -19.18730 -19.18507
 Alpha  occ. eigenvalues --  -14.41910 -14.41610 -14.41061 -14.41029 -14.39866
 Alpha  occ. eigenvalues --  -14.39164 -14.39137 -14.39117 -10.36091 -10.35900
 Alpha  occ. eigenvalues --  -10.32792 -10.32534 -10.32430 -10.31717 -10.29074
 Alpha  occ. eigenvalues --  -10.28834 -10.28809 -10.28614 -10.28602 -10.28520
 Alpha  occ. eigenvalues --  -10.28513 -10.28369 -10.28202 -10.28184 -10.27993
 Alpha  occ. eigenvalues --  -10.27773 -10.27711 -10.27676 -10.27675 -10.27665
 Alpha  occ. eigenvalues --  -10.26960 -10.26908 -10.26789 -10.26726 -10.26279
 Alpha  occ. eigenvalues --  -10.26046 -10.25916 -10.25914 -10.25896 -10.25895
 Alpha  occ. eigenvalues --  -10.25879 -10.25861 -10.25804 -10.25779 -10.25735
 Alpha  occ. eigenvalues --  -10.25545 -10.25353 -10.25340 -10.25322 -10.25316
 Alpha  occ. eigenvalues --  -10.25128 -10.25125 -10.25111 -10.25084 -10.24943
 Alpha  occ. eigenvalues --  -10.24672 -10.24470 -10.24393 -10.24387 -10.24278
 Alpha  occ. eigenvalues --  -10.24260 -10.23874 -10.23871 -10.23840 -10.23662
 Alpha  occ. eigenvalues --  -10.23536 -10.23494 -10.23391 -10.23187 -10.23137
 Alpha  occ. eigenvalues --  -10.23130 -10.23054 -10.22814 -10.22439 -10.22401
 Alpha  occ. eigenvalues --  -10.22365  -3.14679  -3.14455  -1.87502  -1.87264
 Alpha  occ. eigenvalues --   -1.87013  -1.86951  -1.86829  -1.86691  -1.10597
 Alpha  occ. eigenvalues --   -1.10191  -1.04699  -1.04256  -1.04119  -1.03021
 Alpha  occ. eigenvalues --   -1.02255  -1.00604  -1.00079  -0.99311  -0.98869
 Alpha  occ. eigenvalues --   -0.98766  -0.98117  -0.98047  -0.97867  -0.96862
 Alpha  occ. eigenvalues --   -0.86979  -0.86571  -0.83503  -0.83306  -0.82769
 Alpha  occ. eigenvalues --   -0.82521  -0.82443  -0.82391  -0.82158  -0.81705
 Alpha  occ. eigenvalues --   -0.81679  -0.80981  -0.80724  -0.79714  -0.78568
 Alpha  occ. eigenvalues --   -0.78043  -0.78026  -0.77649  -0.76922  -0.76437
 Alpha  occ. eigenvalues --   -0.75995  -0.75482  -0.75322  -0.74955  -0.74594
 Alpha  occ. eigenvalues --   -0.74112  -0.72847  -0.72655  -0.71788  -0.71392
 Alpha  occ. eigenvalues --   -0.71268  -0.71041  -0.70535  -0.70133  -0.69836
 Alpha  occ. eigenvalues --   -0.69323  -0.68001  -0.67016  -0.65978  -0.65486
 Alpha  occ. eigenvalues --   -0.64236  -0.64008  -0.63637  -0.63523  -0.62828
 Alpha  occ. eigenvalues --   -0.62549  -0.61896  -0.61524  -0.60026  -0.59744
 Alpha  occ. eigenvalues --   -0.59670  -0.59282  -0.59224  -0.58755  -0.58732
 Alpha  occ. eigenvalues --   -0.58599  -0.56830  -0.56222  -0.55389  -0.54711
 Alpha  occ. eigenvalues --   -0.54396  -0.54047  -0.53640  -0.53361  -0.52857
 Alpha  occ. eigenvalues --   -0.52730  -0.52427  -0.52017  -0.51874  -0.51441
 Alpha  occ. eigenvalues --   -0.50837  -0.50472  -0.50273  -0.49852  -0.49576
 Alpha  occ. eigenvalues --   -0.49350  -0.49320  -0.49311  -0.48593  -0.48470
 Alpha  occ. eigenvalues --   -0.47995  -0.47846  -0.47755  -0.47685  -0.47292
 Alpha  occ. eigenvalues --   -0.47222  -0.47135  -0.47111  -0.46745  -0.46685
 Alpha  occ. eigenvalues --   -0.46607  -0.46489  -0.45975  -0.45895  -0.45634
 Alpha  occ. eigenvalues --   -0.45375  -0.45311  -0.45051  -0.44808  -0.44454
 Alpha  occ. eigenvalues --   -0.44450  -0.44139  -0.44127  -0.43861  -0.43853
 Alpha  occ. eigenvalues --   -0.43830  -0.43696  -0.43659  -0.43420  -0.43404
 Alpha  occ. eigenvalues --   -0.43360  -0.43191  -0.43155  -0.42813  -0.42800
 Alpha  occ. eigenvalues --   -0.42516  -0.42458  -0.42319  -0.42123  -0.42071
 Alpha  occ. eigenvalues --   -0.41806  -0.41587  -0.41394  -0.41195  -0.41056
 Alpha  occ. eigenvalues --   -0.40946  -0.40921  -0.40709  -0.40599  -0.40570
 Alpha  occ. eigenvalues --   -0.40161  -0.40085  -0.39948  -0.39747  -0.39418
 Alpha  occ. eigenvalues --   -0.39262  -0.39219  -0.38974  -0.38845  -0.38825
 Alpha  occ. eigenvalues --   -0.38787  -0.38764  -0.38383  -0.38193  -0.38191
 Alpha  occ. eigenvalues --   -0.37971  -0.37958  -0.37726  -0.37656  -0.37445
 Alpha  occ. eigenvalues --   -0.37267  -0.37109  -0.36783  -0.36766  -0.36732
 Alpha  occ. eigenvalues --   -0.36562  -0.36483  -0.36351  -0.36280  -0.36172
 Alpha  occ. eigenvalues --   -0.35990  -0.35556  -0.35454  -0.35412  -0.34993
 Alpha  occ. eigenvalues --   -0.34949  -0.34738  -0.34580  -0.34464  -0.34111
 Alpha  occ. eigenvalues --   -0.33640  -0.33423  -0.33196  -0.32794  -0.32617
 Alpha  occ. eigenvalues --   -0.32312  -0.31897  -0.31658  -0.31352  -0.31101
 Alpha  occ. eigenvalues --   -0.30857  -0.30563  -0.29731  -0.29188  -0.28893
 Alpha  occ. eigenvalues --   -0.28629  -0.28407  -0.27986  -0.27055  -0.26971
 Alpha  occ. eigenvalues --   -0.26524  -0.26275  -0.26111  -0.25798  -0.25540
 Alpha  occ. eigenvalues --   -0.25382  -0.25247  -0.24945  -0.21047  -0.20813
 Alpha  occ. eigenvalues --   -0.19059  -0.18973
 Alpha virt. eigenvalues --   -0.11617  -0.11452  -0.05008  -0.04768  -0.04262
 Alpha virt. eigenvalues --   -0.03926  -0.02303  -0.01916  -0.01260  -0.00962
 Alpha virt. eigenvalues --    0.00173   0.00611   0.01083   0.01830   0.01846

 Mulliken charges:
               1
     1  Mg  12.000001
     2  C    6.000024
     3  C    6.000017
     4  C    5.999970
     5  C    5.999959
     6  N    7.000003
     7  C    5.999969
     8  C    5.999996
     9  C    5.999994
    10  C    6.000025
    11  C    5.999995
    12  C    6.000003
    13  C    6.000001
    14  H    0.999970
    15  N    6.999996
    16  C    6.000014
    17  C    6.000013
    18  C    6.000002
    19  C    6.000029
    20  C    5.999988
    21  C    6.000022
    22  O    8.000027
    23  C    5.999991
    24  N    6.999985
    25  C    6.000028
    26  C    6.000000
    27  C    6.000001
    28  C    5.999982
    29  C    5.999991
    30  C    6.000000
    31  C    6.000000
    32  N    6.999995
    33  C    5.999990
    34  C    5.999972
    35  C    6.000010
    36  C    5.999969
    37  C    5.999992
    38  C    5.999976
    39  O    7.999961
    40  C    5.999996
    41  C    5.999994
    42  O    7.999947
    43  O    8.000016
    44  C    6.000024
    45  H    1.000011
    46  H    1.000019
    47  H    1.000007
    48  H    0.999974
    49  H    1.000025
    50  H    1.000012
    51  H    0.999982
    52  H    0.999966
    53  H    1.000012
    54  H    1.000028
    55  H    1.000033
    56  H    0.999995
    57  H    1.000055
    58  H    1.000037
    59  H    1.000004
    60  H    1.000039
    61  H    0.999994
    62  H    1.000049
    63  H    1.000025
    64  H    0.999980
    65  H    0.999986
    66  H    1.000031
    67  H    0.999968
    68  H    1.000006
    69  H    1.000005
    70  H    1.000026
    71  H    1.000020
    72  H    0.999991
    73  H    0.999986
    74  H    0.999941
    75  H    1.000010
    76  H    1.000015
    77  H    1.000001
    78  H    0.999953
    79  H    0.999974
    80  Mg  12.000922
    81  C    5.979886
    82  C    5.997878
    83  C    6.018365
    84  C    5.996599
    85  N    6.988012
    86  C    6.032962
    87  C    5.991357
    88  C    6.011028
    89  C    5.977279
    90  C    5.998320
    91  C    5.997352
    92  C    5.999466
    93  H    1.004861
    94  N    7.003514
    95  C    5.968209
    96  C    5.975063
    97  C    5.987957
    98  C    5.972570
    99  C    6.001936
   100  C    5.991791
   101  O    7.968021
   102  C    6.003514
   103  N    7.008472
   104  C    5.969512
   105  C    6.004051
   106  C    5.992740
   107  C    6.020492
   108  C    6.002095
   109  C    5.995880
   110  C    5.995446
   111  N    6.998455
   112  C    6.029835
   113  C    6.038717
   114  C    5.997188
   115  C    6.035185
   116  C    5.998221
   117  C    6.012830
   118  O    8.023967
   119  C    6.004988
   120  C    6.003081
   121  O    8.005519
   122  O    8.001798
   123  C    5.998439
   124  H    0.986590
   125  H    0.996190
   126  H    1.009924
   127  H    0.998759
   128  H    0.997356
   129  H    1.004451
   130  H    0.997382
   131  H    0.987689
   132  H    1.011079
   133  H    0.992707
   134  H    1.004893
   135  H    0.996916
   136  H    0.985754
   137  H    0.980888
   138  H    0.982522
   139  H    0.992222
   140  H    0.991573
   141  H    0.986898
   142  H    1.001150
   143  H    1.003863
   144  H    1.002409
   145  H    1.003804
   146  H    0.991496
   147  H    1.008782
   148  H    0.995793
   149  H    0.995194
   150  H    1.006508
   151  H    1.007533
   152  H    1.017502
   153  H    1.019055
   154  H    1.021112
   155  H    1.008197
   156  H    1.004477
   157  H    1.005491
   158  H    1.000068
 Sum of Mulliken charges = 624.00000

 Dipole moment (field-independent basis, Debye):
    X=            -10.2736    Y=             -0.0359    Z=              2.5158  Tot=             10.5772
 Quadrupole moment (field-independent basis, Debye-Ang):
   XX=           -505.3199   YY=              2.5535   ZZ=              0.1354
   XY=              4.2253   XZ=             62.2499   YZ=             -0.9200

 Normal termination of Gaussian 16 at Fri Oct 15 18:18:11 2021.
