 Gaussian 16, Revision A.03,
 Gaussian 16:  ES64L-G16RevA.03 25-Dec-2016

 --------------------------------------------------------
 #p PBE1PBE/Def2SVP td=(nstates=5) density=(transition=1)
 --------------------------------------------------------

 --------------------------------
 TDDFT excited states in gaussian
 --------------------------------
 Symbolic Z-matrix:
 Charge =  0 Multiplicity = 1

                         Standard orientation:
 ---------------------------------------------------------------------
 Center     Atomic      Atomic             Coordinates (Angstroms)
 Number     Number       Type             X           Y           Z
 ---------------------------------------------------------------------
      1         12           0      -22.379491    0.461391    0.429324
      2          6           0      -21.632273   -2.098579   -1.676315
      3          6           0      -22.625187   -1.593309    3.189924
      4          6           0      -23.311668    3.165047    2.312050
      5          6           0      -22.585457    2.643167   -2.449620
      6          7           0      -22.356340   -1.619631    0.657488
      7          6           0      -21.765597   -2.497054   -0.312582
      8          6           0      -21.414131   -3.795888    0.295072
      9          6           0      -22.132522   -3.682414    1.713960
     10          6           0      -22.413511   -2.209523    1.912018
     11          6           0      -23.491522   -4.540746    1.806566
     12          6           0      -19.895237   -4.147641    0.252568
     13          6           0      -19.576127   -5.548179   -0.161111
     14          1           0      -20.530709   -6.673573    0.402044
     15          7           0      -22.827394    0.757873    2.489433
     16          6           0      -22.873613   -0.249872    3.406319
     17          6           0      -23.189380    0.331941    4.665692
     18          6           0      -23.318164    1.764927    4.489094
     19          6           0      -23.077166    2.004942    3.026844
     20          6           0      -23.435528   -0.523082    5.927976
     21          6           0      -23.576630    2.893949    5.437171
     22          8           0      -23.775135    4.085975    5.176916
     23          6           0      -23.539543    2.506892    6.964010
     24          7           0      -22.996793    2.636751   -0.016889
     25          6           0      -23.221188    3.511316    0.931949
     26          6           0      -23.233246    4.946768    0.410442
     27          6           0      -22.998807    4.757646   -1.115556
     28          6           0      -22.865716    3.239782   -1.222263
     29          6           0      -24.598936    5.741311    0.733652
     30          6           0      -21.662291    5.519340   -1.526367
     31          6           0      -20.280887    5.040764   -1.015288
     32          7           0      -22.316885    0.292005   -1.667958
     33          6           0      -22.362080    1.256649   -2.656711
     34          6           0      -22.001051    0.576797   -3.917365
     35          6           0      -21.687060   -0.721580   -3.648723
     36          6           0      -21.904851   -0.841512   -2.228217
     37          6           0      -22.132456    1.195185   -5.266481
     38          6           0      -21.252234   -2.009949   -4.187738
     39          8           0      -20.989738   -2.356885   -5.327108
     40          6           0      -21.217338   -2.942908   -2.898658
     41          6           0      -22.215715   -4.011126   -3.107977
     42          8           0      -23.428373   -3.888254   -3.353604
     43          8           0      -21.489868   -5.177864   -2.978673
     44          6           0      -22.303458   -6.400595   -2.962904
     45          1           0      -22.660543   -2.200706    4.096553
     46          1           0      -23.495002    4.001779    2.990308
     47          1           0      -22.566199    3.301856   -3.319655
     48          1           0      -21.919612   -4.531297   -0.332120
     49          1           0      -21.426502   -4.017718    2.473094
     50          1           0      -23.604805   -5.267770    1.002386
     51          1           0      -24.302946   -3.838289    1.616700
     52          1           0      -23.483934   -4.913196    2.830090
     53          1           0      -19.456330   -3.997865    1.239032
     54          1           0      -19.510720   -3.448620   -0.490008
     55          1           0      -18.604781   -5.887541    0.196485
     56          1           0      -19.475256   -5.824739   -1.210697
     57          1           0      -22.544464   -0.921682    6.412835
     58          1           0      -24.118105   -1.288158    5.558417
     59          1           0      -23.851513    0.050656    6.755878
     60          1           0      -24.440748    1.944040    7.207297
     61          1           0      -23.299099    3.405448    7.531944
     62          1           0      -22.674131    1.904457    7.240880
     63          1           0      -22.383723    5.476939    0.840282
     64          1           0      -23.805828    5.151141   -1.733669
     65          1           0      -24.351193    6.446628    1.527718
     66          1           0      -25.357919    5.049722    1.100801
     67          1           0      -25.063247    6.353764   -0.038223
     68          1           0      -21.670129    6.594200   -1.346220
     69          1           0      -21.641641    5.330521   -2.600183
     70          1           0      -19.784149    4.733730   -1.935763
     71          1           0      -20.358420    4.245100   -0.275397
     72          1           0      -19.695065    5.820755   -0.529003
     73          1           0      -21.321962    0.724256   -5.821890
     74          1           0      -22.040142    2.281246   -5.246562
     75          1           0      -23.007444    0.751932   -5.740101
     76          1           0      -20.216024   -3.357522   -3.012095
     77          1           0      -21.540978   -7.179985   -2.973645
     78          1           0      -22.825667   -6.422052   -3.919433
     79          1           0      -23.069371   -6.450990   -2.188718
     80         12           0       21.830488    0.775777   -0.161983
     81          6           0       23.693126   -1.697832    1.639867
     82          6           0       19.981336   -1.915451   -1.496711
     83          6           0       20.521959    2.781129   -2.391440
     84          6           0       23.973987    3.155812    0.979644
     85          7           0       21.832514   -1.521807    0.111014
     86          6           0       22.620841   -2.202521    0.977308
     87          6           0       22.152651   -3.647585    1.026549
     88          6           0       20.940753   -3.792883    0.063556
     89          6           0       20.875331   -2.343477   -0.455213
     90          6           0       21.148262   -4.935017   -1.082966
     91          6           0       21.734165   -4.108913    2.488012
     92          6           0       22.298517   -5.445196    2.971541
     93          1           0       22.553368   -6.635458    1.962001
     94          7           0       20.467720    0.458512   -1.778131
     95          6           0       19.846799   -0.655229   -2.104325
     96          6           0       19.013603   -0.365466   -3.237140
     97          6           0       18.995495    1.031605   -3.478975
     98          6           0       20.029091    1.468647   -2.577417
     99          6           0       18.052096   -1.389393   -3.838172
    100          6           0       18.132753    1.952710   -4.327283
    101          8           0       18.346431    3.146203   -4.436528
    102          6           0       16.941552    1.317638   -4.990356
    103          7           0       22.455634    2.596566   -0.862558
    104          6           0       21.589801    3.327031   -1.678555
    105          6           0       21.889865    4.850662   -1.674979
    106          6           0       22.887261    4.906321   -0.457006
    107          6           0       23.132995    3.448614   -0.067867
    108          6           0       22.457002    5.299925   -3.029408
    109          6           0       22.286637    5.647942    0.829278
    110          6           0       22.779819    7.017713    1.155625
    111          7           0       23.391457    0.791237    1.117261
    112          6           0       24.197945    1.853968    1.462981
    113          6           0       25.328275    1.458742    2.299285
    114          6           0       25.173170    0.030848    2.409912
    115          6           0       24.078582   -0.324791    1.586943
    116          6           0       26.222781    2.414833    3.001914
    117          6           0       25.662924   -1.172534    3.064551
    118          8           0       26.599601   -1.255571    3.879760
    119          6           0       24.714187   -2.401085    2.556648
    120          6           0       25.616795   -3.304543    1.860798
    121          8           0       26.317052   -2.971619    0.929805
    122          8           0       25.563377   -4.540675    2.370791
    123          6           0       26.437221   -5.648932    1.872878
    124          1           0       19.329412   -2.700323   -1.885622
    125          1           0       19.880171    3.578480   -2.773673
    126          1           0       24.583101    3.965833    1.385551
    127          1           0       22.970162   -4.260115    0.646276
    128          1           0       20.050495   -4.152894    0.579523
    129          1           0       21.890205   -5.669413   -0.769316
    130          1           0       21.456044   -4.382942   -1.971367
    131          1           0       20.196698   -5.424743   -1.289191
    132          1           0       20.662352   -4.116091    2.681388
    133          1           0       22.114702   -3.388705    3.212199
    134          1           0       21.696539   -5.867748    3.776287
    135          1           0       23.229886   -5.148734    3.454008
    136          1           0       17.027908   -1.307835   -3.473803
    137          1           0       18.448103   -2.402890   -3.767365
    138          1           0       18.046961   -1.201085   -4.911533
    139          1           0       16.396207    0.599486   -4.377276
    140          1           0       17.160951    0.793201   -5.919323
    141          1           0       16.158706    2.068157   -5.100101
    142          1           0       20.947829    5.364731   -1.486143
    143          1           0       23.786868    5.426143   -0.786803
    144          1           0       22.389035    4.551277   -3.818595
    145          1           0       23.517747    5.538897   -2.961730
    146          1           0       21.936902    6.201804   -3.353884
    147          1           0       22.424860    5.115752    1.770414
    148          1           0       21.199232    5.709674    0.807275
    149          1           0       21.967342    7.738947    1.077062
    150          1           0       23.539794    7.190670    0.393411
    151          1           0       23.172145    7.050203    2.172008
    152          1           0       26.536934    2.026414    3.970102
    153          1           0       25.697230    3.369502    3.014699
    154          1           0       27.108978    2.527729    2.375911
    155          1           0       24.255087   -2.928827    3.391517
    156          1           0       27.472558   -5.308555    1.847065
    157          1           0       26.169153   -5.975285    0.867722
    158          1           0       26.314458   -6.583298    2.419895
 ---------------------------------------------------------------------

 SCF Done:  E(RPBE1PBE) =  -4067.36705124     A.U. after   16 cycles

 Excitation energies and oscillator strengths:

 Excited State   1:      Singlet-A      1.8382 eV  674.49 nm  f=0.3578  <S**2>=0.000
     309 -> 315       -0.17963
     311 -> 314        0.69130
     311 <- 314       -0.10357
 This state for optimization and/or second-order correction.
 Total Energy, E(TD-HF/TD-DFT) =  -4067.29949856
 Copying the excited state density for this state as the 1-particle RhoCI density.

 Excited State   2:      Singlet-A      1.8475 eV  671.08 nm  f=0.4049  <S**2>=0.000
     310 -> 316       -0.16119
     312 -> 313        0.69472
     312 <- 313       -0.11624

 Excited State   3:      Singlet-A      1.9659 eV  630.67 nm  f=0.0000  <S**2>=0.000
     312 -> 314        0.70711

 Excited State   4:      Singlet-A      1.9718 eV  628.78 nm  f=0.0000  <S**2>=0.000
     311 -> 313        0.70711

 Excited State   5:      Singlet-A      2.2073 eV  561.70 nm  f=0.1235  <S**2>=0.000
     310 -> 313        0.66025
     312 -> 316        0.23230

 The electronic state is 1-A.
 Alpha  occ. eigenvalues --  -46.92681 -46.92050 -19.26397 -19.25855 -19.20594
 Alpha  occ. eigenvalues --  -19.19980 -19.19740 -19.19588 -19.19287 -19.18697
 Alpha  occ. eigenvalues --  -14.42012 -14.41617 -14.41390 -14.41290 -14.39265
 Alpha  occ. eigenvalues --  -14.39123 -14.39108 -14.38735 -10.36643 -10.35442
 Alpha  occ. eigenvalues --  -10.32906 -10.32753 -10.32705 -10.32670 -10.29731
 Alpha  occ. eigenvalues --  -10.29678 -10.29628 -10.29126 -10.29099 -10.28550
 Alpha  occ. eigenvalues --  -10.28546 -10.28270 -10.28150 -10.27986 -10.27961
 Alpha  occ. eigenvalues --  -10.27648 -10.27378 -10.27339 -10.27338 -10.26940
 Alpha  occ. eigenvalues --  -10.26771 -10.26701 -10.26690 -10.26629 -10.26347
 Alpha  occ. eigenvalues --  -10.26251 -10.26196 -10.26194 -10.26050 -10.25919
 Alpha  occ. eigenvalues --  -10.25918 -10.25834 -10.25789 -10.25705 -10.25658
 Alpha  occ. eigenvalues --  -10.25613 -10.25531 -10.25464 -10.25446 -10.25431
 Alpha  occ. eigenvalues --  -10.25416 -10.25222 -10.25124 -10.25008 -10.24770
 Alpha  occ. eigenvalues --  -10.24719 -10.24634 -10.24303 -10.24262 -10.24120
 Alpha  occ. eigenvalues --  -10.24100 -10.23956 -10.23928 -10.23765 -10.23539
 Alpha  occ. eigenvalues --  -10.23501 -10.23375 -10.23347 -10.23346 -10.23306
 Alpha  occ. eigenvalues --  -10.23164 -10.23045 -10.22984 -10.22984 -10.22701
 Alpha  occ. eigenvalues --  -10.22467  -3.14670  -3.14255  -1.87513  -1.87060
 Alpha  occ. eigenvalues --   -1.87034  -1.86893  -1.86635  -1.86489  -1.11293
 Alpha  occ. eigenvalues --   -1.10813  -1.05581  -1.05134  -1.04195  -1.03193
 Alpha  occ. eigenvalues --   -1.02368  -1.02151  -0.99809  -0.99366  -0.98636
 Alpha  occ. eigenvalues --   -0.98174  -0.97761  -0.97479  -0.96590  -0.96360
 Alpha  occ. eigenvalues --   -0.86866  -0.86515  -0.83445  -0.83141  -0.82954
 Alpha  occ. eigenvalues --   -0.82608  -0.82367  -0.82342  -0.81757  -0.81464
 Alpha  occ. eigenvalues --   -0.81295  -0.81295  -0.80776  -0.80442  -0.78990
 Alpha  occ. eigenvalues --   -0.78537  -0.78435  -0.77722  -0.76939  -0.76727
 Alpha  occ. eigenvalues --   -0.76013  -0.75922  -0.75621  -0.75525  -0.75051
 Alpha  occ. eigenvalues --   -0.74173  -0.72594  -0.72385  -0.71996  -0.71720
 Alpha  occ. eigenvalues --   -0.71516  -0.71193  -0.70581  -0.70195  -0.69352
 Alpha  occ. eigenvalues --   -0.69243  -0.66982  -0.66969  -0.66695  -0.65904
 Alpha  occ. eigenvalues --   -0.64227  -0.63694  -0.63190  -0.62887  -0.62254
 Alpha  occ. eigenvalues --   -0.62077  -0.61876  -0.61342  -0.59976  -0.59857
 Alpha  occ. eigenvalues --   -0.59606  -0.59519  -0.59266  -0.59237  -0.59040
 Alpha  occ. eigenvalues --   -0.58984  -0.57168  -0.57025  -0.55062  -0.54872
 Alpha  occ. eigenvalues --   -0.54041  -0.53757  -0.53542  -0.53451  -0.53426
 Alpha  occ. eigenvalues --   -0.53119  -0.52612  -0.52548  -0.52156  -0.52013
 Alpha  occ. eigenvalues --   -0.50699  -0.50599  -0.50202  -0.50137  -0.49773
 Alpha  occ. eigenvalues --   -0.49572  -0.49493  -0.49074  -0.48878  -0.48168
 Alpha  occ. eigenvalues --   -0.48138  -0.47990  -0.47971  -0.47718  -0.47586
 Alpha  occ. eigenvalues --   -0.47426  -0.47043  -0.47024  -0.46959  -0.46900
 Alpha  occ. eigenvalues --   -0.46711  -0.46521  -0.46357  -0.46258  -0.45922
 Alpha  occ. eigenvalues --   -0.45810  -0.45694  -0.45446  -0.45159  -0.45029
 Alpha  occ. eigenvalues --   -0.44765  -0.44578  -0.44542  -0.44327  -0.44007
 Alpha  occ. eigenvalues --   -0.43801  -0.43720  -0.43519  -0.43391  -0.43303
 Alpha  occ. eigenvalues --   -0.43247  -0.43223  -0.43158  -0.43093  -0.42818
 Alpha  occ. eigenvalues --   -0.42801  -0.42443  -0.42384  -0.42130  -0.42046
 Alpha  occ. eigenvalues --   -0.42043  -0.41647  -0.41462  -0.41381  -0.41302
 Alpha  occ. eigenvalues --   -0.40937  -0.40923  -0.40864  -0.40690  -0.40646
 Alpha  occ. eigenvalues --   -0.40355  -0.40053  -0.39987  -0.39902  -0.39543
 Alpha  occ. eigenvalues --   -0.39345  -0.39288  -0.39094  -0.38792  -0.38680
 Alpha  occ. eigenvalues --   -0.38449  -0.38295  -0.38176  -0.38056  -0.37784
 Alpha  occ. eigenvalues --   -0.37782  -0.37726  -0.37694  -0.37670  -0.37392
 Alpha  occ. eigenvalues --   -0.37262  -0.37137  -0.37106  -0.36929  -0.36900
 Alpha  occ. eigenvalues --   -0.36586  -0.36545  -0.36471  -0.36432  -0.36315
 Alpha  occ. eigenvalues --   -0.36213  -0.35932  -0.35709  -0.35466  -0.35410
 Alpha  occ. eigenvalues --   -0.35212  -0.34774  -0.34681  -0.34521  -0.34214
 Alpha  occ. eigenvalues --   -0.33366  -0.32938  -0.32901  -0.32565  -0.32192
 Alpha  occ. eigenvalues --   -0.32020  -0.31778  -0.31521  -0.31501  -0.31421
 Alpha  occ. eigenvalues --   -0.31286  -0.31218  -0.29675  -0.29673  -0.29423
 Alpha  occ. eigenvalues --   -0.29060  -0.28759  -0.28347  -0.26917  -0.26907
 Alpha  occ. eigenvalues --   -0.26482  -0.26377  -0.25990  -0.25858  -0.25695
 Alpha  occ. eigenvalues --   -0.25588  -0.25477  -0.25073  -0.21340  -0.20787
 Alpha  occ. eigenvalues --   -0.18704  -0.18625
 Alpha virt. eigenvalues --   -0.11163  -0.11106  -0.05833  -0.04733  -0.04492
 Alpha virt. eigenvalues --   -0.04071  -0.02351  -0.02315  -0.01022  -0.00909
 Alpha virt. eigenvalues --    0.00028   0.00676   0.00761   0.01001   0.01085

 Mulliken charges:
               1
     1  Mg  12.002994
     2  C    6.020044
     3  C    5.980423
     4  C    5.996738
     5  C    6.016275
     6  N    7.002243
     7  C    5.965163
     8  C    6.011774
     9  C    5.989693
    10  C    6.034540
    11  C    5.999041
    12  C    6.002428
    13  C    6.004000
    14  H    0.991606
    15  N    6.992288
    16  C    6.035968
    17  C    6.021637
    18  C    6.016821
    19  C    6.024021
    20  C    5.999952
    21  C    6.012005
    22  O    8.030212
    23  C    5.995669
    24  N    7.003201
    25  C    6.025302
    26  C    5.991212
    27  C    6.010723
    28  C    5.967597
    29  C    5.998924
    30  C    6.002153
    31  C    6.004199
    32  N    7.002320
    33  C    5.957535
    34  C    5.974059
    35  C    5.996522
    36  C    5.969141
    37  C    6.001404
    38  C    5.982358
    39  O    7.973587
    40  C    5.998022
    41  C    5.997130
    42  O    7.995472
    43  O    7.998380
    44  C    6.001467
    45  H    1.007385
    46  H    1.006857
    47  H    0.991911
    48  H    0.998847
    49  H    1.000817
    50  H    1.013615
    51  H    1.000308
    52  H    0.999018
    53  H    0.988058
    54  H    1.005057
    55  H    0.996465
    56  H    1.003236
    57  H    1.019354
    58  H    1.014263
    59  H    1.012468
    60  H    1.008692
    61  H    1.013737
    62  H    1.007697
    63  H    1.000054
    64  H    0.997654
    65  H    0.997847
    66  H    0.996917
    67  H    1.008902
    68  H    0.990717
    69  H    1.004407
    70  H    1.005385
    71  H    0.991615
    72  H    0.993464
    73  H    0.985555
    74  H    0.982407
    75  H    0.980708
    76  H    0.992718
    77  H    0.995699
    78  H    0.998631
    79  H    0.993293
    80  Mg  11.999914
    81  C    6.000693
    82  C    5.999661
    83  C    5.999124
    84  C    6.000277
    85  N    7.000402
    86  C    5.999005
    87  C    6.000392
    88  C    5.999493
    89  C    6.001194
    90  C    5.999961
    91  C    6.000042
    92  C    6.000030
    93  H    0.999759
    94  N    6.999832
    95  C    6.001252
    96  C    6.001021
    97  C    6.000485
    98  C    6.001227
    99  C    5.999885
   100  C    6.000540
   101  O    8.001062
   102  C    5.999694
   103  N    6.999634
   104  C    6.001610
   105  C    5.999602
   106  C    6.000319
   107  C    5.998962
   108  C    5.999891
   109  C    6.000322
   110  C    6.000016
   111  N    6.999889
   112  C    5.998827
   113  C    5.998556
   114  C    6.000056
   115  C    5.998749
   116  C    6.000113
   117  C    5.999337
   118  O    7.998942
   119  C    5.999753
   120  C    5.999809
   121  O    7.999905
   122  O    7.999911
   123  C    6.000083
   124  H    1.000448
   125  H    1.000211
   126  H    0.999531
   127  H    1.000023
   128  H    1.000201
   129  H    1.000491
   130  H    0.999951
   131  H    1.000030
   132  H    0.999677
   133  H    1.000278
   134  H    0.999896
   135  H    1.000221
   136  H    1.000822
   137  H    1.000653
   138  H    1.000665
   139  H    1.000194
   140  H    1.000400
   141  H    1.000581
   142  H    0.999979
   143  H    0.999889
   144  H    0.999834
   145  H    1.000430
   146  H    1.000106
   147  H    1.000184
   148  H    0.999496
   149  H    0.999728
   150  H    0.999908
   151  H    1.000043
   152  H    0.999305
   153  H    0.999309
   154  H    0.999115
   155  H    0.999637
   156  H    0.999965
   157  H    0.999761
   158  H    0.999802
 Sum of Mulliken charges = 624.00000

 Dipole moment (field-independent basis, Debye):
    X=             -2.2312    Y=              1.7100    Z=              9.7340  Tot=             10.1318
 Quadrupole moment (field-independent basis, Debye-Ang):
   XX=             72.1088   YY=             -1.0611   ZZ=             10.0610
   XY=            -40.8206   XZ=           -233.5768   YZ=              5.8174

 Normal termination of Gaussian 16 at Wed Oct 13 21:25:41 2021.
