 Gaussian 16, Revision A.03,
 Gaussian 16:  ES64L-G16RevA.03 25-Dec-2016

 --------------------------------------------------------
 #p PBE1PBE/Def2SVP td=(nstates=5) density=(transition=1)
 --------------------------------------------------------

 --------------------------------
 TDDFT excited states in gaussian
 --------------------------------
 Symbolic Z-matrix:
 Charge =  0 Multiplicity = 1

                         Standard orientation:
 ---------------------------------------------------------------------
 Center     Atomic      Atomic             Coordinates (Angstroms)
 Number     Number       Type             X           Y           Z
 ---------------------------------------------------------------------
      1         12           0      -21.508099    0.496341   -0.215712
      2          6           0      -17.936368    0.586998   -0.922442
      3          6           0      -21.857574   -1.480984   -3.000964
      4          6           0      -24.278656   -0.793246    1.142004
      5          6           0      -20.993187    2.573435    2.423774
      6          7           0      -19.985524   -0.505366   -1.673573
      7          6           0      -18.572953   -0.249874   -1.805083
      8          6           0      -18.064282   -0.868551   -3.110177
      9          6           0      -19.356831   -1.182313   -3.919939
     10          6           0      -20.523693   -1.052955   -2.844954
     11          6           0      -19.608951   -0.177596   -5.141688
     12          6           0      -17.046333   -1.965777   -2.999534
     13          6           0      -16.893853   -2.662928   -1.627011
     14          1           0      -15.973080   -3.850909   -1.293348
     15          7           0      -22.975650   -0.859541   -0.915186
     16          6           0      -22.914740   -1.581503   -2.086613
     17          6           0      -24.198172   -2.336413   -2.233682
     18          6           0      -24.807222   -2.208432   -0.987950
     19          6           0      -24.027048   -1.309424   -0.140783
     20          6           0      -24.495508   -3.105477   -3.471945
     21          6           0      -26.118361   -2.935929   -0.570414
     22          8           0      -26.599180   -3.735454   -1.353776
     23          6           0      -26.749604   -2.838992    0.778868
     24          7           0      -22.367187    0.772090    1.628454
     25          6           0      -23.617537    0.201641    1.864277
     26          6           0      -24.227586    0.735276    3.160410
     27          6           0      -23.364729    2.018342    3.442343
     28          6           0      -22.222203    1.817240    2.444283
     29          6           0      -25.746916    1.042455    3.191518
     30          6           0      -22.889413    2.217508    4.917291
     31          6           0      -23.624610    3.373301    5.738236
     32          7           0      -19.845805    1.490147    0.581730
     33          6           0      -19.824043    2.386557    1.640288
     34          6           0      -18.523097    3.005741    1.705988
     35          6           0      -17.784037    2.258241    0.779056
     36          6           0      -18.663421    1.368129    0.114480
     37          6           0      -18.139189    4.079261    2.739036
     38          6           0      -16.503666    2.097174    0.161062
     39          8           0      -15.492744    2.783292    0.413428
     40          6           0      -16.540641    1.103856   -1.083570
     41          6           0      -15.435610    0.158038   -0.829674
     42          8           0      -15.209750   -0.448761    0.222604
     43          8           0      -14.794246   -0.010844   -2.011878
     44          6           0      -13.513729   -0.784128   -1.967225
     45          1           0      -21.964048   -2.123651   -3.876836
     46          1           0      -25.193159   -1.213667    1.566160
     47          1           0      -20.890647    3.331709    3.202376
     48          1           0      -17.601507    0.030906   -3.516352
     49          1           0      -19.429595   -2.228702   -4.216907
     50          1           0      -19.481258   -0.815031   -6.015702
     51          1           0      -18.906441    0.653744   -5.078199
     52          1           0      -20.651356    0.130925   -5.054663
     53          1           0      -16.113146   -1.548494   -3.377430
     54          1           0      -17.415545   -2.660343   -3.754839
     55          1           0      -17.906067   -2.969406   -1.361321
     56          1           0      -16.552226   -1.938975   -0.886954
     57          1           0      -24.456699   -4.156163   -3.185934
     58          1           0      -23.743355   -2.850998   -4.218065
     59          1           0      -25.459984   -2.788958   -3.870608
     60          1           0      -26.201340   -3.233480    1.633525
     61          1           0      -27.657477   -3.435761    0.861776
     62          1           0      -26.989410   -1.776172    0.807399
     63          1           0      -23.980949   -0.123501    3.785802
     64          1           0      -23.982985    2.843696    3.088587
     65          1           0      -26.339781    0.258824    3.664342
     66          1           0      -26.126526    1.103548    2.172130
     67          1           0      -25.872580    2.015622    3.667385
     68          1           0      -21.818269    2.391555    5.023310
     69          1           0      -23.046081    1.240769    5.375212
     70          1           0      -23.800695    2.887668    6.697728
     71          1           0      -24.562259    3.721340    5.304632
     72          1           0      -22.962371    4.238166    5.721454
     73          1           0      -17.371042    4.782506    2.416569
     74          1           0      -17.733540    3.456199    3.535384
     75          1           0      -18.985605    4.739085    2.928335
     76          1           0      -16.415202    1.676721   -2.003546
     77          1           0      -13.102332   -0.855651   -2.974666
     78          1           0      -13.678422   -1.799563   -1.606352
     79          1           0      -12.907024   -0.174410   -1.299184
     80         12           0       20.393262   -0.719981    0.090083
     81          6           0       21.572215    2.310255   -0.988482
     82          6           0       17.359363    0.611589    0.560978
     83          6           0       19.450751   -3.698694    1.355822
     84          6           0       23.812494   -1.955567    0.051939
     85          7           0       19.641850    1.364744    0.055668
     86          6           0       20.245688    2.412855   -0.517396
     87          6           0       19.246884    3.679166   -0.584765
     88          6           0       17.921116    3.004570   -0.068779
     89          6           0       18.307312    1.548102    0.258859
     90          6           0       17.231895    3.783099    1.068682
     91          6           0       19.117698    4.302050   -2.003793
     92          6           0       17.930991    5.282584   -2.278007
     93          1           0       18.250823    6.825049   -2.320444
     94          7           0       18.638219   -1.433675    0.905819
     95          6           0       17.490091   -0.789051    0.920992
     96          6           0       16.468321   -1.672999    1.461183
     97          6           0       17.049531   -2.926607    1.818861
     98          6           0       18.440226   -2.728012    1.354868
     99          6           0       15.033952   -1.277938    1.771284
    100          6           0       16.449922   -4.136537    2.527813
    101          8           0       17.167759   -5.007034    3.011522
    102          6           0       14.968683   -4.244823    2.629492
    103          7           0       21.500529   -2.553783    0.669288
    104          6           0       20.866399   -3.632462    1.113302
    105          6           0       21.798548   -4.851473    1.211343
    106          6           0       23.074564   -4.285715    0.593436
    107          6           0       22.778062   -2.838104    0.465997
    108          6           0       21.990333   -5.504132    2.588410
    109          6           0       23.575226   -5.056929   -0.601520
    110          6           0       24.979446   -5.742505   -0.446020
    111          7           0       22.258678   -0.043244   -0.401644
    112          6           0       23.554513   -0.657877   -0.456631
    113          6           0       24.531425    0.234001   -1.041655
    114          6           0       23.736659    1.393049   -1.262917
    115          6           0       22.414830    1.170684   -0.856843
    116          6           0       25.935663    0.010990   -1.480616
    117          6           0       23.835168    2.657312   -1.947643
    118          8           0       24.691440    3.183325   -2.674253
    119          6           0       22.534942    3.387504   -1.721608
    120          6           0       22.789695    4.538300   -0.723282
    121          8           0       23.473231    4.505695    0.311485
    122          8           0       22.111231    5.631159   -1.174823
    123          6           0       22.231692    6.899648   -0.388458
    124          1           0       16.305717    0.887112    0.640945
    125          1           0       19.286166   -4.612029    1.931314
    126          1           0       24.784935   -2.438352   -0.060345
    127          1           0       19.656362    4.369468    0.151846
    128          1           0       17.237581    2.939326   -0.915286
    129          1           0       16.164976    3.784767    0.848233
    130          1           0       17.546014    4.826512    1.097597
    131          1           0       17.424858    3.314550    2.033812
    132          1           0       18.867256    3.465761   -2.656460
    133          1           0       20.030192    4.841172   -2.258106
    134          1           0       17.258820    5.208841   -1.422492
    135          1           0       17.486812    5.031017   -3.240469
    136          1           0       14.840838   -0.239115    1.503690
    137          1           0       14.843749   -1.400982    2.837207
    138          1           0       14.316917   -1.904045    1.241810
    139          1           0       14.601264   -4.066635    1.618483
    140          1           0       14.369560   -3.607634    3.279276
    141          1           0       14.639132   -5.228578    2.962000
    142          1           0       21.395075   -5.626003    0.559999
    143          1           0       23.862741   -4.383285    1.339789
    144          1           0       22.015976   -6.571674    2.371184
    145          1           0       21.205666   -5.188516    3.275850
    146          1           0       22.874052   -5.164208    3.128313
    147          1           0       23.723428   -4.287002   -1.358050
    148          1           0       22.894395   -5.840487   -0.932843
    149          1           0       25.395991   -5.519541    0.536623
    150          1           0       25.636022   -5.305206   -1.198830
    151          1           0       25.005506   -6.810730   -0.661710
    152          1           0       26.178403   -1.050390   -1.436391
    153          1           0       26.550807    0.470508   -0.707820
    154          1           0       25.976974    0.414911   -2.493201
    155          1           0       22.263282    3.758140   -2.710188
    156          1           0       22.110717    6.790495    0.689572
    157          1           0       21.580993    7.704125   -0.729661
    158          1           0       23.267134    7.216531   -0.511960
 ---------------------------------------------------------------------

 SCF Done:  E(RPBE1PBE) =  -4067.34318148     A.U. after   16 cycles

 Excitation energies and oscillator strengths:

 Excited State   1:      Singlet-A      1.8047 eV  686.99 nm  f=0.3491  <S**2>=0.000
     309 -> 315        0.15271
     312 -> 313        0.69770
     312 <- 313       -0.11785
 This state for optimization and/or second-order correction.
 Total Energy, E(TD-HF/TD-DFT) =  -4067.27685827
 Copying the excited state density for this state as the 1-particle RhoCI density.

 Excited State   2:      Singlet-A      1.8791 eV  659.80 nm  f=0.3866  <S**2>=0.000
     310 -> 316       -0.16659
     311 -> 314        0.69069
     311 <- 314       -0.10565

 Excited State   3:      Singlet-A      1.9499 eV  635.85 nm  f=0.0000  <S**2>=0.000
     312 -> 314        0.70710

 Excited State   4:      Singlet-A      1.9761 eV  627.42 nm  f=0.0000  <S**2>=0.000
     311 -> 313        0.70711

 Excited State   5:      Singlet-A      2.2731 eV  545.45 nm  f=0.0804  <S**2>=0.000
     309 -> 313        0.63281
     312 -> 315       -0.29901

 The electronic state is 1-A.
 Alpha  occ. eigenvalues --  -46.92718 -46.92559 -19.26273 -19.26111 -19.19785
 Alpha  occ. eigenvalues --  -19.19707 -19.19638 -19.19115 -19.17979 -19.17642
 Alpha  occ. eigenvalues --  -14.42002 -14.41424 -14.41355 -14.41187 -14.39611
 Alpha  occ. eigenvalues --  -14.39296 -14.38939 -14.38535 -10.36611 -10.36269
 Alpha  occ. eigenvalues --  -10.33123 -10.32523 -10.31000 -10.30515 -10.29499
 Alpha  occ. eigenvalues --  -10.29419 -10.29388 -10.29386 -10.29296 -10.29049
 Alpha  occ. eigenvalues --  -10.28625 -10.28429 -10.28318 -10.28226 -10.28210
 Alpha  occ. eigenvalues --  -10.28079 -10.27888 -10.27781 -10.27774 -10.27143
 Alpha  occ. eigenvalues --  -10.26848 -10.26521 -10.26474 -10.26425 -10.26409
 Alpha  occ. eigenvalues --  -10.26256 -10.26252 -10.26245 -10.26177 -10.26119
 Alpha  occ. eigenvalues --  -10.25865 -10.25803 -10.25653 -10.25605 -10.25569
 Alpha  occ. eigenvalues --  -10.25555 -10.25504 -10.25161 -10.25140 -10.25116
 Alpha  occ. eigenvalues --  -10.24985 -10.24928 -10.24928 -10.24871 -10.24809
 Alpha  occ. eigenvalues --  -10.24778 -10.24479 -10.24416 -10.24412 -10.24366
 Alpha  occ. eigenvalues --  -10.24335 -10.24028 -10.24015 -10.23934 -10.23934
 Alpha  occ. eigenvalues --  -10.23879 -10.23743 -10.23682 -10.23622 -10.23610
 Alpha  occ. eigenvalues --  -10.23578 -10.23542 -10.23141 -10.23122 -10.22178
 Alpha  occ. eigenvalues --  -10.22057  -3.14787  -3.14665  -1.87598  -1.87496
 Alpha  occ. eigenvalues --   -1.87184  -1.87033  -1.86990  -1.86900  -1.10941
 Alpha  occ. eigenvalues --   -1.10327  -1.05273  -1.05011  -1.02729  -1.02414
 Alpha  occ. eigenvalues --   -1.01661  -1.01355  -1.00312  -0.99718  -0.99019
 Alpha  occ. eigenvalues --   -0.98812  -0.98544  -0.97652  -0.97305  -0.94904
 Alpha  occ. eigenvalues --   -0.86440  -0.85647  -0.84207  -0.83684  -0.83260
 Alpha  occ. eigenvalues --   -0.82976  -0.82923  -0.82461  -0.81756  -0.81446
 Alpha  occ. eigenvalues --   -0.81288  -0.81128  -0.80938  -0.80546  -0.78635
 Alpha  occ. eigenvalues --   -0.78444  -0.78113  -0.77579  -0.76799  -0.76628
 Alpha  occ. eigenvalues --   -0.76477  -0.76368  -0.75385  -0.75376  -0.74566
 Alpha  occ. eigenvalues --   -0.74398  -0.72839  -0.72319  -0.72115  -0.71815
 Alpha  occ. eigenvalues --   -0.71016  -0.70887  -0.70389  -0.70374  -0.69678
 Alpha  occ. eigenvalues --   -0.69574  -0.67579  -0.67082  -0.66122  -0.66121
 Alpha  occ. eigenvalues --   -0.64061  -0.63760  -0.63428  -0.63368  -0.62198
 Alpha  occ. eigenvalues --   -0.62190  -0.61964  -0.61357  -0.60598  -0.60273
 Alpha  occ. eigenvalues --   -0.59836  -0.59441  -0.59299  -0.58897  -0.58409
 Alpha  occ. eigenvalues --   -0.58170  -0.57189  -0.56801  -0.55211  -0.54213
 Alpha  occ. eigenvalues --   -0.54141  -0.53796  -0.53720  -0.53453  -0.53240
 Alpha  occ. eigenvalues --   -0.52595  -0.52559  -0.52075  -0.51857  -0.51843
 Alpha  occ. eigenvalues --   -0.51396  -0.50874  -0.50768  -0.50211  -0.49778
 Alpha  occ. eigenvalues --   -0.49643  -0.49217  -0.49093  -0.48826  -0.48622
 Alpha  occ. eigenvalues --   -0.48351  -0.48287  -0.47979  -0.47803  -0.47487
 Alpha  occ. eigenvalues --   -0.47176  -0.47124  -0.47063  -0.47008  -0.46752
 Alpha  occ. eigenvalues --   -0.46520  -0.46355  -0.45957  -0.45842  -0.45740
 Alpha  occ. eigenvalues --   -0.45644  -0.45540  -0.45364  -0.45309  -0.44997
 Alpha  occ. eigenvalues --   -0.44628  -0.44555  -0.44376  -0.44359  -0.44196
 Alpha  occ. eigenvalues --   -0.44020  -0.43942  -0.43677  -0.43586  -0.43537
 Alpha  occ. eigenvalues --   -0.43392  -0.43173  -0.43034  -0.42844  -0.42836
 Alpha  occ. eigenvalues --   -0.42503  -0.42439  -0.42310  -0.42266  -0.41926
 Alpha  occ. eigenvalues --   -0.41905  -0.41599  -0.41447  -0.41404  -0.41276
 Alpha  occ. eigenvalues --   -0.41150  -0.41038  -0.40881  -0.40649  -0.40526
 Alpha  occ. eigenvalues --   -0.40258  -0.39975  -0.39746  -0.39689  -0.39536
 Alpha  occ. eigenvalues --   -0.39343  -0.39251  -0.39117  -0.38855  -0.38831
 Alpha  occ. eigenvalues --   -0.38781  -0.38768  -0.38649  -0.38382  -0.38347
 Alpha  occ. eigenvalues --   -0.38266  -0.37737  -0.37702  -0.37654  -0.37605
 Alpha  occ. eigenvalues --   -0.37402  -0.37107  -0.37076  -0.36983  -0.36829
 Alpha  occ. eigenvalues --   -0.36828  -0.36774  -0.36717  -0.36706  -0.36359
 Alpha  occ. eigenvalues --   -0.35994  -0.35932  -0.35788  -0.35661  -0.35373
 Alpha  occ. eigenvalues --   -0.34936  -0.34366  -0.34204  -0.34071  -0.33986
 Alpha  occ. eigenvalues --   -0.33425  -0.33215  -0.32852  -0.32449  -0.32192
 Alpha  occ. eigenvalues --   -0.32068  -0.31645  -0.31630  -0.31427  -0.31184
 Alpha  occ. eigenvalues --   -0.30999  -0.30909  -0.29480  -0.29315  -0.29115
 Alpha  occ. eigenvalues --   -0.29085  -0.28655  -0.28341  -0.27132  -0.26757
 Alpha  occ. eigenvalues --   -0.26602  -0.26119  -0.25868  -0.25436  -0.25345
 Alpha  occ. eigenvalues --   -0.25314  -0.24774  -0.24335  -0.21303  -0.20839
 Alpha  occ. eigenvalues --   -0.18710  -0.18493
 Alpha virt. eigenvalues --   -0.11133  -0.11009  -0.05337  -0.05313  -0.03565
 Alpha virt. eigenvalues --   -0.03162  -0.02048  -0.01856  -0.01433  -0.00821
 Alpha virt. eigenvalues --    0.00118   0.00807   0.00968   0.00985   0.02108

 Mulliken charges:
               1
     1  Mg  11.999671
     2  C    5.972542
     3  C    5.990925
     4  C    6.030822
     5  C    6.007762
     6  N    6.976700
     7  C    6.026134
     8  C    5.996427
     9  C    6.001944
    10  C    5.987917
    11  C    6.001987
    12  C    5.998606
    13  C    5.994280
    14  H    1.001941
    15  N    7.007885
    16  C    5.968388
    17  C    5.972694
    18  C    5.997924
    19  C    5.955491
    20  C    6.004511
    21  C    5.987770
    22  O    7.984441
    23  C    6.001714
    24  N    7.008468
    25  C    5.960700
    26  C    6.010145
    27  C    5.988772
    28  C    6.031951
    29  C    5.999942
    30  C    5.993485
    31  C    6.001969
    32  N    7.000539
    33  C    6.030217
    34  C    6.024224
    35  C    6.001264
    36  C    6.035366
    37  C    6.001302
    38  C    6.015918
    39  O    8.032907
    40  C    6.006702
    41  C    6.003897
    42  O    8.001225
    43  O    8.002184
    44  C    6.000071
    45  H    0.986759
    46  H    0.994905
    47  H    1.015766
    48  H    0.995098
    49  H    1.000881
    50  H    0.995046
    51  H    0.986120
    52  H    1.002874
    53  H    0.997196
    54  H    1.007790
    55  H    1.009909
    56  H    0.993116
    57  H    0.982633
    58  H    0.985781
    59  H    0.982101
    60  H    0.989727
    61  H    0.989089
    62  H    0.992466
    63  H    0.999562
    64  H    1.006551
    65  H    1.002851
    66  H    1.004936
    67  H    0.991170
    68  H    0.994493
    69  H    1.008906
    70  H    1.004840
    71  H    1.005635
    72  H    0.997471
    73  H    1.014854
    74  H    1.015477
    75  H    1.012958
    76  H    1.005792
    77  H    1.004592
    78  H    1.004070
    79  H    0.998862
    80  Mg  12.000020
    81  C    5.999894
    82  C    6.000138
    83  C    6.000037
    84  C    5.999969
    85  N    6.999997
    86  C    6.000187
    87  C    5.999967
    88  C    6.000058
    89  C    5.999772
    90  C    6.000032
    91  C    5.999984
    92  C    6.000018
    93  H    0.999976
    94  N    7.000011
    95  C    5.999736
    96  C    5.999824
    97  C    5.999878
    98  C    5.999875
    99  C    6.000098
   100  C    5.999917
   101  O    7.999868
   102  C    6.000066
   103  N    6.999976
   104  C    5.999835
   105  C    6.000041
   106  C    5.999943
   107  C    6.000204
   108  C    6.000008
   109  C    5.999970
   110  C    5.999985
   111  N    6.999989
   112  C    6.000245
   113  C    6.000215
   114  C    6.000069
   115  C    6.000117
   116  C    5.999965
   117  C    6.000131
   118  O    8.000272
   119  C    5.999940
   120  C    6.000028
   121  O    8.000036
   122  O    8.000006
   123  C    5.999994
   124  H    0.999878
   125  H    0.999971
   126  H    1.000134
   127  H    0.999991
   128  H    0.999958
   129  H    0.999920
   130  H    0.999915
   131  H    1.000002
   132  H    1.000036
   133  H    0.999988
   134  H    0.999983
   135  H    1.000000
   136  H    0.999813
   137  H    0.999830
   138  H    0.999823
   139  H    0.999955
   140  H    0.999863
   141  H    0.999907
   142  H    1.000024
   143  H    1.000028
   144  H    1.000013
   145  H    1.000018
   146  H    0.999967
   147  H    0.999973
   148  H    1.000095
   149  H    1.000024
   150  H    1.000012
   151  H    1.000079
   152  H    1.000134
   153  H    1.000138
   154  H    1.000106
   155  H    1.000068
   156  H    1.000012
   157  H    1.000009
   158  H    1.000044
 Sum of Mulliken charges = 624.00000

 Dipole moment (field-independent basis, Debye):
    X=              6.7838    Y=              5.9770    Z=              4.5028  Tot=             10.1005
 Quadrupole moment (field-independent basis, Debye-Ang):
   XX=           -279.9627   YY=              3.8468   ZZ=             -3.0103
   XY=           -127.5855   XZ=            -98.9398   YZ=              1.7748

 Normal termination of Gaussian 16 at Wed Oct 13 23:34:01 2021.
