 Gaussian 16, Revision A.03,
 Gaussian 16:  ES64L-G16RevA.03 25-Dec-2016

 --------------------------------------------------------
 #p PBE1PBE/Def2SVP td=(nstates=5) density=(transition=1)
 --------------------------------------------------------

 --------------------------------
 TDDFT excited states in gaussian
 --------------------------------
 Symbolic Z-matrix:
 Charge =  0 Multiplicity = 1

                         Standard orientation:
 ---------------------------------------------------------------------
 Center     Atomic      Atomic             Coordinates (Angstroms)
 Number     Number       Type             X           Y           Z
 ---------------------------------------------------------------------
      1         12           0        0.692943    0.027116   -0.401252
      2          6           0       -2.747221    0.227203   -0.365613
      3          6           0        0.364015   -3.361329   -0.058770
      4          6           0        4.055263   -0.153033   -0.142877
      5          6           0        0.900055    3.489477   -0.159819
      6          7           0       -1.088119   -1.349616   -0.095723
      7          6           0       -2.320192   -1.091238   -0.311911
      8          6           0       -3.334355   -2.348116   -0.301261
      9          6           0       -2.294130   -3.464315    0.108181
     10          6           0       -0.890074   -2.693895    0.071437
     11          6           0       -2.486841   -4.068921    1.596268
     12          6           0       -4.080993   -2.635523   -1.675392
     13          6           0       -5.520668   -3.258017   -1.608663
     14          1           0       -5.971006   -3.767644   -0.272961
     15          7           0        2.002729   -1.493589   -0.220669
     16          6           0        1.691132   -2.909160   -0.173313
     17          6           0        2.957288   -3.633659   -0.138161
     18          6           0        4.033557   -2.716056   -0.048167
     19          6           0        3.392278   -1.388341   -0.180657
     20          6           0        2.888982   -5.116188   -0.219940
     21          6           0        5.561656   -2.942805    0.027770
     22          8           0        6.385234   -2.094523    0.201993
     23          6           0        5.998199   -4.421686    0.048032
     24          7           0        2.313041    1.429985   -0.071663
     25          6           0        3.575402    1.148517    0.002470
     26          6           0        4.417645    2.385818    0.424309
     27          6           0        3.424624    3.566837    0.306276
     28          6           0        2.111497    2.814849   -0.014614
     29          6           0        5.006594    2.199915    1.838901
     30          6           0        3.868696    4.617280   -0.757462
     31          6           0        5.082740    5.471827   -0.358680
     32          7           0       -0.637521    1.599670   -0.284529
     33          6           0       -0.388917    2.960678   -0.294188
     34          6           0       -1.671560    3.611013   -0.351761
     35          6           0       -2.686093    2.607445   -0.342394
     36          6           0       -1.933326    1.401584   -0.336509
     37          6           0       -1.872864    5.013471   -0.345509
     38          6           0       -4.077561    2.296115   -0.424345
     39          8           0       -5.064828    3.090143   -0.404312
     40          6           0       -4.153672    0.723388   -0.321545
     41          6           0       -4.931650    0.405347    0.856752
     42          8           0       -4.483259    0.389067    2.002801
     43          8           0       -6.239401    0.292159    0.458629
     44          6           0       -7.186522    0.225261    1.591593
     45          1           0        0.290869   -4.442050    0.076245
     46          1           0        5.137564   -0.290119   -0.082501
     47          1           0        1.022413    4.575008   -0.154385
     48          1           0       -3.997608   -2.129507    0.536030
     49          1           0       -2.358277   -4.306362   -0.580695
     50          1           0       -3.079129   -3.357982    2.173042
     51          1           0       -1.512712   -4.205365    2.065648
     52          1           0       -2.976795   -5.040791    1.663940
     53          1           0       -3.431330   -3.356608   -2.170739
     54          1           0       -4.017395   -1.854232   -2.433564
     55          1           0       -5.678113   -4.077437   -2.309887
     56          1           0       -6.252379   -2.480525   -1.828417
     57          1           0        2.723987   -5.548357    0.767445
     58          1           0        3.709576   -5.549881   -0.791636
     59          1           0        2.021951   -5.356164   -0.834923
     60          1           0        5.924559   -4.930810   -0.913448
     61          1           0        5.320236   -4.832822    0.795303
     62          1           0        6.998182   -4.616624    0.434357
     63          1           0        5.174266    2.429876   -0.358707
     64          1           0        3.293406    4.031857    1.283304
     65          1           0        4.469369    1.508455    2.488403
     66          1           0        5.038186    3.067405    2.498953
     67          1           0        6.020831    1.833585    1.680331
     68          1           0        3.052849    5.321378   -0.915020
     69          1           0        4.070616    4.118164   -1.705807
     70          1           0        5.459057    5.085805    0.588682
     71          1           0        4.731737    6.455972   -0.047905
     72          1           0        5.872342    5.641834   -1.090218
     73          1           0       -1.130794    5.397201   -1.045746
     74          1           0       -1.697428    5.522949    0.601849
     75          1           0       -2.920196    5.213012   -0.574510
     76          1           0       -4.725278    0.450859   -1.209118
     77          1           0       -7.139114    1.198388    2.081153
     78          1           0       -7.005620   -0.643929    2.223088
     79          1           0       -8.184909    0.107701    1.169992
 ---------------------------------------------------------------------

 SCF Done:  E(RPBE1PBE) =  -2033.70266351     A.U. after   16 cycles

 Excitation energies and oscillator strengths:

 Excited State   1:      Singlet-A      1.9096 eV  649.27 nm  f=0.3727  <S**2>=0.000
     155 ->158        -0.19437
     156 ->157         0.68535
 This state for optimization and/or second-order correction.
 Total Energy, E(TD-HF/TD-DFT) =  -2033.63248777
 Copying the excited state density for this state as the 1-particle RhoCI density.

 Excited State   2:      Singlet-A      2.2083 eV  561.44 nm  f=0.1063  <S**2>=0.000
     155 ->157         0.65637
     156 ->158         0.25135

 Excited State   3:      Singlet-A      2.9533 eV  419.81 nm  f=0.0002  <S**2>=0.000
     153 ->157         0.52416
     153 ->159        -0.17526
     154 ->157        -0.40191

 Excited State   4:      Singlet-A      3.1282 eV  396.34 nm  f=0.0019  <S**2>=0.000
     152 ->157        -0.17261
     153 ->157         0.41914
     154 ->157         0.53123

 Excited State   5:      Singlet-A      3.2609 eV  380.21 nm  f=0.0051  <S**2>=0.000
     151 ->157         0.54455
     151 ->159         0.13170
     152 ->157         0.38657
     154 ->157         0.11284

 The electronic state is 1-A.
 Alpha  occ. eigenvalues --  -46.91812 -19.25458 -19.20190 -19.19540 -19.18666
 Alpha  occ. eigenvalues --  -14.41599 -14.41075 -14.39325 -14.38664 -10.35545
 Alpha  occ. eigenvalues --  -10.33243 -10.32047 -10.29456 -10.28486 -10.28396
 Alpha  occ. eigenvalues --  -10.28200 -10.28174 -10.28119 -10.27984 -10.26886
 Alpha  occ. eigenvalues --  -10.26836 -10.26755 -10.26737 -10.26692 -10.26009
 Alpha  occ. eigenvalues --  -10.25602 -10.25441 -10.25392 -10.25377 -10.25292
 Alpha  occ. eigenvalues --  -10.24970 -10.24787 -10.24704 -10.24430 -10.24392
 Alpha  occ. eigenvalues --  -10.24233 -10.23586 -10.23424 -10.23124 -10.22977
 Alpha  occ. eigenvalues --  -10.22844 -10.22401 -10.22212  -3.14003  -1.86837
 Alpha  occ. eigenvalues --   -1.86382  -1.86230  -1.10280  -1.07109  -1.02034
 Alpha  occ. eigenvalues --   -1.01594  -1.00010  -0.98980  -0.98271  -0.95335
 Alpha  occ. eigenvalues --   -0.86949  -0.83608  -0.82591  -0.82036  -0.81824
 Alpha  occ. eigenvalues --   -0.81310  -0.81100  -0.78204  -0.77725  -0.76574
 Alpha  occ. eigenvalues --   -0.75816  -0.75364  -0.74585  -0.72760  -0.71709
 Alpha  occ. eigenvalues --   -0.70672  -0.70045  -0.69176  -0.66699  -0.65902
 Alpha  occ. eigenvalues --   -0.63748  -0.63140  -0.62670  -0.61345  -0.60191
 Alpha  occ. eigenvalues --   -0.59802  -0.59299  -0.58635  -0.56144  -0.54477
 Alpha  occ. eigenvalues --   -0.53971  -0.53687  -0.52899  -0.52461  -0.52153
 Alpha  occ. eigenvalues --   -0.50542  -0.50173  -0.49769  -0.49102  -0.48570
 Alpha  occ. eigenvalues --   -0.47860  -0.47650  -0.47362  -0.47157  -0.46752
 Alpha  occ. eigenvalues --   -0.46478  -0.45951  -0.45592  -0.45440  -0.45288
 Alpha  occ. eigenvalues --   -0.44810  -0.44092  -0.43711  -0.43578  -0.43145
 Alpha  occ. eigenvalues --   -0.43091  -0.42794  -0.42470  -0.42449  -0.41657
 Alpha  occ. eigenvalues --   -0.41275  -0.41145  -0.41012  -0.40713  -0.40376
 Alpha  occ. eigenvalues --   -0.39905  -0.39687  -0.39190  -0.39068  -0.38918
 Alpha  occ. eigenvalues --   -0.38493  -0.38199  -0.37883  -0.37776  -0.37581
 Alpha  occ. eigenvalues --   -0.37495  -0.37114  -0.36610  -0.36476  -0.36286
 Alpha  occ. eigenvalues --   -0.36069  -0.35481  -0.35144  -0.34673  -0.34316
 Alpha  occ. eigenvalues --   -0.33170  -0.32937  -0.32610  -0.31962  -0.31482
 Alpha  occ. eigenvalues --   -0.31393  -0.29560  -0.29091  -0.28581  -0.26959
 Alpha  occ. eigenvalues --   -0.26244  -0.25772  -0.25385  -0.24955  -0.20611
 Alpha  occ. eigenvalues --   -0.18832
 Alpha virt. eigenvalues --   -0.10927  -0.05136  -0.04218  -0.02272  -0.00112
 Alpha virt. eigenvalues --    0.00881   0.01512   0.02419   0.03459   0.04380
 Alpha virt. eigenvalues --    0.05220   0.05841   0.06302   0.06520   0.07416

 Mulliken charges:
               1
     1  Mg  11.998875
     2  C    6.010425
     3  C    5.983810
     4  C    5.992921
     5  C    6.015768
     6  N    7.004216
     7  C    5.972849
     8  C    6.009541
     9  C    5.991266
    10  C    6.037230
    11  C    5.995974
    12  C    6.005619
    13  C    5.999465
    14  H    0.996803
    15  N    6.995065
    16  C    6.040038
    17  C    6.016506
    18  C    6.021505
    19  C    6.019865
    20  C    5.996036
    21  C    6.013641
    22  O    8.026466
    23  C    5.996290
    24  N    6.998629
    25  C    6.025938
    26  C    5.997104
    27  C    6.011519
    28  C    5.963788
    29  C    5.997268
    30  C    6.004613
    31  C    5.997975
    32  N    7.002769
    33  C    5.959618
    34  C    5.974734
    35  C    5.994340
    36  C    5.979695
    37  C    6.003050
    38  C    5.981559
    39  O    7.968471
    40  C    5.999397
    41  C    5.995664
    42  O    7.992540
    43  O    7.999487
    44  C    6.001701
    45  H    1.007135
    46  H    1.005870
    47  H    0.992422
    48  H    1.001942
    49  H    1.002724
    50  H    1.012473
    51  H    0.995639
    52  H    1.006299
    53  H    0.990489
    54  H    1.004389
    55  H    0.996855
    56  H    1.004163
    57  H    1.018624
    58  H    1.014463
    59  H    1.014436
    60  H    1.009162
    61  H    1.003740
    62  H    1.014031
    63  H    0.996704
    64  H    0.996923
    65  H    0.997785
    66  H    1.009624
    67  H    0.996521
    68  H    1.004883
    69  H    0.992531
    70  H    0.994696
    71  H    1.000821
    72  H    0.995874
    73  H    0.983512
    74  H    0.976017
    75  H    0.986849
    76  H    0.992805
    77  H    1.000691
    78  H    0.993351
    79  H    0.995519
 Sum of Mulliken charges = 312.00000

 Dipole moment (field-independent basis, Debye):
    X=              6.5453    Y=             -7.7419    Z=              0.4079  Tot=             10.1462
 Quadrupole moment (field-independent basis, Debye-Ang):
   XX=              6.5168   YY=             -0.3057   ZZ=             -0.1640
   XY=             -6.0310   XZ=             -0.5170   YZ=              1.0900

 Normal termination of Gaussian 16 at Wed Oct 13 19:56:06 2021.
