 Gaussian 16, Revision A.03,
 Gaussian 16:  ES64L-G16RevA.03 25-Dec-2016

 --------------------------------------------------------
 #p PBE1PBE/Def2SVP td=(nstates=5) density=(transition=1)
 --------------------------------------------------------

 --------------------------------
 TDDFT excited states in gaussian
 --------------------------------
 Symbolic Z-matrix:
 Charge =  0 Multiplicity = 1

                         Standard orientation:
 ---------------------------------------------------------------------
 Center     Atomic      Atomic             Coordinates (Angstroms)
 Number     Number       Type             X           Y           Z
 ---------------------------------------------------------------------
      1         12           0       12.948381   -0.826873   -0.255705
      2          6           0       15.432747    1.671163    0.376715
      3          6           0       10.818975    1.015431    1.671627
      4          6           0       10.888873   -3.232478   -0.423379
      5          6           0       15.545069   -2.972089   -1.150652
      6          7           0       13.209017    1.084343    0.830558
      7          6           0       14.192193    1.971915    0.943478
      8          6           0       13.758147    3.287300    1.656737
      9          6           0       12.517797    2.726181    2.486602
     10          6           0       12.135248    1.559712    1.592774
     11          6           0       12.898546    2.187049    3.861691
     12          6           0       13.314993    4.395088    0.642759
     13          6           0       13.189420    5.804524    1.228487
     14          1           0       13.556412    6.942662    0.399447
     15          7           0       11.003105   -0.874190    0.085634
     16          6           0       10.300628   -0.036340    0.885522
     17          6           0        8.893010   -0.482581    0.807031
     18          6           0        8.863300   -1.763000    0.046941
     19          6           0       10.271594   -2.024664   -0.106740
     20          6           0        7.748458    0.301913    1.371230
     21          6           0        7.743473   -2.620846   -0.451276
     22          8           0        7.937158   -3.807625   -0.885575
     23          6           0        6.384806   -2.061155   -0.333750
     24          7           0       13.186699   -2.885265   -0.508420
     25          6           0       12.127191   -3.695841   -0.605335
     26          6           0       12.528704   -5.067031   -1.062024
     27          6           0       14.062256   -4.957893   -1.493373
     28          6           0       14.310358   -3.477996   -1.110466
     29          6           0       12.367975   -6.190431   -0.028510
     30          6           0       14.423896   -5.419288   -2.927511
     31          6           0       13.806146   -4.480668   -3.939675
     32          7           0       15.092399   -0.655098   -0.546780
     33          6           0       15.980653   -1.682153   -0.897261
     34          6           0       17.338271   -1.107584   -0.868778
     35          6           0       17.145702    0.218141   -0.485092
     36          6           0       15.758438    0.449633   -0.261031
     37          6           0       18.547679   -1.814252   -1.118553
     38          6           0       17.791691    1.486422   -0.188413
     39          8           0       18.939954    1.920087   -0.292915
     40          6           0       16.721907    2.444865    0.499174
     41          6           0       16.806210    3.783261   -0.182661
     42          8           0       16.466212    3.915807   -1.376059
     43          8           0       17.044063    4.734592    0.733274
     44          6           0       17.110108    6.090966    0.126608
     45          1           0       10.140427    1.384774    2.443054
     46          1           0       10.201922   -4.063046   -0.598572
     47          1           0       16.396439   -3.558942   -1.500259
     48          1           0       14.502792    3.703190    2.335680
     49          1           0       11.702560    3.447633    2.537776
     50          1           0       13.980144    2.159087    3.993160
     51          1           0       12.483679    1.179803    3.904501
     52          1           0       12.399388    2.750474    4.650469
     53          1           0       12.278938    4.222178    0.351635
     54          1           0       13.984496    4.420599   -0.217729
     55          1           0       13.667597    5.873994    2.205948
     56          1           0       12.135556    5.998806    1.428049
     57          1           0        8.095148    1.110447    2.013588
     58          1           0        7.205813   -0.364104    2.041802
     59          1           0        7.077704    0.666506    0.593097
     60          1           0        6.174522   -1.843711    0.713651
     61          1           0        5.722163   -2.775387   -0.821220
     62          1           0        6.349899   -1.105803   -0.858185
     63          1           0       11.937559   -5.381815   -1.921026
     64          1           0       14.711238   -5.553450   -0.850871
     65          1           0       11.733762   -7.009892   -0.367571
     66          1           0       11.980683   -5.750439    0.890023
     67          1           0       13.302996   -6.629188    0.318829
     68          1           0       14.017481   -6.411544   -3.120384
     69          1           0       15.498065   -5.459928   -3.108507
     70          1           0       12.791846   -4.865106   -4.040842
     71          1           0       14.341711   -4.537820   -4.887892
     72          1           0       13.732447   -3.465808   -3.548379
     73          1           0       19.154268   -1.166578   -1.751432
     74          1           0       18.354273   -2.771767   -1.601628
     75          1           0       18.928416   -1.927928   -0.103677
     76          1           0       16.987567    2.505392    1.554107
     77          1           0       18.072221    6.520832    0.405512
     78          1           0       16.209699    6.616835    0.444619
     79          1           0       17.174992    6.129774   -0.961337
     80         12           0      -13.613121   -0.540299    0.184560
     81          6           0      -13.126908    2.902411   -0.862018
     82          6           0      -12.197356    0.394226    3.097833
     83          6           0      -13.995455   -3.587544    1.062573
     84          6           0      -14.753807   -1.290643   -3.082349
     85          7           0      -12.757873    1.545526    1.033928
     86          6           0      -12.766865    2.763082    0.464426
     87          6           0      -12.324534    3.831014    1.482973
     88          6           0      -11.625620    2.841609    2.527544
     89          6           0      -12.262515    1.544692    2.251988
     90          6           0      -10.117353    2.917945    2.695683
     91          6           0      -13.568949    4.589641    1.975756
     92          6           0      -13.242567    6.027929    2.475191
     93          1           0      -11.837939    6.745675    2.216780
     94          7           0      -13.199170   -1.510408    1.903342
     95          6           0      -12.526311   -0.995670    2.994876
     96          6           0      -12.341257   -2.076462    3.958449
     97          6           0      -12.934716   -3.238579    3.406633
     98          6           0      -13.400492   -2.789681    2.063934
     99          6           0      -11.653884   -1.929068    5.242482
    100          6           0      -13.123300   -4.713115    4.044001
    101          8           0      -13.806230   -5.544804    3.511741
    102          6           0      -12.697364   -5.024686    5.489943
    103          7           0      -14.032086   -2.247910   -0.971695
    104          6           0      -14.280507   -3.372427   -0.305181
    105          6           0      -14.858836   -4.478565   -1.146173
    106          6           0      -15.445739   -3.626438   -2.297914
    107          6           0      -14.550104   -2.346151   -2.171963
    108          6           0      -13.780523   -5.532218   -1.680195
    109          6           0      -17.006626   -3.350089   -2.238476
    110          6           0      -17.953494   -4.386695   -1.566603
    111          7           0      -13.793691    0.493880   -1.634990
    112          6           0      -14.308361    0.126674   -2.834586
    113          6           0      -14.448155    1.213357   -3.694054
    114          6           0      -13.955911    2.266738   -2.977705
    115          6           0      -13.579580    1.831894   -1.722260
    116          6           0      -15.081805    1.185644   -5.082248
    117          6           0      -13.742153    3.717329   -3.090961
    118          8           0      -13.776207    4.494308   -4.033396
    119          6           0      -13.259705    4.166991   -1.643148
    120          6           0      -12.039508    4.936888   -1.810353
    121          8           0      -10.905222    4.495623   -2.020576
    122          8           0      -12.407565    6.226657   -1.958185
    123          6           0      -11.343918    7.049678   -2.505338
    124          1           0      -11.578629    0.657406    3.958369
    125          1           0      -14.074159   -4.627849    1.383372
    126          1           0      -15.201174   -1.551867   -4.043449
    127          1           0      -11.543116    4.473594    1.077098
    128          1           0      -11.986109    3.150715    3.507717
    129          1           0       -9.832644    3.295577    3.677273
    130          1           0       -9.685527    3.563504    1.931140
    131          1           0       -9.603229    1.970590    2.533363
    132          1           0      -13.931381    4.071977    2.864162
    133          1           0      -14.395323    4.597159    1.265255
    134          1           0      -13.500203    6.158158    3.526760
    135          1           0      -14.079263    6.596025    2.068852
    136          1           0      -11.666066   -0.896787    5.591621
    137          1           0      -10.635636   -2.272331    5.058805
    138          1           0      -12.091876   -2.514344    6.051307
    139          1           0      -13.270341   -4.484969    6.243898
    140          1           0      -11.615868   -4.887039    5.489641
    141          1           0      -12.789528   -6.094416    5.679602
    142          1           0      -15.559706   -4.957570   -0.462897
    143          1           0      -15.266044   -4.057152   -3.282648
    144          1           0      -14.279746   -6.477953   -1.470575
    145          1           0      -12.825237   -5.505233   -1.154803
    146          1           0      -13.572902   -5.497515   -2.748995
    147          1           0      -17.359035   -3.135528   -3.246373
    148          1           0      -17.029906   -2.497413   -1.559637
    149          1           0      -18.019570   -4.201615   -0.494739
    150          1           0      -17.531315   -5.344521   -1.872632
    151          1           0      -18.953624   -4.371672   -1.998366
    152          1           0      -15.814459    0.379910   -5.030552
    153          1           0      -14.382137    0.904575   -5.868831
    154          1           0      -15.544595    2.155318   -5.264829
    155          1           0      -14.059245    4.784799   -1.232374
    156          1           0      -11.633564    8.089825   -2.651915
    157          1           0      -10.798265    6.640979   -3.355985
    158          1           0      -10.538407    7.160108   -1.778533
 ---------------------------------------------------------------------

 SCF Done:  E(RPBE1PBE) =  -4067.35664131     A.U. after   16 cycles

 Excitation energies and oscillator strengths:

 Excited State   1:      Singlet-A      1.8415 eV  673.29 nm  f=0.3794  <S**2>=0.000
     309 -> 315        0.16213
     312 -> 313        0.69320
     312 <- 313       -0.11104
 This state for optimization and/or second-order correction.
 Total Energy, E(TD-HF/TD-DFT) =  -4067.28896876
 Copying the excited state density for this state as the 1-particle RhoCI density.

 Excited State   2:      Singlet-A      1.9474 eV  636.67 nm  f=0.3549  <S**2>=0.000
     310 -> 316        0.18532
     311 -> 314        0.68728

 Excited State   3:      Singlet-A      1.9653 eV  630.87 nm  f=0.0000  <S**2>=0.000
     311 -> 313        0.70709

 Excited State   4:      Singlet-A      2.0206 eV  613.60 nm  f=0.0000  <S**2>=0.000
     312 -> 314        0.70710

 Excited State   5:      Singlet-A      2.1930 eV  565.35 nm  f=0.0899  <S**2>=0.000
     309 -> 313        0.65168
     312 -> 315       -0.24155

 The electronic state is 1-A.
 Alpha  occ. eigenvalues --  -46.92800 -46.91167 -19.26901 -19.25619 -19.20546
 Alpha  occ. eigenvalues --  -19.19358 -19.19281 -19.19084 -19.18982 -19.18393
 Alpha  occ. eigenvalues --  -14.41923 -14.40936 -14.40823 -14.40782 -14.39481
 Alpha  occ. eigenvalues --  -14.39027 -14.38517 -14.38232 -10.36084 -10.35275
 Alpha  occ. eigenvalues --  -10.33985 -10.32464 -10.32229 -10.31550 -10.29124
 Alpha  occ. eigenvalues --  -10.28884 -10.28633 -10.28613 -10.28283 -10.28196
 Alpha  occ. eigenvalues --  -10.28160 -10.28112 -10.28080 -10.27979 -10.27840
 Alpha  occ. eigenvalues --  -10.27582 -10.27546 -10.27522 -10.27234 -10.27013
 Alpha  occ. eigenvalues --  -10.26793 -10.26711 -10.26560 -10.26546 -10.26039
 Alpha  occ. eigenvalues --  -10.25995 -10.25970 -10.25881 -10.25856 -10.25784
 Alpha  occ. eigenvalues --  -10.25430 -10.25352 -10.25333 -10.25327 -10.25280
 Alpha  occ. eigenvalues --  -10.25248 -10.25231 -10.25231 -10.25228 -10.25210
 Alpha  occ. eigenvalues --  -10.25188 -10.25175 -10.24868 -10.24828 -10.24754
 Alpha  occ. eigenvalues --  -10.24482 -10.24480 -10.24283 -10.24258 -10.23951
 Alpha  occ. eigenvalues --  -10.23769 -10.23673 -10.23628 -10.23590 -10.23581
 Alpha  occ. eigenvalues --  -10.23522 -10.23497 -10.23253 -10.23156 -10.23053
 Alpha  occ. eigenvalues --  -10.22944 -10.22894 -10.22571 -10.22378 -10.22063
 Alpha  occ. eigenvalues --  -10.21783  -3.14883  -3.13484  -1.87725  -1.87275
 Alpha  occ. eigenvalues --   -1.87091  -1.86307  -1.85872  -1.85718  -1.11399
 Alpha  occ. eigenvalues --   -1.11349  -1.07203  -1.04448  -1.03345  -1.01809
 Alpha  occ. eigenvalues --   -1.01514  -1.01426  -1.00485  -0.99810  -0.99205
 Alpha  occ. eigenvalues --   -0.99149  -0.98420  -0.98344  -0.97876  -0.97065
 Alpha  occ. eigenvalues --   -0.86847  -0.86307  -0.83809  -0.83432  -0.83267
 Alpha  occ. eigenvalues --   -0.83016  -0.82568  -0.82448  -0.82180  -0.81951
 Alpha  occ. eigenvalues --   -0.81773  -0.81413  -0.81291  -0.80217  -0.79211
 Alpha  occ. eigenvalues --   -0.78639  -0.78201  -0.77513  -0.77130  -0.76848
 Alpha  occ. eigenvalues --   -0.76667  -0.75943  -0.75870  -0.75125  -0.74918
 Alpha  occ. eigenvalues --   -0.74503  -0.73079  -0.72734  -0.71522  -0.71208
 Alpha  occ. eigenvalues --   -0.71200  -0.71023  -0.70220  -0.70157  -0.69632
 Alpha  occ. eigenvalues --   -0.69203  -0.67354  -0.67218  -0.66107  -0.66066
 Alpha  occ. eigenvalues --   -0.64195  -0.64011  -0.63209  -0.63206  -0.62239
 Alpha  occ. eigenvalues --   -0.62095  -0.61529  -0.61117  -0.59968  -0.59684
 Alpha  occ. eigenvalues --   -0.59582  -0.59396  -0.59175  -0.59073  -0.58743
 Alpha  occ. eigenvalues --   -0.58298  -0.56851  -0.56489  -0.55228  -0.54920
 Alpha  occ. eigenvalues --   -0.54284  -0.54050  -0.53882  -0.53599  -0.53095
 Alpha  occ. eigenvalues --   -0.53007  -0.52557  -0.52176  -0.52081  -0.51779
 Alpha  occ. eigenvalues --   -0.51046  -0.50849  -0.50350  -0.50064  -0.50029
 Alpha  occ. eigenvalues --   -0.49856  -0.49811  -0.49178  -0.49056  -0.48602
 Alpha  occ. eigenvalues --   -0.48438  -0.48267  -0.48078  -0.47930  -0.47728
 Alpha  occ. eigenvalues --   -0.47605  -0.47530  -0.47283  -0.47076  -0.46952
 Alpha  occ. eigenvalues --   -0.46874  -0.46394  -0.46161  -0.46123  -0.45977
 Alpha  occ. eigenvalues --   -0.45835  -0.45783  -0.45293  -0.45055  -0.45042
 Alpha  occ. eigenvalues --   -0.44788  -0.44610  -0.44458  -0.44327  -0.44104
 Alpha  occ. eigenvalues --   -0.43839  -0.43687  -0.43600  -0.43498  -0.43384
 Alpha  occ. eigenvalues --   -0.43347  -0.43198  -0.43093  -0.42984  -0.42921
 Alpha  occ. eigenvalues --   -0.42694  -0.42313  -0.42268  -0.42135  -0.41927
 Alpha  occ. eigenvalues --   -0.41770  -0.41542  -0.41506  -0.41222  -0.41047
 Alpha  occ. eigenvalues --   -0.40852  -0.40824  -0.40610  -0.40532  -0.40320
 Alpha  occ. eigenvalues --   -0.39918  -0.39877  -0.39480  -0.39280  -0.39198
 Alpha  occ. eigenvalues --   -0.39159  -0.39009  -0.38876  -0.38875  -0.38816
 Alpha  occ. eigenvalues --   -0.38719  -0.38717  -0.38459  -0.38259  -0.38216
 Alpha  occ. eigenvalues --   -0.38115  -0.38053  -0.37868  -0.37837  -0.37598
 Alpha  occ. eigenvalues --   -0.37467  -0.37444  -0.37422  -0.37197  -0.37110
 Alpha  occ. eigenvalues --   -0.36834  -0.36541  -0.36347  -0.36341  -0.36212
 Alpha  occ. eigenvalues --   -0.35941  -0.35755  -0.35565  -0.35458  -0.35385
 Alpha  occ. eigenvalues --   -0.34987  -0.34675  -0.34310  -0.34266  -0.33665
 Alpha  occ. eigenvalues --   -0.33394  -0.33218  -0.33042  -0.32702  -0.32470
 Alpha  occ. eigenvalues --   -0.32359  -0.32232  -0.31717  -0.31683  -0.31234
 Alpha  occ. eigenvalues --   -0.30909  -0.30741  -0.29486  -0.29463  -0.28895
 Alpha  occ. eigenvalues --   -0.28715  -0.28390  -0.28031  -0.26998  -0.26697
 Alpha  occ. eigenvalues --   -0.26615  -0.26201  -0.25974  -0.25571  -0.25333
 Alpha  occ. eigenvalues --   -0.25092  -0.24929  -0.24806  -0.20954  -0.20387
 Alpha  occ. eigenvalues --   -0.18925  -0.18736
 Alpha virt. eigenvalues --   -0.11200  -0.10812  -0.05320  -0.04684  -0.04130
 Alpha virt. eigenvalues --   -0.03663  -0.02152  -0.01870  -0.00488   0.00069
 Alpha virt. eigenvalues --    0.00376   0.00446   0.00474   0.01054   0.02022

 Mulliken charges:
               1
     1  Mg  12.000651
     2  C    5.985397
     3  C    6.011903
     4  C    6.012264
     5  C    5.985570
     6  N    6.991913
     7  C    6.031790
     8  C    5.991678
     9  C    6.008718
    10  C    5.972863
    11  C    6.000793
    12  C    5.996391
    13  C    5.998988
    14  H    0.999633
    15  N    7.003193
    16  C    5.963661
    17  C    5.970803
    18  C    5.984797
    19  C    5.979419
    20  C    6.005144
    21  C    5.985532
    22  O    7.969568
    23  C    6.004865
    24  N    7.000682
    25  C    5.973503
    26  C    6.011257
    27  C    5.988156
    28  C    6.031324
    29  C    5.999538
    30  C    5.996301
    31  C    5.999019
    32  N    6.996723
    33  C    6.043877
    34  C    6.022665
    35  C    6.006181
    36  C    6.028878
    37  C    5.996729
    38  C    6.014469
    39  O    8.030460
    40  C    6.001383
    41  C    6.003391
    42  O    8.004354
    43  O    8.001762
    44  C    5.998754
    45  H    0.992274
    46  H    0.994005
    47  H    1.008860
    48  H    0.999207
    49  H    1.000419
    50  H    0.984537
    51  H    1.004442
    52  H    0.996709
    53  H    1.013175
    54  H    0.994381
    55  H    1.000745
    56  H    1.006571
    57  H    0.980727
    58  H    0.980257
    59  H    0.979499
    60  H    0.994820
    61  H    0.985585
    62  H    0.992874
    63  H    1.000963
    64  H    1.003994
    65  H    1.000058
    66  H    1.005306
    67  H    0.990561
    68  H    1.008983
    69  H    0.997157
    70  H    1.011254
    71  H    1.001395
    72  H    0.997324
    73  H    1.015551
    74  H    1.016488
    75  H    1.018216
    76  H    1.007751
    77  H    1.002868
    78  H    1.005928
    79  H    1.002178
    80  Mg  12.000045
    81  C    6.000443
    82  C    6.000088
    83  C    5.999585
    84  C    5.999815
    85  N    7.000208
    86  C    5.999688
    87  C    6.000110
    88  C    5.999886
    89  C    6.000229
    90  C    5.999847
    91  C    6.000070
    92  C    6.000013
    93  H    1.000203
    94  N    6.999890
    95  C    6.000442
    96  C    6.000189
    97  C    6.000158
    98  C    6.000388
    99  C    5.999949
   100  C    6.000224
   101  O    8.000098
   102  C    5.999911
   103  N    6.999879
   104  C    6.000448
   105  C    5.999851
   106  C    6.000022
   107  C    5.999933
   108  C    6.000060
   109  C    6.000094
   110  C    6.000000
   111  N    7.000056
   112  C    5.999878
   113  C    5.999620
   114  C    6.000120
   115  C    5.999598
   116  C    5.999982
   117  C    5.999740
   118  O    7.999615
   119  C    5.999925
   120  C    5.999913
   121  O    8.000256
   122  O    7.999891
   123  C    5.999968
   124  H    1.000360
   125  H    0.999965
   126  H    0.999746
   127  H    1.000133
   128  H    0.999921
   129  H    1.000135
   130  H    1.000348
   131  H    1.000403
   132  H    0.999794
   133  H    0.999908
   134  H    0.999846
   135  H    0.999809
   136  H    1.000094
   137  H    1.000597
   138  H    1.000036
   139  H    0.999900
   140  H    1.000353
   141  H    1.000037
   142  H    0.999830
   143  H    0.999924
   144  H    0.999847
   145  H    1.000224
   146  H    1.000097
   147  H    0.999878
   148  H    0.999962
   149  H    0.999894
   150  H    0.999941
   151  H    0.999757
   152  H    0.999704
   153  H    0.999811
   154  H    0.999689
   155  H    0.999765
   156  H    0.999740
   157  H    1.000093
   158  H    1.000135
 Sum of Mulliken charges = 624.00000

 Dipole moment (field-independent basis, Debye):
    X=             10.2465    Y=              0.9183    Z=             -1.6832  Tot=             10.4244
 Quadrupole moment (field-independent basis, Debye-Ang):
   XX=            260.5135   YY=              3.2008   ZZ=             -0.3548
   XY=              5.4764   XZ=            -26.1703   YZ=              1.3118

 Normal termination of Gaussian 16 at Thu Oct 14 15:30:30 2021.
