 Gaussian 16, Revision A.03,
 Gaussian 16:  ES64L-G16RevA.03 25-Dec-2016

 --------------------------------------------------------
 #p PBE1PBE/Def2SVP td=(nstates=5) density=(transition=1)
 --------------------------------------------------------

 --------------------------------
 TDDFT excited states in gaussian
 --------------------------------
 Symbolic Z-matrix:
 Charge =  0 Multiplicity = 1

                         Standard orientation:
 ---------------------------------------------------------------------
 Center     Atomic      Atomic             Coordinates (Angstroms)
 Number     Number       Type             X           Y           Z
 ---------------------------------------------------------------------
      1         12           0      -11.370701    0.703981   -0.059063
      2          6           0       -9.884106   -2.360874   -0.539238
      3          6           0      -12.946065   -0.386002    2.779524
      4          6           0      -12.714397    3.888039    0.513357
      5          6           0       -9.217523    2.131024   -2.351131
      6          7           0      -11.185665   -1.140751    1.065220
      7          6           0      -10.672793   -2.364630    0.626846
      8          6           0      -10.879170   -3.464422    1.671423
      9          6           0      -11.972172   -2.788692    2.537885
     10          6           0      -12.005179   -1.289111    2.178311
     11          6           0      -13.332768   -3.516486    2.473241
     12          6           0       -9.583138   -3.790549    2.439734
     13          6           0       -9.285844   -5.305055    2.714745
     14          1           0       -8.544721   -5.609534    3.957707
     15          7           0      -12.665007    1.571508    1.381377
     16          6           0      -13.276252    0.944396    2.412363
     17          6           0      -14.300125    1.739046    3.021974
     18          6           0      -14.356600    2.942651    2.300200
     19          6           0      -13.212857    2.837579    1.302332
     20          6           0      -15.236007    1.244000    4.126547
     21          6           0      -15.339095    4.146180    2.537833
     22          8           0      -16.121078    4.093863    3.521433
     23          6           0      -15.462619    5.391600    1.558394
     24          7           0      -10.806745    2.780973   -0.602059
     25          6           0      -11.600164    3.851375   -0.354198
     26          6           0      -11.214001    5.067348   -1.156589
     27          6           0      -10.064632    4.548583   -2.047439
     28          6           0      -10.038058    3.060297   -1.690110
     29          6           0      -12.396540    5.747359   -1.923158
     30          6           0       -8.698104    5.364020   -1.856825
     31          6           0       -8.360369    6.323596   -3.003768
     32          7           0       -9.891972    0.052142   -1.266190
     33          6           0       -9.079711    0.722791   -2.206947
     34          6           0       -8.341163   -0.267367   -3.001727
     35          6           0       -8.700382   -1.473223   -2.415883
     36          6           0       -9.525341   -1.189236   -1.315121
     37          6           0       -7.402189   -0.077143   -4.138734
     38          6           0       -8.476966   -2.924502   -2.481940
     39          8           0       -7.962615   -3.643375   -3.354474
     40          6           0       -9.278732   -3.572550   -1.282899
     41          6           0      -10.346435   -4.535216   -1.785084
     42          8           0      -11.146841   -4.358687   -2.708974
     43          8           0      -10.154618   -5.648095   -1.021413
     44          6           0      -10.922346   -6.826508   -1.387576
     45          1           0      -13.458595   -0.723312    3.682744
     46          1           0      -13.116719    4.903052    0.534601
     47          1           0       -8.517281    2.515861   -3.095224
     48          1           0      -11.209255   -4.379185    1.178009
     49          1           0      -11.590221   -2.902243    3.552393
     50          1           0      -13.369339   -4.560368    2.161748
     51          1           0      -13.906699   -2.991361    1.709879
     52          1           0      -13.861024   -3.487792    3.425961
     53          1           0       -9.492713   -3.234822    3.372661
     54          1           0       -8.790039   -3.314396    1.862713
     55          1           0       -8.724049   -5.712770    1.874399
     56          1           0      -10.237034   -5.827540    2.825658
     57          1           0      -16.244321    1.374661    3.734347
     58          1           0      -14.951894    1.694044    5.077856
     59          1           0      -15.063639    0.168372    4.163105
     60          1           0      -14.684159    6.090680    1.861730
     61          1           0      -16.444701    5.825731    1.744405
     62          1           0      -15.508493    4.981376    0.549213
     63          1           0      -10.832287    5.817627   -0.464026
     64          1           0      -10.275292    4.469898   -3.113734
     65          1           0      -12.123684    5.986404   -2.950656
     66          1           0      -12.730008    6.669300   -1.447142
     67          1           0      -13.272163    5.101806   -1.868902
     68          1           0       -7.826863    4.711023   -1.807150
     69          1           0       -8.702183    5.879111   -0.896281
     70          1           0       -7.931759    7.241179   -2.600347
     71          1           0       -9.266431    6.566919   -3.558279
     72          1           0       -7.655596    5.916199   -3.728394
     73          1           0       -7.411268    0.982432   -4.394388
     74          1           0       -7.586544   -0.831736   -4.903649
     75          1           0       -6.403749   -0.232047   -3.728401
     76          1           0       -8.625113   -4.073692   -0.568443
     77          1           0      -11.971116   -6.620982   -1.605650
     78          1           0      -10.911395   -7.662661   -0.688440
     79          1           0      -10.496805   -7.276737   -2.284775
     80         12           0       11.646529    0.554700    0.393485
     81          6           0        9.098234   -2.020968   -0.434546
     82          6           0       11.653000    1.144457   -2.934587
     83          6           0       14.012301    2.513512    1.176941
     84          6           0       11.838105   -1.007104    3.586913
     85          7           0       10.538656   -0.384857   -1.432530
     86          6           0        9.458537   -1.249822   -1.481022
     87          6           0        8.760957   -1.324311   -2.844054
     88          6           0        9.874226   -0.662987   -3.713897
     89          6           0       10.775151    0.090650   -2.660629
     90          6           0       10.677708   -1.609630   -4.548877
     91          6           0        7.336337   -0.684725   -2.954931
     92          6           0        6.372996   -1.279549   -3.926980
     93          1           0        5.469714   -0.281191   -4.644040
     94          7           0       12.702078    1.752881   -0.735171
     95          6           0       12.537343    1.928566   -2.125069
     96          6           0       13.352788    3.039680   -2.522989
     97          6           0       13.916711    3.527334   -1.264875
     98          6           0       13.542453    2.603060   -0.256174
     99          6           0       13.407819    3.648211   -3.972992
    100          6           0       14.740568    4.769081   -1.111108
    101          8           0       15.248528    5.099681   -0.011979
    102          6           0       14.980331    5.728921   -2.218725
    103          7           0       12.896274    0.666182    2.041434
    104          6           0       13.830727    1.611914    2.156919
    105          6           0       14.574699    1.603424    3.530782
    106          6           0       13.524939    0.778042    4.364276
    107          6           0       12.707429    0.047606    3.263970
    108          6           0       15.953050    0.871442    3.452354
    109          6           0       12.570180    1.709627    5.222934
    110          6           0       13.187253    2.747958    6.183396
    111          7           0       10.659627   -1.122431    1.415089
    112          6           0       10.822750   -1.558580    2.725012
    113          6           0        9.967042   -2.696469    2.967272
    114          6           0        9.252708   -2.884260    1.777119
    115          6           0        9.759008   -1.963184    0.819384
    116          6           0        9.771979   -3.410683    4.262333
    117          6           0        8.220102   -3.697567    1.148503
    118          8           0        7.490898   -4.598326    1.542012
    119          6           0        8.060262   -3.039747   -0.318849
    120          6           0        8.147254   -4.147528   -1.254780
    121          8           0        9.122329   -4.892978   -1.438660
    122          8           0        6.873452   -4.518412   -1.577879
    123          6           0        6.667331   -5.636710   -2.441235
    124          1           0       11.497081    1.382166   -3.989098
    125          1           0       14.824437    3.172450    1.490498
    126          1           0       11.930955   -1.433093    4.588479
    127          1           0        8.687768   -2.379529   -3.108085
    128          1           0        9.460146    0.146902   -4.313766
    129          1           0       11.657553   -1.693752   -4.078802
    130          1           0       10.841986   -1.179000   -5.536533
    131          1           0       10.286983   -2.618892   -4.677086
    132          1           0        7.479167    0.343728   -3.285344
    133          1           0        6.921344   -0.644263   -1.948191
    134          1           0        5.759267   -1.932964   -3.307234
    135          1           0        6.837886   -2.019594   -4.578517
    136          1           0       12.896135    4.601441   -4.102440
    137          1           0       13.070257    2.928978   -4.718741
    138          1           0       14.483370    3.765140   -4.111414
    139          1           0       15.716351    5.292788   -2.894609
    140          1           0       15.379146    6.627041   -1.746316
    141          1           0       14.006251    5.943980   -2.656807
    142          1           0       14.693489    2.650937    3.809784
    143          1           0       13.939408    0.016632    5.024315
    144          1           0       16.715457    1.636398    3.601691
    145          1           0       16.132943    0.289778    2.548831
    146          1           0       15.904222    0.224982    4.329749
    147          1           0       11.972843    1.077146    5.879205
    148          1           0       11.869790    2.154016    4.515999
    149          1           0       12.793994    3.705325    5.841827
    150          1           0       14.256570    2.696662    5.976384
    151          1           0       12.903890    2.579280    7.222207
    152          1           0       10.231562   -2.754720    5.002012
    153          1           0       10.324899   -4.345937    4.175157
    154          1           0        8.734483   -3.665405    4.478638
    155          1           0        7.092526   -2.543866   -0.392050
    156          1           0        7.610584   -6.063574   -2.782772
    157          1           0        6.151850   -5.229332   -3.311050
    158          1           0        5.979141   -6.356087   -1.999685
 ---------------------------------------------------------------------

 SCF Done:  E(RPBE1PBE) =  -4067.39081222     A.U. after   17 cycles

 Excitation energies and oscillator strengths:

 Excited State   1:      Singlet-A      1.6832 eV  736.61 nm  f=0.0000  <S**2>=0.000
     312 -> 313        0.70710
 This state for optimization and/or second-order correction.
 Total Energy, E(TD-HF/TD-DFT) =  -4067.32895642
 Copying the excited state density for this state as the 1-particle RhoCI density.

 Excited State   2:      Singlet-A      1.8204 eV  681.08 nm  f=0.3663  <S**2>=0.000
     309 -> 316        0.15136
     311 -> 313        0.70043
     311 <- 313       -0.12599

 Excited State   3:      Singlet-A      1.8386 eV  674.33 nm  f=0.3468  <S**2>=0.000
     310 -> 315        0.16795
     312 -> 314        0.69255
     312 <- 314       -0.10461

 Excited State   4:      Singlet-A      2.0601 eV  601.83 nm  f=0.0000  <S**2>=0.000
     311 -> 314        0.70709

 Excited State   5:      Singlet-A      2.1896 eV  566.23 nm  f=0.1994  <S**2>=0.000
     309 -> 313        0.67303
     311 -> 316       -0.20150

 The electronic state is 1-A.
 Alpha  occ. eigenvalues --  -46.92595 -46.92309 -19.27081 -19.25320 -19.20587
 Alpha  occ. eigenvalues --  -19.20003 -19.19715 -19.19502 -19.18926 -19.17783
 Alpha  occ. eigenvalues --  -14.42012 -14.41658 -14.41646 -14.41067 -14.39737
 Alpha  occ. eigenvalues --  -14.39389 -14.39193 -14.38903 -10.37058 -10.35988
 Alpha  occ. eigenvalues --  -10.33715 -10.33015 -10.32131 -10.31217 -10.29734
 Alpha  occ. eigenvalues --  -10.29305 -10.29101 -10.29027 -10.29025 -10.28747
 Alpha  occ. eigenvalues --  -10.28546 -10.28497 -10.28421 -10.28349 -10.28298
 Alpha  occ. eigenvalues --  -10.28210 -10.27972 -10.27823 -10.27736 -10.27633
 Alpha  occ. eigenvalues --  -10.26839 -10.26690 -10.26392 -10.26339 -10.26334
 Alpha  occ. eigenvalues --  -10.26029 -10.26011 -10.25999 -10.25982 -10.25981
 Alpha  occ. eigenvalues --  -10.25957 -10.25880 -10.25826 -10.25756 -10.25739
 Alpha  occ. eigenvalues --  -10.25733 -10.25724 -10.25710 -10.25469 -10.25456
 Alpha  occ. eigenvalues --  -10.25435 -10.25267 -10.25235 -10.25104 -10.25005
 Alpha  occ. eigenvalues --  -10.24829 -10.24730 -10.24671 -10.24634 -10.24574
 Alpha  occ. eigenvalues --  -10.24533 -10.24213 -10.24212 -10.24040 -10.23618
 Alpha  occ. eigenvalues --  -10.23559 -10.23537 -10.23475 -10.23463 -10.23449
 Alpha  occ. eigenvalues --  -10.23280 -10.23159 -10.23120 -10.23074 -10.22863
 Alpha  occ. eigenvalues --  -10.22626  -3.14706  -3.14547  -1.87512  -1.87356
 Alpha  occ. eigenvalues --   -1.87067  -1.86959  -1.86917  -1.86793  -1.11691
 Alpha  occ. eigenvalues --   -1.11167  -1.04855  -1.03269  -1.03151  -1.02681
 Alpha  occ. eigenvalues --   -1.02268  -1.01662  -0.99650  -0.99443  -0.98753
 Alpha  occ. eigenvalues --   -0.98579  -0.98330  -0.98035  -0.97144  -0.96756
 Alpha  occ. eigenvalues --   -0.87946  -0.85890  -0.83717  -0.83205  -0.83120
 Alpha  occ. eigenvalues --   -0.83115  -0.82974  -0.82359  -0.81792  -0.81784
 Alpha  occ. eigenvalues --   -0.81272  -0.81142  -0.80598  -0.80522  -0.78957
 Alpha  occ. eigenvalues --   -0.78587  -0.78277  -0.78247  -0.77400  -0.76804
 Alpha  occ. eigenvalues --   -0.76349  -0.75802  -0.75445  -0.75335  -0.75092
 Alpha  occ. eigenvalues --   -0.74540  -0.72882  -0.72357  -0.71744  -0.71718
 Alpha  occ. eigenvalues --   -0.71580  -0.70994  -0.70520  -0.70255  -0.69806
 Alpha  occ. eigenvalues --   -0.69631  -0.67746  -0.67225  -0.66165  -0.65344
 Alpha  occ. eigenvalues --   -0.63632  -0.63575  -0.63381  -0.63015  -0.62527
 Alpha  occ. eigenvalues --   -0.62350  -0.61587  -0.61391  -0.60597  -0.60060
 Alpha  occ. eigenvalues --   -0.59686  -0.59575  -0.59477  -0.59441  -0.59147
 Alpha  occ. eigenvalues --   -0.58955  -0.57350  -0.56537  -0.55393  -0.54514
 Alpha  occ. eigenvalues --   -0.54327  -0.54203  -0.53943  -0.53566  -0.53289
 Alpha  occ. eigenvalues --   -0.53221  -0.52869  -0.52361  -0.52340  -0.51782
 Alpha  occ. eigenvalues --   -0.50525  -0.50431  -0.50373  -0.50113  -0.49822
 Alpha  occ. eigenvalues --   -0.49590  -0.49391  -0.49179  -0.48724  -0.48431
 Alpha  occ. eigenvalues --   -0.48209  -0.47964  -0.47868  -0.47813  -0.47297
 Alpha  occ. eigenvalues --   -0.47284  -0.47021  -0.46998  -0.46985  -0.46630
 Alpha  occ. eigenvalues --   -0.46430  -0.46149  -0.45997  -0.45919  -0.45759
 Alpha  occ. eigenvalues --   -0.45753  -0.45572  -0.45503  -0.45489  -0.44879
 Alpha  occ. eigenvalues --   -0.44615  -0.44523  -0.44373  -0.44338  -0.44130
 Alpha  occ. eigenvalues --   -0.44006  -0.43982  -0.43841  -0.43698  -0.43422
 Alpha  occ. eigenvalues --   -0.43229  -0.42962  -0.42869  -0.42784  -0.42781
 Alpha  occ. eigenvalues --   -0.42520  -0.42497  -0.42273  -0.42264  -0.42138
 Alpha  occ. eigenvalues --   -0.42009  -0.41937  -0.41526  -0.41308  -0.41228
 Alpha  occ. eigenvalues --   -0.41172  -0.41027  -0.40866  -0.40719  -0.40701
 Alpha  occ. eigenvalues --   -0.40405  -0.40087  -0.40062  -0.39900  -0.39598
 Alpha  occ. eigenvalues --   -0.39561  -0.39494  -0.39245  -0.39204  -0.38766
 Alpha  occ. eigenvalues --   -0.38763  -0.38700  -0.38579  -0.38471  -0.38310
 Alpha  occ. eigenvalues --   -0.38194  -0.38121  -0.37853  -0.37739  -0.37622
 Alpha  occ. eigenvalues --   -0.37493  -0.37345  -0.37148  -0.37019  -0.37008
 Alpha  occ. eigenvalues --   -0.36821  -0.36778  -0.36508  -0.36340  -0.36096
 Alpha  occ. eigenvalues --   -0.36096  -0.35780  -0.35689  -0.35570  -0.35509
 Alpha  occ. eigenvalues --   -0.34692  -0.34677  -0.34341  -0.34265  -0.34184
 Alpha  occ. eigenvalues --   -0.33646  -0.33542  -0.33381  -0.33125  -0.33077
 Alpha  occ. eigenvalues --   -0.32745  -0.32389  -0.32217  -0.31933  -0.31488
 Alpha  occ. eigenvalues --   -0.31474  -0.30624  -0.30068  -0.29811  -0.29766
 Alpha  occ. eigenvalues --   -0.29052  -0.28687  -0.28634  -0.27191  -0.26974
 Alpha  occ. eigenvalues --   -0.26276  -0.26237  -0.25790  -0.25729  -0.25631
 Alpha  occ. eigenvalues --   -0.25473  -0.25417  -0.24704  -0.21218  -0.21103
 Alpha  occ. eigenvalues --   -0.19284  -0.18747
 Alpha virt. eigenvalues --   -0.11976  -0.11143  -0.05554  -0.04402  -0.04011
 Alpha virt. eigenvalues --   -0.03904  -0.02514  -0.02215  -0.01136  -0.01004
 Alpha virt. eigenvalues --   -0.00423   0.00224   0.00676   0.00979   0.01549

 Mulliken charges:
               1
     1  Mg  12.000000
     2  C    6.000000
     3  C    6.000000
     4  C    6.000000
     5  C    6.000000
     6  N    7.000000
     7  C    6.000000
     8  C    6.000000
     9  C    6.000000
    10  C    6.000000
    11  C    6.000000
    12  C    6.000000
    13  C    6.000000
    14  H    1.000000
    15  N    7.000000
    16  C    6.000000
    17  C    6.000000
    18  C    6.000000
    19  C    6.000000
    20  C    6.000000
    21  C    6.000000
    22  O    8.000000
    23  C    6.000000
    24  N    7.000000
    25  C    6.000000
    26  C    6.000000
    27  C    6.000000
    28  C    6.000000
    29  C    6.000000
    30  C    6.000000
    31  C    6.000000
    32  N    7.000000
    33  C    6.000000
    34  C    6.000000
    35  C    6.000000
    36  C    6.000000
    37  C    6.000000
    38  C    6.000000
    39  O    8.000000
    40  C    6.000000
    41  C    6.000000
    42  O    8.000000
    43  O    8.000000
    44  C    6.000000
    45  H    1.000000
    46  H    1.000000
    47  H    1.000000
    48  H    1.000000
    49  H    1.000000
    50  H    1.000000
    51  H    1.000000
    52  H    1.000000
    53  H    1.000000
    54  H    1.000000
    55  H    1.000000
    56  H    1.000000
    57  H    1.000000
    58  H    1.000000
    59  H    1.000000
    60  H    1.000000
    61  H    1.000000
    62  H    1.000000
    63  H    1.000000
    64  H    1.000000
    65  H    1.000000
    66  H    1.000000
    67  H    1.000000
    68  H    1.000000
    69  H    1.000000
    70  H    1.000000
    71  H    1.000000
    72  H    1.000000
    73  H    1.000000
    74  H    1.000000
    75  H    1.000000
    76  H    1.000000
    77  H    1.000000
    78  H    1.000000
    79  H    1.000000
    80  Mg  12.000000
    81  C    6.000000
    82  C    6.000000
    83  C    6.000000
    84  C    6.000000
    85  N    7.000000
    86  C    6.000000
    87  C    6.000000
    88  C    6.000000
    89  C    6.000000
    90  C    6.000000
    91  C    6.000000
    92  C    6.000000
    93  H    1.000000
    94  N    7.000000
    95  C    6.000000
    96  C    6.000000
    97  C    6.000000
    98  C    6.000000
    99  C    6.000000
   100  C    6.000000
   101  O    8.000000
   102  C    6.000000
   103  N    7.000000
   104  C    6.000000
   105  C    6.000000
   106  C    6.000000
   107  C    6.000000
   108  C    6.000000
   109  C    6.000000
   110  C    6.000000
   111  N    7.000000
   112  C    6.000000
   113  C    6.000000
   114  C    6.000000
   115  C    6.000000
   116  C    6.000000
   117  C    6.000000
   118  O    8.000000
   119  C    6.000000
   120  C    6.000000
   121  O    8.000000
   122  O    8.000000
   123  C    6.000000
   124  H    1.000000
   125  H    1.000000
   126  H    1.000000
   127  H    1.000000
   128  H    1.000000
   129  H    1.000000
   130  H    1.000000
   131  H    1.000000
   132  H    1.000000
   133  H    1.000000
   134  H    1.000000
   135  H    1.000000
   136  H    1.000000
   137  H    1.000000
   138  H    1.000000
   139  H    1.000000
   140  H    1.000000
   141  H    1.000000
   142  H    1.000000
   143  H    1.000000
   144  H    1.000000
   145  H    1.000000
   146  H    1.000000
   147  H    1.000000
   148  H    1.000000
   149  H    1.000000
   150  H    1.000000
   151  H    1.000000
   152  H    1.000000
   153  H    1.000000
   154  H    1.000000
   155  H    1.000000
   156  H    1.000000
   157  H    1.000000
   158  H    1.000000
 Sum of Mulliken charges = 624.00000

 Dipole moment (field-independent basis, Debye):
    X=             -0.0000    Y=             -0.0000    Z=              0.0000  Tot=              0.0000
 Quadrupole moment (field-independent basis, Debye-Ang):
   XX=              0.0000   YY=             -0.0000   ZZ=              0.0000
   XY=             -0.0000   XZ=             -0.0000   YZ=              0.0000

 Normal termination of Gaussian 16 at Fri Oct 15 15:12:51 2021.
