 Gaussian 16, Revision A.03,
 Gaussian 16:  ES64L-G16RevA.03 25-Dec-2016

 --------------------------------------------------------
 #p PBE1PBE/Def2SVP td=(nstates=5) density=(transition=1)
 --------------------------------------------------------

 --------------------------------
 TDDFT excited states in gaussian
 --------------------------------
 Symbolic Z-matrix:
 Charge =  0 Multiplicity = 1

                         Standard orientation:
 ---------------------------------------------------------------------
 Center     Atomic      Atomic             Coordinates (Angstroms)
 Number     Number       Type             X           Y           Z
 ---------------------------------------------------------------------
      1         12           0       20.913398    0.522901   -0.372652
      2          6           0       19.012881   -2.329198   -0.012657
      3          6           0       23.631299   -1.333522    0.562093
      4          6           0       22.730411    3.368669   -0.439580
      5          6           0       18.016574    2.411447   -0.734498
      6          7           0       21.176117   -1.617500    0.341897
      7          6           0       20.356122   -2.588614    0.215224
      8          6           0       20.927712   -4.063633    0.540777
      9          6           0       22.371427   -3.637296    1.019875
     10          6           0       22.416217   -2.066393    0.709186
     11          6           0       22.656591   -3.836524    2.599773
     12          6           0       20.928207   -5.081412   -0.680875
     13          6           0       20.735527   -6.606415   -0.361726
     14          1           0       20.823962   -7.007527    1.079771
     15          7           0       22.861498    0.946156   -0.078623
     16          6           0       23.918489    0.004430    0.236172
     17          6           0       25.173344    0.748795    0.259468
     18          6           0       24.915383    2.131057    0.082665
     19          6           0       23.464047    2.197281   -0.201693
     20          6           0       26.421930   -0.038609    0.433459
     21          6           0       25.869648    3.347379    0.035711
     22          8           0       25.536775    4.493782   -0.020627
     23          6           0       27.358775    3.013013    0.256551
     24          7           0       20.488466    2.647640   -0.452057
     25          6           0       21.356710    3.609037   -0.463976
     26          6           0       20.675563    5.001859   -0.344302
     27          6           0       19.172686    4.697773   -0.553393
     28          6           0       19.190869    3.151917   -0.605908
     29          6           0       20.999366    5.663074    1.012327
     30          6           0       18.590640    5.401274   -1.817703
     31          6           0       18.427314    6.924951   -1.695585
     32          7           0       18.882704    0.158363   -0.381660
     33          6           0       17.837556    1.026217   -0.643840
     34          6           0       16.640311    0.228060   -0.675041
     35          6           0       16.993943   -1.125404   -0.392920
     36          6           0       18.408133   -1.059065   -0.264620
     37          6           0       15.332421    0.732227   -0.881655
     38          6           0       16.571595   -2.484771   -0.276429
     39          8           0       15.391656   -2.946533   -0.286256
     40          6           0       17.876703   -3.290389    0.094386
     41          6           0       17.650669   -3.907823    1.383754
     42          8           0       17.783034   -3.332080    2.463452
     43          8           0       17.129242   -5.154536    1.148499
     44          6           0       16.606574   -5.804045    2.369186
     45          1           0       24.511687   -1.893869    0.882195
     46          1           0       23.385447    4.242624   -0.470291
     47          1           0       17.143676    3.040704   -0.922818
     48          1           0       20.329278   -4.382922    1.394405
     49          1           0       23.127579   -4.217554    0.491442
     50          1           0       21.694458   -3.902677    3.108527
     51          1           0       23.218828   -2.984336    2.981253
     52          1           0       23.240594   -4.714059    2.879128
     53          1           0       21.920273   -4.956770   -1.114076
     54          1           0       20.358496   -4.781508   -1.561086
     55          1           0       21.426578   -7.258039   -0.896318
     56          1           0       19.720243   -6.898180   -0.630532
     57          1           0       26.619190   -0.217630    1.490796
     58          1           0       27.259597    0.358143   -0.140303
     59          1           0       26.250715   -1.005462   -0.039212
     60          1           0       27.849123    2.537859   -0.593662
     61          1           0       27.303021    2.361965    1.128393
     62          1           0       27.992008    3.844829    0.563650
     63          1           0       21.089834    5.537344   -1.198214
     64          1           0       18.616103    4.978411    0.340756
     65          1           0       21.264401    4.980856    1.820359
     66          1           0       20.207682    6.222642    1.511650
     67          1           0       21.837806    6.330157    0.812234
     68          1           0       17.590518    5.012642   -2.004529
     69          1           0       19.209341    5.169894   -2.685412
     70          1           0       18.860043    7.226167   -0.741574
     71          1           0       17.375885    7.151655   -1.518309
     72          1           0       18.745002    7.558386   -2.523447
     73          1           0       15.439524    1.433272   -1.709492
     74          1           0       14.894127    1.292537   -0.055952
     75          1           0       14.656865   -0.110794   -1.030332
     76          1           0       17.906961   -4.066402   -0.670911
     77          1           0       15.747795   -5.209500    2.682090
     78          1           0       17.386271   -5.958256    3.114367
     79          1           0       16.246221   -6.791223    2.079410
     80         12           0      -20.436306    0.716378    0.463720
     81          6           0      -19.268281   -2.039803   -1.540768
     82          6           0      -21.550401   -1.457944    2.741198
     83          6           0      -22.226470    3.230888    1.768827
     84          6           0      -19.626041    2.792184   -2.245294
     85          7           0      -20.450379   -1.457546    0.538987
     86          6           0      -19.764101   -2.383794   -0.264741
     87          6           0      -19.754834   -3.817223    0.390814
     88          6           0      -20.547493   -3.586387    1.712922
     89          6           0      -20.826875   -2.059874    1.703026
     90          6           0      -21.807639   -4.389323    1.913737
     91          6           0      -18.258819   -4.417415    0.566725
     92          6           0      -18.042542   -5.817026   -0.021884
     93          1           0      -17.556465   -6.884188    1.027999
     94          7           0      -21.609846    0.893549    2.130246
     95          6           0      -21.971473   -0.098867    2.949711
     96          6           0      -22.852558    0.377680    4.017273
     97          6           0      -23.116395    1.744182    3.656712
     98          6           0      -22.317842    2.022335    2.458368
     99          6           0      -23.323814   -0.472558    5.117837
    100          6           0      -24.153767    2.650219    4.391406
    101          8           0      -24.306110    3.824872    4.100673
    102          6           0      -25.010811    2.154949    5.512368
    103          7           0      -20.836395    2.656653   -0.145963
    104          6           0      -21.522368    3.562908    0.655491
    105          6           0      -21.514880    4.991648    0.019231
    106          6           0      -20.384642    4.880437   -1.070963
    107          6           0      -20.215991    3.362765   -1.138716
    108          6           0      -22.883220    5.595069   -0.436771
    109          6           0      -19.054308    5.581643   -0.682118
    110          6           0      -18.289702    6.325924   -1.747547
    111          7           0      -19.664217    0.461425   -1.519649
    112          6           0      -19.398579    1.395103   -2.480714
    113          6           0      -18.673980    0.709415   -3.638131
    114          6           0      -18.559371   -0.614178   -3.287853
    115          6           0      -19.237143   -0.731896   -2.026094
    116          6           0      -18.129582    1.469338   -4.826236
    117          6           0      -18.101004   -1.937115   -3.672867
    118          8           0      -17.499604   -2.186467   -4.738532
    119          6           0      -18.646104   -3.000001   -2.544564
    120          6           0      -19.689638   -3.977047   -3.044527
    121          8           0      -20.724785   -3.572483   -3.609905
    122          8           0      -19.265049   -5.303630   -2.958989
    123          6           0      -20.054720   -6.192660   -3.803147
    124          1           0      -21.843421   -2.097878    3.575861
    125          1           0      -22.785220    4.006320    2.296358
    126          1           0      -19.294042    3.517776   -2.991405
    127          1           0      -20.290831   -4.414096   -0.346861
    128          1           0      -19.908782   -4.006671    2.490998
    129          1           0      -22.051594   -5.025871    1.063106
    130          1           0      -22.538161   -3.582334    1.868352
    131          1           0      -21.776623   -5.027576    2.797299
    132          1           0      -18.120518   -4.398672    1.647395
    133          1           0      -17.540085   -3.692461    0.185598
    134          1           0      -17.362818   -5.697101   -0.865502
    135          1           0      -18.989793   -6.190142   -0.413338
    136          1           0      -24.391388   -0.585284    5.304127
    137          1           0      -23.074942    0.089979    6.016959
    138          1           0      -22.771973   -1.401510    5.263099
    139          1           0      -24.309173    1.852007    6.290488
    140          1           0      -25.499202    1.249253    5.151712
    141          1           0      -25.680886    2.978631    5.755436
    142          1           0      -21.149995    5.627813    0.825650
    143          1           0      -20.721310    5.179439   -2.063333
    144          1           0      -23.622245    4.882724   -0.070720
    145          1           0      -22.950738    5.795832   -1.505612
    146          1           0      -23.148100    6.487593    0.131449
    147          1           0      -18.515090    4.693072   -0.354373
    148          1           0      -19.121636    6.245663    0.179893
    149          1           0      -17.956808    7.250149   -1.275078
    150          1           0      -18.907818    6.608757   -2.600236
    151          1           0      -17.375903    5.754238   -1.911427
    152          1           0      -18.396179    2.516713   -4.685874
    153          1           0      -18.668973    1.139752   -5.713948
    154          1           0      -17.064328    1.265788   -4.933442
    155          1           0      -17.784670   -3.504965   -2.107469
    156          1           0      -19.530913   -6.604077   -4.664853
    157          1           0      -20.983610   -5.753267   -4.167017
    158          1           0      -20.348412   -7.028253   -3.168347
 ---------------------------------------------------------------------

 SCF Done:  E(RPBE1PBE) =  -4067.37908496     A.U. after   17 cycles

 Excitation energies and oscillator strengths:

 Excited State   1:      Singlet-A      1.8518 eV  669.54 nm  f=0.4097  <S**2>=0.000
     309 -> 316        0.16676
     312 -> 314        0.69627
     312 <- 314       -0.11425
 This state for optimization and/or second-order correction.
 Total Energy, E(TD-HF/TD-DFT) =  -4067.31103289
 Copying the excited state density for this state as the 1-particle RhoCI density.

 Excited State   2:      Singlet-A      1.9096 eV  649.28 nm  f=0.3701  <S**2>=0.000
     310 -> 315        0.19445
     311 -> 313        0.68529

 Excited State   3:      Singlet-A      1.9550 eV  634.18 nm  f=0.0000  <S**2>=0.000
     312 -> 313        0.70710

 Excited State   4:      Singlet-A      2.0683 eV  599.46 nm  f=0.0000  <S**2>=0.000
     311 -> 314        0.70711

 Excited State   5:      Singlet-A      2.2083 eV  561.44 nm  f=0.1054  <S**2>=0.000
     310 -> 313        0.65636
     311 -> 315       -0.25139

 The electronic state is 1-A.
 Alpha  occ. eigenvalues --  -46.91814 -46.91791 -19.27217 -19.25461 -19.20949
 Alpha  occ. eigenvalues --  -19.20191 -19.20015 -19.19543 -19.18859 -19.18667
 Alpha  occ. eigenvalues --  -14.42048 -14.41601 -14.41216 -14.41077 -14.39326
 Alpha  occ. eigenvalues --  -14.39251 -14.39056 -14.38665 -10.37719 -10.35547
 Alpha  occ. eigenvalues --  -10.33532 -10.33244 -10.32178 -10.32048 -10.29457
 Alpha  occ. eigenvalues --  -10.29269 -10.28879 -10.28781 -10.28489 -10.28397
 Alpha  occ. eigenvalues --  -10.28239 -10.28202 -10.28175 -10.28120 -10.27992
 Alpha  occ. eigenvalues --  -10.27986 -10.27949 -10.27591 -10.27420 -10.27357
 Alpha  occ. eigenvalues --  -10.26887 -10.26837 -10.26757 -10.26739 -10.26703
 Alpha  occ. eigenvalues --  -10.26693 -10.26449 -10.26379 -10.26344 -10.26060
 Alpha  occ. eigenvalues --  -10.26010 -10.25753 -10.25604 -10.25501 -10.25443
 Alpha  occ. eigenvalues --  -10.25393 -10.25378 -10.25331 -10.25293 -10.25190
 Alpha  occ. eigenvalues --  -10.25097 -10.24972 -10.24850 -10.24788 -10.24705
 Alpha  occ. eigenvalues --  -10.24614 -10.24602 -10.24432 -10.24393 -10.24234
 Alpha  occ. eigenvalues --  -10.24129 -10.23588 -10.23513 -10.23512 -10.23442
 Alpha  occ. eigenvalues --  -10.23426 -10.23278 -10.23126 -10.23038 -10.22979
 Alpha  occ. eigenvalues --  -10.22969 -10.22919 -10.22845 -10.22824 -10.22402
 Alpha  occ. eigenvalues --  -10.22213  -3.14017  -3.14004  -1.86839  -1.86838
 Alpha  occ. eigenvalues --   -1.86383  -1.86375  -1.86267  -1.86231  -1.10972
 Alpha  occ. eigenvalues --   -1.10282  -1.07111  -1.04943  -1.03624  -1.02619
 Alpha  occ. eigenvalues --   -1.02037  -1.01596  -1.00012  -0.98982  -0.98555
 Alpha  occ. eigenvalues --   -0.98272  -0.97969  -0.97220  -0.96505  -0.95337
 Alpha  occ. eigenvalues --   -0.86950  -0.86858  -0.83609  -0.83417  -0.82984
 Alpha  occ. eigenvalues --   -0.82592  -0.82364  -0.82037  -0.81825  -0.81609
 Alpha  occ. eigenvalues --   -0.81550  -0.81311  -0.81102  -0.80372  -0.78554
 Alpha  occ. eigenvalues --   -0.78206  -0.77895  -0.77727  -0.76956  -0.76576
 Alpha  occ. eigenvalues --   -0.76150  -0.75818  -0.75476  -0.75365  -0.74586
 Alpha  occ. eigenvalues --   -0.74531  -0.72799  -0.72761  -0.71886  -0.71711
 Alpha  occ. eigenvalues --   -0.71186  -0.70673  -0.70459  -0.70047  -0.69177
 Alpha  occ. eigenvalues --   -0.69121  -0.66830  -0.66700  -0.65903  -0.65429
 Alpha  occ. eigenvalues --   -0.63750  -0.63395  -0.63141  -0.62767  -0.62671
 Alpha  occ. eigenvalues --   -0.62165  -0.61347  -0.61171  -0.60193  -0.59804
 Alpha  occ. eigenvalues --   -0.59731  -0.59455  -0.59389  -0.59301  -0.58871
 Alpha  occ. eigenvalues --   -0.58637  -0.57117  -0.56146  -0.54895  -0.54478
 Alpha  occ. eigenvalues --   -0.54254  -0.53973  -0.53689  -0.53267  -0.53111
 Alpha  occ. eigenvalues --   -0.52900  -0.52875  -0.52462  -0.52155  -0.51931
 Alpha  occ. eigenvalues --   -0.50836  -0.50543  -0.50175  -0.49906  -0.49771
 Alpha  occ. eigenvalues --   -0.49624  -0.49297  -0.49104  -0.48572  -0.48352
 Alpha  occ. eigenvalues --   -0.48140  -0.47862  -0.47680  -0.47652  -0.47364
 Alpha  occ. eigenvalues --   -0.47203  -0.47159  -0.46864  -0.46753  -0.46480
 Alpha  occ. eigenvalues --   -0.46410  -0.46177  -0.46023  -0.45953  -0.45899
 Alpha  occ. eigenvalues --   -0.45689  -0.45593  -0.45441  -0.45291  -0.45289
 Alpha  occ. eigenvalues --   -0.44879  -0.44812  -0.44113  -0.44094  -0.43926
 Alpha  occ. eigenvalues --   -0.43835  -0.43712  -0.43580  -0.43379  -0.43276
 Alpha  occ. eigenvalues --   -0.43147  -0.43093  -0.42960  -0.42795  -0.42779
 Alpha  occ. eigenvalues --   -0.42593  -0.42472  -0.42451  -0.41886  -0.41678
 Alpha  occ. eigenvalues --   -0.41659  -0.41495  -0.41277  -0.41155  -0.41146
 Alpha  occ. eigenvalues --   -0.41013  -0.40786  -0.40715  -0.40666  -0.40411
 Alpha  occ. eigenvalues --   -0.40377  -0.40067  -0.39906  -0.39689  -0.39294
 Alpha  occ. eigenvalues --   -0.39192  -0.39079  -0.39070  -0.38920  -0.38868
 Alpha  occ. eigenvalues --   -0.38834  -0.38583  -0.38495  -0.38403  -0.38200
 Alpha  occ. eigenvalues --   -0.37897  -0.37884  -0.37812  -0.37778  -0.37590
 Alpha  occ. eigenvalues --   -0.37582  -0.37496  -0.37438  -0.37115  -0.36612
 Alpha  occ. eigenvalues --   -0.36611  -0.36558  -0.36478  -0.36287  -0.36071
 Alpha  occ. eigenvalues --   -0.35978  -0.35640  -0.35502  -0.35482  -0.35146
 Alpha  occ. eigenvalues --   -0.35055  -0.34674  -0.34402  -0.34318  -0.34041
 Alpha  occ. eigenvalues --   -0.33277  -0.33172  -0.32939  -0.32792  -0.32611
 Alpha  occ. eigenvalues --   -0.32443  -0.32240  -0.31964  -0.31496  -0.31485
 Alpha  occ. eigenvalues --   -0.31395  -0.31116  -0.29796  -0.29617  -0.29562
 Alpha  occ. eigenvalues --   -0.29092  -0.28583  -0.28522  -0.27065  -0.26960
 Alpha  occ. eigenvalues --   -0.26339  -0.26246  -0.25859  -0.25773  -0.25589
 Alpha  occ. eigenvalues --   -0.25416  -0.25386  -0.24957  -0.21043  -0.20612
 Alpha  occ. eigenvalues --   -0.18834  -0.18431
 Alpha virt. eigenvalues --   -0.10928  -0.10911  -0.05137  -0.04826  -0.04262
 Alpha virt. eigenvalues --   -0.04219  -0.02273  -0.02238  -0.01673  -0.00782
 Alpha virt. eigenvalues --   -0.00115   0.00387   0.00879   0.01315   0.01510

 Mulliken charges:
               1
     1  Mg  12.000001
     2  C    5.999884
     3  C    6.000133
     4  C    6.000060
     5  C    5.999868
     6  N    6.999925
     7  C    6.000266
     8  C    5.999919
     9  C    6.000091
    10  C    5.999683
    11  C    6.000043
    12  C    5.999939
    13  C    6.000014
    14  H    0.999982
    15  N    7.000028
    16  C    5.999661
    17  C    5.999859
    18  C    5.999733
    19  C    5.999832
    20  C    6.000077
    21  C    5.999886
    22  O    7.999718
    23  C    6.000055
    24  N    7.000038
    25  C    5.999779
    26  C    6.000033
    27  C    5.999891
    28  C    6.000291
    29  C    6.000042
    30  C    5.999962
    31  C    6.000006
    32  N    6.999995
    33  C    6.000321
    34  C    6.000280
    35  C    6.000074
    36  C    6.000174
    37  C    5.999913
    38  C    6.000223
    39  O    8.000365
    40  C    5.999985
    41  C    6.000040
    42  O    8.000034
    43  O    8.000024
    44  C    5.999983
    45  H    0.999893
    46  H    0.999927
    47  H    1.000117
    48  H    0.999974
    49  H    0.999956
    50  H    0.999883
    51  H    1.000010
    52  H    0.999911
    53  H    1.000079
    54  H    1.000000
    55  H    1.000020
    56  H    1.000005
    57  H    0.999783
    58  H    0.999841
    59  H    0.999866
    60  H    0.999908
    61  H    0.999947
    62  H    0.999830
    63  H    1.000028
    64  H    1.000023
    65  H    0.999992
    66  H    0.999896
    67  H    1.000003
    68  H    1.000008
    69  H    1.000075
    70  H    1.000005
    71  H    1.000028
    72  H    1.000041
    73  H    1.000202
    74  H    1.000241
    75  H    1.000197
    76  H    1.000103
    77  H    1.000016
    78  H    1.000012
    79  H    1.000069
    80  Mg  12.002118
    81  C    6.019973
    82  C    5.985066
    83  C    5.987461
    84  C    6.017762
    85  N    7.006008
    86  C    5.966368
    87  C    6.008880
    88  C    5.987963
    89  C    6.032101
    90  C    5.999079
    91  C    6.004204
    92  C    6.002966
    93  H    0.990250
    94  N    6.995860
    95  C    6.037756
    96  C    6.022746
    97  C    6.011211
    98  C    6.036207
    99  C    5.994195
   100  C    6.012049
   101  O    8.023188
   102  C    5.998256
   103  N    7.000375
   104  C    6.028198
   105  C    5.992607
   106  C    6.008847
   107  C    5.970162
   108  C    6.001800
   109  C    6.001043
   110  C    6.002193
   111  N    6.997684
   112  C    5.961413
   113  C    5.967439
   114  C    5.999602
   115  C    5.969703
   116  C    6.002953
   117  C    5.980824
   118  O    7.971499
   119  C    5.995428
   120  C    5.994076
   121  O    7.995855
   122  O    7.997048
   123  C    6.003211
   124  H    1.008441
   125  H    1.007887
   126  H    0.991385
   127  H    0.999480
   128  H    1.005336
   129  H    1.011775
   130  H    0.993840
   131  H    1.002166
   132  H    0.989641
   133  H    1.004313
   134  H    1.003810
   135  H    0.998326
   136  H    1.021712
   137  H    1.018436
   138  H    1.017769
   139  H    1.005282
   140  H    1.004921
   141  H    1.013549
   142  H    0.999886
   143  H    1.001140
   144  H    0.994891
   145  H    1.010928
   146  H    1.001431
   147  H    1.000693
   148  H    0.988849
   149  H    0.995325
   150  H    0.999066
   151  H    1.003884
   152  H    0.981447
   153  H    0.980671
   154  H    0.981927
   155  H    0.991289
   156  H    0.997060
   157  H    0.996616
   158  H    0.993198
 Sum of Mulliken charges = 624.00000

 Dipole moment (field-independent basis, Debye):
    X=             -5.7234    Y=              1.7217    Z=              8.9984  Tot=             10.8024
 Quadrupole moment (field-independent basis, Debye-Ang):
   XX=            229.8249   YY=             -2.0155   ZZ=              3.1996
   XY=            -40.1959   XZ=           -189.4199   YZ=              3.4840

 Normal termination of Gaussian 16 at Fri Oct 15 11:00:56 2021.
