 Gaussian 16, Revision A.03,
 Gaussian 16:  ES64L-G16RevA.03 25-Dec-2016

 --------------------------------------------------------
 #p PBE1PBE/Def2SVP td=(nstates=5) density=(transition=1)
 --------------------------------------------------------

 --------------------------------
 TDDFT excited states in gaussian
 --------------------------------
 Symbolic Z-matrix:
 Charge =  0 Multiplicity = 1

                         Standard orientation:
 ---------------------------------------------------------------------
 Center     Atomic      Atomic             Coordinates (Angstroms)
 Number     Number       Type             X           Y           Z
 ---------------------------------------------------------------------
      1         12           0       28.695810   -0.021292   -0.150889
      2          6           0       25.376233   -0.775257   -0.194895
      3          6           0       28.064960    2.275436   -2.672061
      4          6           0       31.883470    0.985800    0.160864
      5          6           0       29.091322   -1.862387    2.822276
      6          7           0       26.852295    0.847855   -1.119396
      7          6           0       25.625410    0.308851   -0.972407
      8          6           0       24.583445    1.050502   -1.727152
      9          6           0       25.556520    1.802785   -2.831551
     10          6           0       26.949310    1.647945   -2.185264
     11          6           0       25.422529    1.203738   -4.262698
     12          6           0       23.883272    2.034634   -0.803571
     13          6           0       24.754961    3.103961    0.004164
     14          1           0       24.258776    4.534752    0.171606
     15          7           0       29.820739    1.418029   -1.107123
     16          6           0       29.420711    2.184064   -2.231155
     17          6           0       30.587400    2.831082   -2.731508
     18          6           0       31.688677    2.540574   -1.935807
     19          6           0       31.209380    1.586580   -0.921535
     20          6           0       30.446008    3.698373   -3.965852
     21          6           0       33.074990    3.131631   -2.030757
     22          8           0       33.245137    3.973696   -2.947378
     23          6           0       34.118226    2.982377   -1.072416
     24          7           0       30.192473   -0.232153    1.429868
     25          6           0       31.462119    0.238198    1.265320
     26          6           0       32.363249   -0.148544    2.462440
     27          6           0       31.424301   -1.072702    3.308782
     28          6           0       30.126707   -1.001988    2.521604
     29          6           0       33.667873   -0.797390    2.051942
     30          6           0       31.300199   -0.542242    4.835461
     31          6           0       31.339505   -1.655184    5.888931
     32          7           0       27.503413   -1.159178    1.150232
     33          6           0       27.806937   -1.999215    2.173390
     34          6           0       26.640137   -2.804068    2.413526
     35          6           0       25.610931   -2.422539    1.484727
     36          6           0       26.195551   -1.396043    0.761558
     37          6           0       26.429267   -3.681444    3.599701
     38          6           0       24.259359   -2.559465    1.045926
     39          8           0       23.457380   -3.387540    1.495905
     40          6           0       24.078005   -1.539063   -0.062568
     41          6           0       23.681215   -2.252684   -1.300752
     42          8           0       22.684837   -2.948457   -1.290770
     43          8           0       24.454743   -1.977923   -2.386909
     44          6           0       24.058649   -2.658831   -3.621166
     45          1           0       27.927575    2.781547   -3.629766
     46          1           0       32.962766    1.139677    0.101235
     47          1           0       29.179236   -2.592825    3.629634
     48          1           0       23.785494    0.478679   -2.200960
     49          1           0       25.217418    2.822850   -3.016681
     50          1           0       25.113433    1.978797   -4.963062
     51          1           0       24.626792    0.459631   -4.218951
     52          1           0       26.319396    0.706711   -4.634699
     53          1           0       23.240968    1.449780   -0.144848
     54          1           0       23.129734    2.466452   -1.462106
     55          1           0       25.761758    3.277668   -0.375915
     56          1           0       24.750489    2.675217    1.005868
     57          1           0       30.125420    4.673254   -3.598043
     58          1           0       29.651108    3.294117   -4.591353
     59          1           0       31.335939    3.807415   -4.586444
     60          1           0       34.773534    3.853617   -1.047703
     61          1           0       34.652388    2.034698   -1.152032
     62          1           0       33.615768    3.046090   -0.108187
     63          1           0       32.525594    0.805696    2.964827
     64          1           0       31.763132   -2.105220    3.226138
     65          1           0       33.839288   -0.807168    0.975879
     66          1           0       33.966979   -1.767293    2.448423
     67          1           0       34.403805   -0.050895    2.352117
     68          1           0       30.390045    0.024014    5.033414
     69          1           0       32.066067    0.194869    5.076082
     70          1           0       32.302194   -1.603942    6.396836
     71          1           0       31.331118   -2.614113    5.370339
     72          1           0       30.535718   -1.577150    6.621174
     73          1           0       27.025448   -4.590726    3.666224
     74          1           0       25.366307   -3.925292    3.586443
     75          1           0       26.653475   -3.168081    4.534798
     76          1           0       23.261516   -0.889986    0.255237
     77          1           0       23.024724   -2.385590   -3.833921
     78          1           0       24.208026   -3.738174   -3.588573
     79          1           0       24.742428   -2.410829   -4.432848
     80         12           0      -28.927938    0.215989    0.246395
     81          6           0      -25.815137   -1.462979    0.323447
     82          6           0      -29.711995   -1.650332   -2.337263
     83          6           0      -31.250695    2.485905   -0.373527
     84          6           0      -27.479766    2.487052    2.564464
     85          7           0      -27.848645   -1.520741   -0.728474
     86          6           0      -26.710005   -2.073679   -0.518585
     87          6           0      -26.590443   -3.399813   -1.297407
     88          6           0      -27.636167   -3.202656   -2.509480
     89          6           0      -28.435862   -1.988606   -1.877223
     90          6           0      -27.021670   -2.868637   -3.926170
     91          6           0      -27.057102   -4.647274   -0.380370
     92          6           0      -26.391157   -6.050820   -0.552728
     93          1           0      -25.842833   -6.388089   -1.988152
     94          7           0      -30.430172    0.290440   -1.038394
     95          6           0      -30.609256   -0.661204   -2.031093
     96          6           0      -31.851444   -0.307383   -2.804418
     97          6           0      -32.322502    0.920341   -2.176196
     98          6           0      -31.376722    1.352401   -1.143593
     99          6           0      -32.309192   -1.144579   -3.983820
    100          6           0      -33.589723    1.680101   -2.501256
    101          8           0      -33.928120    2.745803   -1.967808
    102          6           0      -34.520774    1.111873   -3.494102
    103          7           0      -29.383325    2.231967    1.095277
    104          6           0      -30.382387    2.935838    0.594448
    105          6           0      -30.711169    4.170734    1.545967
    106          6           0      -29.400015    4.144736    2.503716
    107          6           0      -28.726082    2.851428    2.053340
    108          6           0      -30.967033    5.510647    0.779967
    109          6           0      -29.620440    4.170758    4.051871
    110          6           0      -29.194601    5.418038    4.782890
    111          7           0      -27.111068    0.397095    1.445446
    112          6           0      -26.718485    1.389088    2.321927
    113          6           0      -25.397481    1.166793    2.739904
    114          6           0      -24.993278    0.077812    1.944586
    115          6           0      -26.021797   -0.358831    1.143587
    116          6           0      -24.615507    1.931175    3.685122
    117          6           0      -23.889160   -0.783077    1.765797
    118          8           0      -22.763281   -0.936361    2.312682
    119          6           0      -24.291003   -1.659269    0.495429
    120          6           0      -23.879555   -3.072087    0.692922
    121          8           0      -24.277512   -3.862316    1.546322
    122          8           0      -22.996387   -3.406312   -0.381737
    123          6           0      -22.443884   -4.766801   -0.395586
    124          1           0      -29.984190   -2.383580   -3.099866
    125          1           0      -32.060676    3.195776   -0.550101
    126          1           0      -27.073444    3.145973    3.335509
    127          1           0      -25.625926   -3.384542   -1.804260
    128          1           0      -28.140042   -4.153261   -2.680897
    129          1           0      -25.969266   -2.593689   -3.859178
    130          1           0      -27.503560   -2.002271   -4.378923
    131          1           0      -27.139421   -3.775230   -4.519635
    132          1           0      -28.137329   -4.784358   -0.431958
    133          1           0      -26.938403   -4.357313    0.663817
    134          1           0      -27.049428   -6.882837   -0.300616
    135          1           0      -25.451794   -6.017707    0.000578
    136          1           0      -33.382797   -1.334935   -3.960768
    137          1           0      -31.793167   -2.101957   -4.056584
    138          1           0      -31.956985   -0.686439   -4.907697
    139          1           0      -34.029699    0.968332   -4.456982
    140          1           0      -35.379243    1.772516   -3.615644
    141          1           0      -34.972109    0.156910   -3.224938
    142          1           0      -31.560930    3.981296    2.201702
    143          1           0      -28.654088    4.880053    2.198468
    144          1           0      -30.773098    5.381920   -0.285041
    145          1           0      -30.330932    6.190358    1.347311
    146          1           0      -31.982847    5.820112    1.022410
    147          1           0      -29.042841    3.347998    4.473811
    148          1           0      -30.668382    3.965862    4.271728
    149          1           0      -28.962090    6.111685    3.975960
    150          1           0      -28.267865    5.191851    5.311516
    151          1           0      -29.984939    5.854926    5.392039
    152          1           0      -25.217353    2.019969    4.589161
    153          1           0      -24.500568    2.992150    3.463072
    154          1           0      -23.690359    1.399956    3.909521
    155          1           0      -23.786634   -1.241364   -0.376401
    156          1           0      -21.719846   -4.881103   -1.202735
    157          1           0      -23.233627   -5.456344   -0.694390
    158          1           0      -21.921983   -4.950231    0.543008
 ---------------------------------------------------------------------

 SCF Done:  E(RPBE1PBE) =  -4067.34359019     A.U. after   16 cycles

 Excitation energies and oscillator strengths:

 Excited State   1:      Singlet-A      1.8908 eV  655.73 nm  f=0.3793  <S**2>=0.000
     309 -> 316       -0.16977
     312 -> 313        0.69197
     312 <- 313       -0.10820
 This state for optimization and/or second-order correction.
 Total Energy, E(TD-HF/TD-DFT) =  -4067.27410475
 Copying the excited state density for this state as the 1-particle RhoCI density.

 Excited State   2:      Singlet-A      1.9488 eV  636.21 nm  f=0.3522  <S**2>=0.000
     310 -> 315       -0.20422
     311 -> 314        0.68089

 Excited State   3:      Singlet-A      2.0441 eV  606.54 nm  f=0.0000  <S**2>=0.000
     311 -> 313        0.70711

 Excited State   4:      Singlet-A      2.1353 eV  580.64 nm  f=0.0000  <S**2>=0.000
     312 -> 314        0.70711

 Excited State   5:      Singlet-A      2.2080 eV  561.51 nm  f=0.1170  <S**2>=0.000
     309 -> 313        0.66028
     312 -> 316        0.22046

 The electronic state is 1-A.
 Alpha  occ. eigenvalues --  -46.92783 -46.92462 -19.27042 -19.24610 -19.20397
 Alpha  occ. eigenvalues --  -19.19743 -19.19173 -19.18755 -19.18670 -19.18240
 Alpha  occ. eigenvalues --  -14.41649 -14.41562 -14.41472 -14.41143 -14.39656
 Alpha  occ. eigenvalues --  -14.39374 -14.38371 -14.38292 -10.36503 -10.36288
 Alpha  occ. eigenvalues --  -10.32197 -10.31811 -10.31716 -10.31658 -10.29963
 Alpha  occ. eigenvalues --  -10.29238 -10.29229 -10.28727 -10.28671 -10.28657
 Alpha  occ. eigenvalues --  -10.28395 -10.28390 -10.28338 -10.28318 -10.28297
 Alpha  occ. eigenvalues --  -10.28064 -10.28014 -10.27921 -10.27860 -10.27126
 Alpha  occ. eigenvalues --  -10.26832 -10.26568 -10.26506 -10.26481 -10.26286
 Alpha  occ. eigenvalues --  -10.26251 -10.26234 -10.26208 -10.26151 -10.26134
 Alpha  occ. eigenvalues --  -10.26067 -10.26064 -10.26058 -10.25865 -10.25682
 Alpha  occ. eigenvalues --  -10.25680 -10.25481 -10.25479 -10.25419 -10.25402
 Alpha  occ. eigenvalues --  -10.25118 -10.25096 -10.24967 -10.24898 -10.24891
 Alpha  occ. eigenvalues --  -10.24876 -10.24859 -10.24670 -10.24617 -10.24477
 Alpha  occ. eigenvalues --  -10.23976 -10.23959 -10.23883 -10.23854 -10.23774
 Alpha  occ. eigenvalues --  -10.23651 -10.23621 -10.23346 -10.23294 -10.23070
 Alpha  occ. eigenvalues --  -10.23060 -10.22847 -10.22843 -10.22553 -10.22452
 Alpha  occ. eigenvalues --  -10.22383  -3.14819  -3.14497  -1.87662  -1.87313
 Alpha  occ. eigenvalues --   -1.87202  -1.87028  -1.86890  -1.86702  -1.12198
 Alpha  occ. eigenvalues --   -1.08672  -1.04091  -1.03884  -1.02946  -1.02874
 Alpha  occ. eigenvalues --   -1.02029  -1.01531  -1.00429  -0.99852  -0.99551
 Alpha  occ. eigenvalues --   -0.99133  -0.98222  -0.97541  -0.96079  -0.95969
 Alpha  occ. eigenvalues --   -0.88529  -0.87362  -0.83827  -0.83520  -0.83309
 Alpha  occ. eigenvalues --   -0.83031  -0.82932  -0.82187  -0.82076  -0.81899
 Alpha  occ. eigenvalues --   -0.81635  -0.81111  -0.80510  -0.80168  -0.79384
 Alpha  occ. eigenvalues --   -0.78586  -0.78442  -0.78261  -0.77498  -0.77044
 Alpha  occ. eigenvalues --   -0.76994  -0.76222  -0.75781  -0.75781  -0.75252
 Alpha  occ. eigenvalues --   -0.75012  -0.73270  -0.72969  -0.72237  -0.72044
 Alpha  occ. eigenvalues --   -0.71375  -0.71267  -0.70428  -0.70216  -0.69573
 Alpha  occ. eigenvalues --   -0.69271  -0.67698  -0.66993  -0.66739  -0.66540
 Alpha  occ. eigenvalues --   -0.64413  -0.63618  -0.63402  -0.63227  -0.62943
 Alpha  occ. eigenvalues --   -0.62306  -0.61615  -0.61528  -0.60963  -0.60425
 Alpha  occ. eigenvalues --   -0.60086  -0.60021  -0.59813  -0.59745  -0.59153
 Alpha  occ. eigenvalues --   -0.58894  -0.58396  -0.55821  -0.55071  -0.54773
 Alpha  occ. eigenvalues --   -0.54722  -0.54220  -0.53902  -0.53831  -0.53218
 Alpha  occ. eigenvalues --   -0.53027  -0.52994  -0.52664  -0.52311  -0.51871
 Alpha  occ. eigenvalues --   -0.51483  -0.51282  -0.51127  -0.50410  -0.50336
 Alpha  occ. eigenvalues --   -0.49996  -0.49710  -0.49129  -0.48863  -0.48826
 Alpha  occ. eigenvalues --   -0.48545  -0.48421  -0.48088  -0.47784  -0.47731
 Alpha  occ. eigenvalues --   -0.47686  -0.47532  -0.47069  -0.47017  -0.46955
 Alpha  occ. eigenvalues --   -0.46651  -0.46474  -0.46417  -0.46087  -0.46004
 Alpha  occ. eigenvalues --   -0.45775  -0.45721  -0.45527  -0.45494  -0.45058
 Alpha  occ. eigenvalues --   -0.44978  -0.44740  -0.44474  -0.44231  -0.44189
 Alpha  occ. eigenvalues --   -0.44039  -0.43786  -0.43765  -0.43419  -0.43356
 Alpha  occ. eigenvalues --   -0.43347  -0.43256  -0.43179  -0.43033  -0.42753
 Alpha  occ. eigenvalues --   -0.42644  -0.42465  -0.42298  -0.42251  -0.42009
 Alpha  occ. eigenvalues --   -0.41752  -0.41656  -0.41525  -0.41476  -0.41119
 Alpha  occ. eigenvalues --   -0.41063  -0.41002  -0.40886  -0.40740  -0.40515
 Alpha  occ. eigenvalues --   -0.40419  -0.40299  -0.40141  -0.39971  -0.39727
 Alpha  occ. eigenvalues --   -0.39568  -0.39468  -0.39430  -0.39295  -0.38985
 Alpha  occ. eigenvalues --   -0.38782  -0.38729  -0.38400  -0.38396  -0.38318
 Alpha  occ. eigenvalues --   -0.38132  -0.37781  -0.37662  -0.37484  -0.37374
 Alpha  occ. eigenvalues --   -0.37138  -0.37089  -0.36763  -0.36761  -0.36637
 Alpha  occ. eigenvalues --   -0.36466  -0.36368  -0.36079  -0.36012  -0.35961
 Alpha  occ. eigenvalues --   -0.35859  -0.35797  -0.35642  -0.35512  -0.35265
 Alpha  occ. eigenvalues --   -0.35256  -0.35004  -0.34502  -0.34107  -0.33964
 Alpha  occ. eigenvalues --   -0.33652  -0.33490  -0.32870  -0.32795  -0.32672
 Alpha  occ. eigenvalues --   -0.32455  -0.32433  -0.31943  -0.31552  -0.31032
 Alpha  occ. eigenvalues --   -0.31019  -0.30668  -0.29783  -0.29758  -0.29175
 Alpha  occ. eigenvalues --   -0.28946  -0.28783  -0.28548  -0.27413  -0.27361
 Alpha  occ. eigenvalues --   -0.26040  -0.25940  -0.25577  -0.25421  -0.25348
 Alpha  occ. eigenvalues --   -0.25285  -0.25007  -0.24798  -0.21190  -0.21103
 Alpha  occ. eigenvalues --   -0.19305  -0.19246
 Alpha virt. eigenvalues --   -0.11561  -0.11166  -0.06060  -0.05397  -0.04416
 Alpha virt. eigenvalues --   -0.04028  -0.02346  -0.02138  -0.01370  -0.00536
 Alpha virt. eigenvalues --   -0.00023   0.00533   0.01161   0.01324   0.01421

 Mulliken charges:
               1
     1  Mg  11.998245
     2  C    6.009168
     3  C    5.985856
     4  C    5.988496
     5  C    6.014636
     6  N    7.001985
     7  C    5.972356
     8  C    6.013733
     9  C    5.986989
    10  C    6.027641
    11  C    5.997445
    12  C    6.005778
    13  C    6.001754
    14  H    0.993191
    15  N    6.993747
    16  C    6.041203
    17  C    6.019930
    18  C    6.008098
    19  C    6.036473
    20  C    5.997477
    21  C    6.014074
    22  O    8.021479
    23  C    5.994973
    24  N    7.004946
    25  C    6.027214
    26  C    5.991900
    27  C    6.010155
    28  C    5.969400
    29  C    5.999763
    30  C    6.002606
    31  C    6.001217
    32  N    6.999885
    33  C    5.967901
    34  C    5.964687
    35  C    5.999686
    36  C    5.973468
    37  C    6.002436
    38  C    5.983210
    39  O    7.972868
    40  C    5.998532
    41  C    5.995341
    42  O    7.995930
    43  O    7.999432
    44  C    6.001593
    45  H    1.008821
    46  H    1.008139
    47  H    0.995786
    48  H    0.999471
    49  H    1.002899
    50  H    1.000781
    51  H    1.012947
    52  H    0.997193
    53  H    1.006018
    54  H    0.992233
    55  H    0.986183
    56  H    1.007294
    57  H    1.019343
    58  H    1.017325
    59  H    1.014430
    60  H    1.012389
    61  H    1.011517
    62  H    1.007273
    63  H    1.000129
    64  H    1.000243
    65  H    0.995984
    66  H    1.009066
    67  H    1.000091
    68  H    1.000928
    69  H    0.990826
    70  H    0.995207
    71  H    1.002111
    72  H    1.002216
    73  H    0.976308
    74  H    0.987322
    75  H    0.976644
    76  H    0.991266
    77  H    0.995734
    78  H    0.998117
    79  H    0.990868
    80  Mg  11.999997
    81  C    5.999972
    82  C    5.999980
    83  C    6.000076
    84  C    6.000031
    85  N    7.000042
    86  C    6.000074
    87  C    5.999974
    88  C    6.000033
    89  C    5.999886
    90  C    6.000016
    91  C    5.999997
    92  C    5.999998
    93  H    1.000026
    94  N    7.000003
    95  C    5.999934
    96  C    5.999887
    97  C    6.000008
    98  C    5.999855
    99  C    6.000041
   100  C    5.999932
   101  O    7.999901
   102  C    6.000039
   103  N    6.999968
   104  C    5.999904
   105  C    6.000046
   106  C    5.999998
   107  C    6.000069
   108  C    6.000016
   109  C    5.999976
   110  C    6.000002
   111  N    7.000043
   112  C    6.000037
   113  C    6.000134
   114  C    5.999987
   115  C    6.000076
   116  C    5.999951
   117  C    6.000075
   118  O    8.000154
   119  C    5.999991
   120  C    6.000010
   121  O    8.000034
   122  O    8.000003
   123  C    5.999975
   124  H    0.999974
   125  H    0.999960
   126  H    1.000018
   127  H    1.000004
   128  H    0.999981
   129  H    0.999971
   130  H    1.000004
   131  H    0.999984
   132  H    1.000027
   133  H    0.999981
   134  H    1.000007
   135  H    1.000007
   136  H    0.999927
   137  H    0.999939
   138  H    0.999909
   139  H    0.999971
   140  H    0.999923
   141  H    0.999960
   142  H    0.999971
   143  H    0.999989
   144  H    1.000008
   145  H    0.999959
   146  H    0.999982
   147  H    0.999994
   148  H    1.000025
   149  H    1.000006
   150  H    1.000001
   151  H    1.000004
   152  H    1.000072
   153  H    1.000092
   154  H    1.000071
   155  H    1.000036
   156  H    1.000044
   157  H    1.000014
   158  H    1.000034
 Sum of Mulliken charges = 624.00000

 Dipole moment (field-independent basis, Debye):
    X=              6.4407    Y=              6.2669    Z=             -5.0032  Tot=             10.2854
 Quadrupole moment (field-independent basis, Debye-Ang):
   XX=            364.5434   YY=             -0.4085   ZZ=              0.3044
   XY=            179.6298   XZ=           -146.3446   YZ=             -1.8935

 Normal termination of Gaussian 16 at Thu Oct 14 22:18:41 2021.
