 Gaussian 16, Revision A.03,
 Gaussian 16:  ES64L-G16RevA.03 25-Dec-2016

 --------------------------------------------------------
 #p PBE1PBE/Def2SVP td=(nstates=5) density=(transition=1)
 --------------------------------------------------------

 --------------------------------
 TDDFT excited states in gaussian
 --------------------------------
 Symbolic Z-matrix:
 Charge =  0 Multiplicity = 1

                         Standard orientation:
 ---------------------------------------------------------------------
 Center     Atomic      Atomic             Coordinates (Angstroms)
 Number     Number       Type             X           Y           Z
 ---------------------------------------------------------------------
      1         12           0       -4.660657   -0.598414    1.118771
      2          6           0       -5.448110    2.415986   -0.543617
      3          6           0       -2.961554    1.168733    3.499611
      4          6           0       -3.424716   -3.458192    2.197757
      5          6           0       -6.025381   -2.335638   -1.657096
      6          7           0       -4.366090    1.574853    1.475226
      7          6           0       -4.777449    2.554595    0.694803
      8          6           0       -4.667511    3.856495    1.467698
      9          6           0       -3.520249    3.560924    2.508947
     10          6           0       -3.589238    1.988221    2.513936
     11          6           0       -2.161310    4.229122    2.072432
     12          6           0       -5.970621    4.206068    2.231352
     13          6           0       -6.144616    5.735829    2.635656
     14          1           0       -5.073800    6.783833    2.320698
     15          7           0       -3.562503   -1.085519    2.727953
     16          6           0       -2.974972   -0.224770    3.690269
     17          6           0       -2.335829   -1.062567    4.731760
     18          6           0       -2.405727   -2.433523    4.293102
     19          6           0       -3.153754   -2.422694    3.017197
     20          6           0       -1.743249   -0.519228    5.983856
     21          6           0       -1.895329   -3.788430    4.921308
     22          8           0       -2.127577   -4.906825    4.442478
     23          6           0       -0.957197   -3.720347    6.091355
     24          7           0       -4.618196   -2.630569    0.308086
     25          6           0       -4.094866   -3.629533    0.967898
     26          6           0       -4.267555   -4.980009    0.331105
     27          6           0       -5.113654   -4.634313   -0.944402
     28          6           0       -5.361707   -3.107737   -0.727170
     29          6           0       -2.928458   -5.702040    0.155041
     30          6           0       -6.428623   -5.394594   -1.062617
     31          6           0       -6.832225   -5.886442   -2.498723
     32          7           0       -5.652149   -0.134952   -0.754944
     33          6           0       -6.187124   -0.968712   -1.756444
     34          6           0       -6.905015   -0.163929   -2.684080
     35          6           0       -6.516887    1.179759   -2.379683
     36          6           0       -5.816847    1.146417   -1.200316
     37          6           0       -7.881239   -0.666566   -3.708670
     38          6           0       -6.659047    2.630738   -2.649670
     39          8           0       -7.238715    3.203857   -3.548546
     40          6           0       -5.743077    3.416198   -1.595233
     41          6           0       -6.321225    4.759409   -1.290891
     42          8           0       -7.387634    4.983621   -0.798785
     43          8           0       -5.484464    5.792949   -1.751842
     44          6           0       -6.149656    7.044416   -2.172315
     45          1           0       -2.246699    1.641927    4.176648
     46          1           0       -3.187710   -4.466414    2.542078
     47          1           0       -6.502047   -2.905217   -2.457703
     48          1           0       -4.542839    4.596519    0.677247
     49          1           0       -3.772824    3.936003    3.501295
     50          1           0       -2.284809    4.750359    1.123727
     51          1           0       -1.528048    3.375786    1.829649
     52          1           0       -1.762333    4.956875    2.779150
     53          1           0       -5.912796    3.609883    3.142939
     54          1           0       -6.802476    3.859200    1.618431
     55          1           0       -6.319574    5.712558    3.712349
     56          1           0       -7.090691    6.033664    2.182964
     57          1           0       -1.920575    0.522901    6.247155
     58          1           0       -0.654889   -0.572047    5.983448
     59          1           0       -2.196707   -1.127327    6.766999
     60          1           0       -1.456302   -3.666248    7.058744
     61          1           0       -0.407111   -2.818450    5.820057
     62          1           0       -0.309326   -4.592239    6.005245
     63          1           0       -4.880305   -5.495766    1.070338
     64          1           0       -4.582661   -4.788897   -1.882879
     65          1           0       -2.070828   -5.032108    0.086400
     66          1           0       -3.005576   -6.212184   -0.804307
     67          1           0       -2.726302   -6.415285    0.954416
     68          1           0       -7.264103   -4.791798   -0.707056
     69          1           0       -6.358996   -6.157327   -0.287204
     70          1           0       -6.162761   -5.486976   -3.260336
     71          1           0       -7.826722   -5.469445   -2.656056
     72          1           0       -6.911024   -6.957978   -2.685225
     73          1           0       -7.360853   -1.481623   -4.211874
     74          1           0       -8.172994    0.069724   -4.457797
     75          1           0       -8.750051   -1.099854   -3.212141
     76          1           0       -4.816843    3.704408   -2.091322
     77          1           0       -5.828395    7.835429   -1.494517
     78          1           0       -7.236323    6.953018   -2.183069
     79          1           0       -5.783844    7.235392   -3.181149
     80         12           0        4.331486   -0.540202   -1.290163
     81          6           0        6.794069    1.771525   -0.255039
     82          6           0        2.007033    1.785927   -1.044221
     83          6           0        2.005581   -3.040080   -1.406811
     84          6           0        6.810312   -3.165562   -0.491350
     85          7           0        4.434550    1.537972   -0.649107
     86          6           0        5.532781    2.309742   -0.516648
     87          6           0        5.112306    3.792522   -0.528313
     88          6           0        3.641564    3.793984   -0.797121
     89          6           0        3.290377    2.275326   -0.798864
     90          6           0        2.838199    4.757136    0.169431
     91          6           0        5.913216    4.788628   -1.432015
     92          6           0        5.221636    6.011427   -2.173964
     93          1           0        5.917606    7.379830   -2.135029
     94          7           0        2.290732   -0.565139   -1.479255
     95          6           0        1.489868    0.547158   -1.350917
     96          6           0        0.135258    0.138377   -1.591799
     97          6           0        0.058883   -1.306774   -1.670459
     98          6           0        1.471209   -1.697148   -1.465370
     99          6           0       -0.917887    1.170499   -1.554978
    100          6           0       -1.139229   -2.242581   -1.965809
    101          8           0       -0.996924   -3.420594   -1.942662
    102          6           0       -2.409976   -1.689593   -2.523984
    103          7           0        4.426737   -2.793161   -0.927115
    104          6           0        3.313021   -3.513820   -1.188079
    105          6           0        3.568382   -5.050806   -1.074301
    106          6           0        5.105706   -5.116101   -0.821559
    107          6           0        5.508456   -3.624142   -0.718336
    108          6           0        2.784174   -5.764380   -0.005347
    109          6           0        5.997485   -5.864407   -1.873111
    110          6           0        6.334754   -5.184938   -3.157109
    111          7           0        6.376221   -0.789051   -0.552478
    112          6           0        7.193977   -1.864725   -0.355801
    113          6           0        8.521588   -1.402172   -0.032452
    114          6           0        8.452884    0.014502    0.030908
    115          6           0        7.108114    0.330990   -0.249535
    116          6           0        9.700854   -2.219288    0.362296
    117          6           0        9.172078    1.225831    0.304486
    118          8           0       10.342076    1.466670    0.579023
    119          6           0        8.145389    2.425730    0.084228
    120          6           0        8.132204    3.414957    1.237386
    121          8           0        7.766175    3.142452    2.351525
    122          8           0        8.557011    4.652587    0.781013
    123          6           0        8.612479    5.668368    1.832902
    124          1           0        1.211450    2.520743   -1.186776
    125          1           0        1.208782   -3.780112   -1.503670
    126          1           0        7.573628   -3.934847   -0.357885
    127          1           0        5.382088    4.037065    0.499081
    128          1           0        3.490386    4.239621   -1.780692
    129          1           0        3.540896    5.343664    0.761070
    130          1           0        2.112626    4.149511    0.710132
    131          1           0        2.320186    5.536318   -0.390018
    132          1           0        6.377109    4.189855   -2.216221
    133          1           0        6.758554    5.227928   -0.901724
    134          1           0        4.236650    6.082349   -1.712150
    135          1           0        5.063744    5.746907   -3.219595
    136          1           0       -1.783603    0.686935   -1.102988
    137          1           0       -1.170832    1.403680   -2.588586
    138          1           0       -0.771884    2.127427   -1.053631
    139          1           0       -2.991199   -1.496051   -1.623364
    140          1           0       -2.814060   -2.393110   -3.252554
    141          1           0       -2.320514   -0.711502   -2.997188
    142          1           0        3.438462   -5.555850   -2.031670
    143          1           0        5.479511   -5.481565    0.134382
    144          1           0        2.000059   -5.127642    0.406379
    145          1           0        3.406120   -6.044047    0.845400
    146          1           0        2.350472   -6.635700   -0.495439
    147          1           0        5.531188   -6.813146   -2.138966
    148          1           0        6.886172   -6.223504   -1.353594
    149          1           0        5.592925   -4.415522   -3.371963
    150          1           0        6.350572   -5.734527   -4.098544
    151          1           0        7.353848   -4.821554   -3.021062
    152          1           0        9.556330   -2.832811    1.251099
    153          1           0       10.413853   -1.508592    0.780947
    154          1           0       10.091579   -2.798380   -0.474874
    155          1           0        8.463907    2.919235   -0.834198
    156          1           0        7.782647    6.199749    1.367977
    157          1           0        9.582526    6.138698    1.673715
    158          1           0        8.437337    5.264711    2.830375
 ---------------------------------------------------------------------

 SCF Done:  E(RPBE1PBE) =  -4067.35565083     A.U. after   16 cycles

 Excitation energies and oscillator strengths:

 Excited State   1:      Singlet-A      1.6456 eV  753.43 nm  f=0.0000  <S**2>=0.000
     312 -> 313        0.70689
 This state for optimization and/or second-order correction.
 Total Energy, E(TD-HF/TD-DFT) =  -4067.29517666
 Copying the excited state density for this state as the 1-particle RhoCI density.

 Excited State   2:      Singlet-A      1.7889 eV  693.07 nm  f=0.0002  <S**2>=0.000
     311 -> 314        0.70611

 Excited State   3:      Singlet-A      1.8526 eV  669.25 nm  f=0.2844  <S**2>=0.000
     310 -> 316        0.17069
     311 -> 313        0.16809
     312 -> 314        0.67058
     312 <- 314       -0.10299

 Excited State   4:      Singlet-A      1.8858 eV  657.47 nm  f=0.4457  <S**2>=0.000
     309 -> 315        0.18035
     311 -> 313        0.66557
     312 -> 314       -0.16849

 Excited State   5:      Singlet-A      2.1443 eV  578.20 nm  f=0.0504  <S**2>=0.000
     309 -> 313        0.65028
     310 -> 314        0.11706
     311 -> 315       -0.22855

 The electronic state is 1-A.
 Alpha  occ. eigenvalues --  -46.93414 -46.92250 -19.25530 -19.24409 -19.20342
 Alpha  occ. eigenvalues --  -19.20239 -19.20198 -19.19801 -19.19210 -19.18946
 Alpha  occ. eigenvalues --  -14.41795 -14.41784 -14.41371 -14.41273 -14.39544
 Alpha  occ. eigenvalues --  -14.39140 -14.38544 -14.38307 -10.36214 -10.36019
 Alpha  occ. eigenvalues --  -10.33666 -10.32734 -10.32589 -10.32014 -10.29956
 Alpha  occ. eigenvalues --  -10.29313 -10.29042 -10.28902 -10.28602 -10.28562
 Alpha  occ. eigenvalues --  -10.28526 -10.28442 -10.28367 -10.28301 -10.28219
 Alpha  occ. eigenvalues --  -10.28204 -10.28020 -10.27924 -10.27164 -10.27028
 Alpha  occ. eigenvalues --  -10.26814 -10.26653 -10.26541 -10.26376 -10.26302
 Alpha  occ. eigenvalues --  -10.26256 -10.26242 -10.26158 -10.26101 -10.26037
 Alpha  occ. eigenvalues --  -10.25855 -10.25804 -10.25782 -10.25550 -10.25540
 Alpha  occ. eigenvalues --  -10.25491 -10.25412 -10.25369 -10.25312 -10.25281
 Alpha  occ. eigenvalues --  -10.25184 -10.25147 -10.25132 -10.24918 -10.24438
 Alpha  occ. eigenvalues --  -10.24346 -10.24187 -10.24069 -10.24014 -10.24009
 Alpha  occ. eigenvalues --  -10.23943 -10.23880 -10.23856 -10.23855 -10.23821
 Alpha  occ. eigenvalues --  -10.23739 -10.23558 -10.23334 -10.23234 -10.23014
 Alpha  occ. eigenvalues --  -10.22893 -10.22876 -10.22704 -10.22651 -10.22629
 Alpha  occ. eigenvalues --  -10.22410  -3.15308  -3.14310  -1.88118  -1.87689
 Alpha  occ. eigenvalues --   -1.87519  -1.87170  -1.86680  -1.86527  -1.11158
 Alpha  occ. eigenvalues --   -1.10394  -1.07649  -1.04913  -1.04905  -1.04039
 Alpha  occ. eigenvalues --   -1.03475  -1.02294  -0.99868  -0.99438  -0.98856
 Alpha  occ. eigenvalues --   -0.97812  -0.97143  -0.97006  -0.96493  -0.95501
 Alpha  occ. eigenvalues --   -0.86678  -0.86017  -0.83590  -0.83543  -0.83182
 Alpha  occ. eigenvalues --   -0.83103  -0.82550  -0.82314  -0.81750  -0.81718
 Alpha  occ. eigenvalues --   -0.81696  -0.81349  -0.80468  -0.80339  -0.78401
 Alpha  occ. eigenvalues --   -0.78300  -0.78156  -0.77965  -0.76787  -0.76498
 Alpha  occ. eigenvalues --   -0.76133  -0.76117  -0.75330  -0.75193  -0.74766
 Alpha  occ. eigenvalues --   -0.74487  -0.72872  -0.72510  -0.71460  -0.71450
 Alpha  occ. eigenvalues --   -0.71438  -0.71084  -0.70233  -0.69985  -0.69498
 Alpha  occ. eigenvalues --   -0.69046  -0.67199  -0.66812  -0.66362  -0.65909
 Alpha  occ. eigenvalues --   -0.64135  -0.64121  -0.63676  -0.63228  -0.62723
 Alpha  occ. eigenvalues --   -0.62010  -0.61268  -0.61126  -0.60398  -0.59877
 Alpha  occ. eigenvalues --   -0.59508  -0.59291  -0.58813  -0.58684  -0.58538
 Alpha  occ. eigenvalues --   -0.58303  -0.56334  -0.56014  -0.54594  -0.54450
 Alpha  occ. eigenvalues --   -0.54125  -0.53992  -0.53386  -0.53348  -0.52966
 Alpha  occ. eigenvalues --   -0.52823  -0.52599  -0.52469  -0.51935  -0.51738
 Alpha  occ. eigenvalues --   -0.51119  -0.50643  -0.50405  -0.50291  -0.49977
 Alpha  occ. eigenvalues --   -0.49906  -0.49658  -0.49209  -0.48923  -0.48672
 Alpha  occ. eigenvalues --   -0.48086  -0.47944  -0.47915  -0.47757  -0.47638
 Alpha  occ. eigenvalues --   -0.47533  -0.47343  -0.47011  -0.46973  -0.46885
 Alpha  occ. eigenvalues --   -0.46415  -0.46321  -0.46132  -0.45822  -0.45753
 Alpha  occ. eigenvalues --   -0.45530  -0.45428  -0.45302  -0.45179  -0.45165
 Alpha  occ. eigenvalues --   -0.45043  -0.44828  -0.44660  -0.44505  -0.44252
 Alpha  occ. eigenvalues --   -0.44195  -0.43995  -0.43898  -0.43655  -0.43418
 Alpha  occ. eigenvalues --   -0.43274  -0.43085  -0.43036  -0.42925  -0.42845
 Alpha  occ. eigenvalues --   -0.42689  -0.42363  -0.42242  -0.42014  -0.41939
 Alpha  occ. eigenvalues --   -0.41903  -0.41831  -0.41485  -0.41227  -0.41120
 Alpha  occ. eigenvalues --   -0.40908  -0.40804  -0.40637  -0.40521  -0.40474
 Alpha  occ. eigenvalues --   -0.40248  -0.40159  -0.40047  -0.39899  -0.39402
 Alpha  occ. eigenvalues --   -0.39334  -0.39262  -0.39044  -0.38906  -0.38774
 Alpha  occ. eigenvalues --   -0.38615  -0.38475  -0.38377  -0.38269  -0.38134
 Alpha  occ. eigenvalues --   -0.38130  -0.37865  -0.37811  -0.37542  -0.37516
 Alpha  occ. eigenvalues --   -0.37400  -0.37215  -0.37104  -0.36970  -0.36932
 Alpha  occ. eigenvalues --   -0.36848  -0.36769  -0.36527  -0.36454  -0.36359
 Alpha  occ. eigenvalues --   -0.36224  -0.35900  -0.35788  -0.35514  -0.35204
 Alpha  occ. eigenvalues --   -0.35044  -0.34805  -0.34117  -0.34054  -0.33942
 Alpha  occ. eigenvalues --   -0.33940  -0.33093  -0.33034  -0.32870  -0.32733
 Alpha  occ. eigenvalues --   -0.32393  -0.32003  -0.31713  -0.30987  -0.30950
 Alpha  occ. eigenvalues --   -0.30823  -0.30736  -0.29673  -0.29603  -0.29278
 Alpha  occ. eigenvalues --   -0.28839  -0.28727  -0.28705  -0.26847  -0.26535
 Alpha  occ. eigenvalues --   -0.26470  -0.26422  -0.26021  -0.25635  -0.25626
 Alpha  occ. eigenvalues --   -0.25378  -0.25046  -0.24600  -0.20865  -0.20790
 Alpha  occ. eigenvalues --   -0.19112  -0.18704
 Alpha virt. eigenvalues --   -0.11254  -0.11102  -0.05711  -0.05119  -0.04365
 Alpha virt. eigenvalues --   -0.03809  -0.02049  -0.01959  -0.01669  -0.00333
 Alpha virt. eigenvalues --    0.00008   0.00299   0.00899   0.00998   0.01647

 Mulliken charges:
               1
     1  Mg  12.000257
     2  C    6.000210
     3  C    6.000217
     4  C    5.999764
     5  C    5.999920
     6  N    7.000284
     7  C    5.999880
     8  C    5.999992
     9  C    6.000013
    10  C    5.999994
    11  C    5.999769
    12  C    6.000026
    13  C    5.999982
    14  H    1.000006
    15  N    6.999885
    16  C    5.999890
    17  C    6.000006
    18  C    6.000058
    19  C    6.000047
    20  C    6.000004
    21  C    6.000042
    22  O    8.000101
    23  C    5.999993
    24  N    6.999947
    25  C    6.000165
    26  C    6.000004
    27  C    5.999945
    28  C    6.000030
    29  C    5.999821
    30  C    6.000018
    31  C    6.000010
    32  N    7.000033
    33  C    5.999901
    34  C    6.000037
    35  C    6.000043
    36  C    5.999829
    37  C    5.999997
    38  C    5.999971
    39  O    7.999943
    40  C    5.999973
    41  C    5.999995
    42  O    7.999993
    43  O    7.999999
    44  C    5.999995
    45  H    1.000066
    46  H    0.999999
    47  H    0.999904
    48  H    1.000037
    49  H    1.000021
    50  H    1.000127
    51  H    1.000257
    52  H    1.000109
    53  H    0.999976
    54  H    1.000028
    55  H    1.000010
    56  H    1.000024
    57  H    1.000001
    58  H    1.000013
    59  H    1.000018
    60  H    1.000030
    61  H    1.000014
    62  H    1.000039
    63  H    0.999994
    64  H    1.000009
    65  H    1.000302
    66  H    1.000070
    67  H    1.000038
    68  H    1.000007
    69  H    0.999964
    70  H    0.999997
    71  H    0.999997
    72  H    0.999984
    73  H    1.000025
    74  H    1.000004
    75  H    1.000011
    76  H    1.000017
    77  H    0.999997
    78  H    1.000011
    79  H    1.000011
    80  Mg  11.999995
    81  C    6.000043
    82  C    6.000027
    83  C    5.999963
    84  C    5.999969
    85  N    7.000035
    86  C    5.999893
    87  C    6.000029
    88  C    6.000028
    89  C    5.999937
    90  C    5.999902
    91  C    6.000008
    92  C    6.000007
    93  H    0.999981
    94  N    6.999990
    95  C    6.000006
    96  C    5.999973
    97  C    6.000099
    98  C    6.000137
    99  C    6.000101
   100  C    5.999962
   101  O    7.999841
   102  C    6.000049
   103  N    6.999956
   104  C    6.000041
   105  C    5.999979
   106  C    6.000004
   107  C    5.999965
   108  C    5.999956
   109  C    6.000017
   110  C    6.000018
   111  N    7.000019
   112  C    5.999952
   113  C    5.999921
   114  C    6.000013
   115  C    5.999976
   116  C    5.999998
   117  C    5.999965
   118  O    7.999929
   119  C    5.999994
   120  C    5.999992
   121  O    7.999984
   122  O    7.999998
   123  C    6.000003
   124  H    0.999961
   125  H    0.999984
   126  H    0.999944
   127  H    0.999960
   128  H    0.999954
   129  H    1.000032
   130  H    1.000078
   131  H    1.000007
   132  H    0.999995
   133  H    0.999997
   134  H    0.999971
   135  H    0.999994
   136  H    0.999713
   137  H    0.999918
   138  H    1.000071
   139  H    0.999917
   140  H    0.999953
   141  H    0.999999
   142  H    1.000013
   143  H    1.000003
   144  H    1.000015
   145  H    1.000020
   146  H    1.000018
   147  H    0.999968
   148  H    1.000001
   149  H    0.999983
   150  H    0.999976
   151  H    1.000017
   152  H    0.999938
   153  H    0.999961
   154  H    0.999944
   155  H    0.999979
   156  H    0.999987
   157  H    0.999992
   158  H    0.999988
 Sum of Mulliken charges = 624.00000

 Dipole moment (field-independent basis, Debye):
    X=             -0.0317    Y=              0.0083    Z=              0.0186  Tot=              0.0377
 Quadrupole moment (field-independent basis, Debye-Ang):
   XX=             -0.2814   YY=              0.0085   ZZ=              0.0448
   XY=             -0.0248   XZ=             -0.0579   YZ=             -0.0183

 Normal termination of Gaussian 16 at Thu Oct 14 06:54:20 2021.
