 Gaussian 16, Revision A.03,
 Gaussian 16:  ES64L-G16RevA.03 25-Dec-2016

 --------------------------------------------------------
 #p PBE1PBE/Def2SVP td=(nstates=5) density=(transition=1)
 --------------------------------------------------------

 --------------------------------
 TDDFT excited states in gaussian
 --------------------------------
 Symbolic Z-matrix:
 Charge =  0 Multiplicity = 1

                         Standard orientation:
 ---------------------------------------------------------------------
 Center     Atomic      Atomic             Coordinates (Angstroms)
 Number     Number       Type             X           Y           Z
 ---------------------------------------------------------------------
      1         12           0       -0.720166    0.127069    0.339434
      2          6           0        2.759057    0.063244    0.327411
      3          6           0       -0.799202   -3.236379    0.159451
      4          6           0       -4.066168    0.323014   -0.098003
      5          6           0       -0.548413    3.557052    0.030383
      6          7           0        0.867588   -1.415480    0.234848
      7          6           0        2.205518   -1.210052    0.456876
      8          6           0        2.920860   -2.505143    0.532607
      9          6           0        1.852087   -3.599428    0.429497
     10          6           0        0.516389   -2.751211    0.279896
     11          6           0        2.015560   -4.692731   -0.614952
     12          6           0        3.843625   -2.599621    1.876363
     13          6           0        5.371333   -2.753077    1.689756
     14          1           0        6.172782   -3.664757    2.586092
     15          7           0       -2.233471   -1.256371    0.190318
     16          6           0       -2.070777   -2.631610    0.116217
     17          6           0       -3.334362   -3.251142   -0.055176
     18          6           0       -4.318310   -2.229003   -0.139321
     19          6           0       -3.553962   -0.985858    0.005563
     20          6           0       -3.410131   -4.826885    0.005930
     21          6           0       -5.804877   -2.455840   -0.408645
     22          8           0       -6.651704   -1.562304   -0.559942
     23          6           0       -6.338510   -3.820613   -0.421059
     24          7           0       -2.144810    1.675549   -0.237071
     25          6           0       -3.455049    1.542466   -0.239769
     26          6           0       -4.145439    2.867417   -0.634729
     27          6           0       -3.039988    3.850440   -0.081130
     28          6           0       -1.798463    2.964353   -0.063333
     29          6           0       -4.467065    3.188431   -2.141306
     30          6           0       -3.312319    4.520140    1.350221
     31          6           0       -3.492157    3.630752    2.511563
     32          7           0        0.790827    1.642569    0.150563
     33          6           0        0.704186    3.044516    0.043634
     34          6           0        2.020034    3.596159   -0.019683
     35          6           0        2.856955    2.498735    0.018440
     36          6           0        2.053636    1.330869    0.231451
     37          6           0        2.365862    4.963147   -0.357968
     38          6           0        4.183709    2.121907    0.163851
     39          8           0        5.230076    2.778515    0.159430
     40          6           0        4.229624    0.529756    0.273006
     41          6           0        4.842295    0.062642   -1.005859
     42          8           0        4.507157    0.206463   -2.162897
     43          8           0        5.952468   -0.580934   -0.640631
     44          6           0        6.756444   -1.187743   -1.751622
     45          1           0       -0.700331   -4.310293    0.330730
     46          1           0       -5.157323    0.336306   -0.082045
     47          1           0       -0.511428    4.647776   -0.001034
     48          1           0        3.567237   -2.515588   -0.344119
     49          1           0        1.767131   -4.100613    1.393452
     50          1           0        1.407066   -4.214277   -1.381458
     51          1           0        1.708316   -5.692241   -0.306734
     52          1           0        2.995702   -4.880536   -1.052458
     53          1           0        3.471334   -3.413658    2.497626
     54          1           0        3.830466   -1.692156    2.480571
     55          1           0        5.797668   -1.772499    1.903401
     56          1           0        5.640137   -2.938500    0.650672
     57          1           0       -3.935551   -5.180220   -0.881105
     58          1           0       -4.078630   -4.888982    0.864709
     59          1           0       -2.478178   -5.392076   -0.009005
     60          1           0       -5.828115   -4.433880   -1.162398
     61          1           0       -7.319875   -3.744305   -0.888648
     62          1           0       -6.428511   -4.294711    0.556638
     63          1           0       -4.977480    3.033518    0.049680
     64          1           0       -3.021514    4.651945   -0.819223
     65          1           0       -3.704413    2.894114   -2.861304
     66          1           0       -4.622589    4.267636   -2.118375
     67          1           0       -5.386057    2.691720   -2.453608
     68          1           0       -4.209417    5.139339    1.372790
     69          1           0       -2.424511    5.033055    1.719995
     70          1           0       -2.469131    3.383241    2.791375
     71          1           0       -4.016780    2.683590    2.382404
     72          1           0       -3.945371    4.039558    3.414058
     73          1           0        2.323510    4.973941   -1.447745
     74          1           0        3.354785    5.290037   -0.037900
     75          1           0        1.726495    5.704167    0.123072
     76          1           0        4.728644    0.171714    1.173562
     77          1           0        6.562546   -2.257434   -1.669362
     78          1           0        7.807080   -0.925027   -1.630237
     79          1           0        6.479476   -0.924755   -2.772905
 ---------------------------------------------------------------------

 SCF Done:  E(RPBE1PBE) =  -2033.66579363     A.U. after   16 cycles

 Excitation energies and oscillator strengths:

 Excited State   1:      Singlet-A      1.8587 eV  667.05 nm  f=0.3486  <S**2>=0.000
     155 ->158         0.16393
     156 ->157         0.69252
     156 <-157        -0.10764
 This state for optimization and/or second-order correction.
 Total Energy, E(TD-HF/TD-DFT) =  -2033.59748774
 Copying the excited state density for this state as the 1-particle RhoCI density.

 Excited State   2:      Singlet-A      2.1770 eV  569.51 nm  f=0.1437  <S**2>=0.000
     155 ->157         0.66030
     156 ->158        -0.23454

 Excited State   3:      Singlet-A      2.8067 eV  441.75 nm  f=0.0014  <S**2>=0.000
     154 ->157         0.66793
     154 ->159         0.14965

 Excited State   4:      Singlet-A      3.0643 eV  404.60 nm  f=0.0004  <S**2>=0.000
     152 ->157         0.47513
     152 ->159        -0.12228
     153 ->157        -0.47311

 Excited State   5:      Singlet-A      3.1186 eV  397.56 nm  f=0.0014  <S**2>=0.000
     151 ->157        -0.10124
     152 ->157         0.47840
     153 ->157         0.48707

 The electronic state is 1-A.
 Alpha  occ. eigenvalues --  -46.92746 -19.25698 -19.19316 -19.18917 -19.18484
 Alpha  occ. eigenvalues --  -14.41650 -14.41234 -14.39397 -14.38626 -10.35619
 Alpha  occ. eigenvalues --  -10.32225 -10.31291 -10.29225 -10.28945 -10.28925
 Alpha  occ. eigenvalues --  -10.28381 -10.28026 -10.27847 -10.27528 -10.26811
 Alpha  occ. eigenvalues --  -10.26638 -10.26448 -10.26384 -10.26366 -10.25825
 Alpha  occ. eigenvalues --  -10.25821 -10.25690 -10.25639 -10.25552 -10.25354
 Alpha  occ. eigenvalues --  -10.25277 -10.25144 -10.25034 -10.24923 -10.24025
 Alpha  occ. eigenvalues --  -10.23993 -10.23979 -10.23760 -10.23415 -10.23389
 Alpha  occ. eigenvalues --  -10.22898 -10.22353 -10.22134  -3.14739  -1.87583
 Alpha  occ. eigenvalues --   -1.87091  -1.86978  -1.11792  -1.03869  -1.03310
 Alpha  occ. eigenvalues --   -1.02184  -1.00047  -0.98941  -0.98072  -0.97330
 Alpha  occ. eigenvalues --   -0.86572  -0.83533  -0.83054  -0.82707  -0.82281
 Alpha  occ. eigenvalues --   -0.81958  -0.81174  -0.78958  -0.78553  -0.77381
 Alpha  occ. eigenvalues --   -0.76259  -0.75851  -0.75098  -0.73096  -0.71990
 Alpha  occ. eigenvalues --   -0.71725  -0.70313  -0.69710  -0.67937  -0.66157
 Alpha  occ. eigenvalues --   -0.63792  -0.63489  -0.62181  -0.61590  -0.60287
 Alpha  occ. eigenvalues --   -0.59928  -0.59343  -0.58503  -0.56634  -0.55025
 Alpha  occ. eigenvalues --   -0.54503  -0.53896  -0.53273  -0.52838  -0.52391
 Alpha  occ. eigenvalues --   -0.51053  -0.50268  -0.50114  -0.49636  -0.49364
 Alpha  occ. eigenvalues --   -0.49208  -0.47918  -0.47831  -0.47464  -0.47297
 Alpha  occ. eigenvalues --   -0.46748  -0.46504  -0.45865  -0.45700  -0.45003
 Alpha  occ. eigenvalues --   -0.44433  -0.44334  -0.44137  -0.43846  -0.43611
 Alpha  occ. eigenvalues --   -0.43169  -0.42991  -0.42736  -0.41993  -0.41787
 Alpha  occ. eigenvalues --   -0.41546  -0.41412  -0.40992  -0.40767  -0.40541
 Alpha  occ. eigenvalues --   -0.40091  -0.39422  -0.39151  -0.39020  -0.38867
 Alpha  occ. eigenvalues --   -0.38549  -0.38194  -0.38059  -0.37774  -0.37312
 Alpha  occ. eigenvalues --   -0.37040  -0.36964  -0.36730  -0.36447  -0.35965
 Alpha  occ. eigenvalues --   -0.35809  -0.35595  -0.35111  -0.34389  -0.33894
 Alpha  occ. eigenvalues --   -0.33071  -0.33059  -0.32701  -0.32053  -0.31386
 Alpha  occ. eigenvalues --   -0.31190  -0.29694  -0.29213  -0.28997  -0.27122
 Alpha  occ. eigenvalues --   -0.26188  -0.25809  -0.25742  -0.25251  -0.20983
 Alpha  occ. eigenvalues --   -0.19090
 Alpha virt. eigenvalues --   -0.11451  -0.05177  -0.03932  -0.02141  -0.00618
 Alpha virt. eigenvalues --    0.01020   0.01913   0.02351   0.03276   0.04478
 Alpha virt. eigenvalues --    0.04634   0.05446   0.05993   0.06278   0.06936

 Mulliken charges:
               1
     1  Mg  11.996939
     2  C    5.970121
     3  C    5.997092
     4  C    6.029800
     5  C    6.017327
     6  N    6.979375
     7  C    6.032013
     8  C    5.989614
     9  C    6.004483
    10  C    5.977830
    11  C    6.002272
    12  C    5.998377
    13  C    5.999854
    14  H    1.002789
    15  N    7.006153
    16  C    5.967367
    17  C    5.981550
    18  C    5.987078
    19  C    5.966233
    20  C    5.999436
    21  C    5.988147
    22  O    7.971991
    23  C    6.007701
    24  N    7.022787
    25  C    5.962655
    26  C    6.009030
    27  C    5.991015
    28  C    6.018930
    29  C    5.998879
    30  C    5.991132
    31  C    6.000941
    32  N    6.996119
    33  C    6.025694
    34  C    6.029196
    35  C    6.004641
    36  C    6.027761
    37  C    5.997126
    38  C    6.012007
    39  O    8.033109
    40  C    6.001450
    41  C    6.003812
    42  O    8.002364
    43  O    8.001165
    44  C    5.998299
    45  H    0.985587
    46  H    0.999451
    47  H    1.014855
    48  H    0.998544
    49  H    0.996923
    50  H    1.000601
    51  H    0.998331
    52  H    0.987057
    53  H    1.006313
    54  H    0.995066
    55  H    0.994303
    56  H    1.000030
    57  H    0.983871
    58  H    0.985986
    59  H    0.986601
    60  H    0.995235
    61  H    0.987099
    62  H    0.991740
    63  H    1.002181
    64  H    1.005018
    65  H    0.996652
    66  H    0.993992
    67  H    1.006332
    68  H    1.010261
    69  H    0.996873
    70  H    0.993978
    71  H    1.015224
    72  H    1.004668
    73  H    1.019167
    74  H    1.014996
    75  H    1.015023
    76  H    1.006801
    77  H    1.006388
    78  H    1.001396
    79  H    1.001805
 Sum of Mulliken charges = 312.00000

 Dipole moment (field-independent basis, Debye):
    X=              5.8984    Y=              8.0053    Z=              0.1783  Tot=              9.9453
 Quadrupole moment (field-independent basis, Debye-Ang):
   XX=             -6.5463   YY=              2.4574   ZZ=              0.3989
   XY=             -5.0526   XZ=             -1.7146   YZ=              0.0387

 Normal termination of Gaussian 16 at Wed Oct 13 18:53:02 2021.
