 Gaussian 16, Revision A.03,
 Gaussian 16:  ES64L-G16RevA.03 25-Dec-2016

 --------------------------------------------------------
 #p PBE1PBE/Def2SVP td=(nstates=5) density=(transition=1)
 --------------------------------------------------------

 --------------------------------
 TDDFT excited states in gaussian
 --------------------------------
 Symbolic Z-matrix:
 Charge =  0 Multiplicity = 1

                         Standard orientation:
 ---------------------------------------------------------------------
 Center     Atomic      Atomic             Coordinates (Angstroms)
 Number     Number       Type             X           Y           Z
 ---------------------------------------------------------------------
      1         12           0       28.548853    0.119971    0.287972
      2          6           0       25.170564   -0.381059    0.210509
      3          6           0       28.923416   -3.405026   -0.023037
      4          6           0       31.873064    0.598537   -0.038381
      5          6           0       28.030455    3.507330   -0.339879
      6          7           0       27.116807   -1.714117   -0.274340
      7          6           0       25.784435   -1.647942    0.003372
      8          6           0       25.156292   -3.000748   -0.187157
      9          6           0       26.390607   -3.997741   -0.296781
     10          6           0       27.604744   -3.022627   -0.181832
     11          6           0       26.263782   -5.289766    0.424406
     12          6           0       24.025257   -3.204661   -1.302755
     13          6           0       24.099435   -2.371469   -2.547849
     14          1           0       23.953040   -3.099177   -3.876872
     15          7           0       30.161663   -1.227925    0.249575
     16          6           0       30.126780   -2.584722    0.156615
     17          6           0       31.440071   -3.155805    0.104120
     18          6           0       32.340812   -1.974864    0.219673
     19          6           0       31.462568   -0.786390    0.152908
     20          6           0       31.819137   -4.556489    0.012628
     21          6           0       33.855028   -1.940734    0.369129
     22          8           0       34.491619   -2.927109    0.252860
     23          6           0       34.706704   -0.717092    0.564496
     24          7           0       29.738773    1.760553   -0.250990
     25          6           0       31.074179    1.718052   -0.127568
     26          6           0       31.738368    3.108065   -0.621236
     27          6           0       30.492372    4.078968   -0.330891
     28          6           0       29.374757    3.063879   -0.364203
     29          6           0       33.021485    3.527988    0.101231
     30          6           0       30.423382    5.269255   -1.304592
     31          6           0       30.207920    6.695798   -0.785569
     32          7           0       26.935613    1.324410   -0.118345
     33          6           0       26.833901    2.695695   -0.317109
     34          6           0       25.488296    3.120969   -0.325783
     35          6           0       24.755670    1.973793   -0.069249
     36          6           0       25.681550    0.877959    0.054064
     37          6           0       24.966204    4.515318   -0.486077
     38          6           0       23.507426    1.380322    0.174796
     39          8           0       22.409327    1.933003    0.176110
     40          6           0       23.675936   -0.165682    0.193093
     41          6           0       22.960810   -0.575051    1.472281
     42          8           0       22.074379   -1.453531    1.529599
     43          8           0       23.570233    0.083407    2.514213
     44          6           0       23.295934   -0.259738    3.931072
     45          1           0       28.968747   -4.473341   -0.244348
     46          1           0       32.913363    0.728124   -0.343668
     47          1           0       27.878918    4.581059   -0.465890
     48          1           0       24.563570   -3.231444    0.698790
     49          1           0       26.453215   -4.277986   -1.347880
     50          1           0       27.135326   -5.535438    1.031049
     51          1           0       25.960681   -6.102682   -0.235460
     52          1           0       25.465996   -5.211391    1.163043
     53          1           0       23.011131   -3.003735   -0.957193
     54          1           0       24.103852   -4.210470   -1.716578
     55          1           0       24.908333   -1.641754   -2.561734
     56          1           0       23.182252   -1.782820   -2.586007
     57          1           0       31.057790   -5.157493    0.508885
     58          1           0       32.789985   -4.784693    0.450872
     59          1           0       31.845984   -4.803268   -1.049342
     60          1           0       33.953822   -0.166591    1.129108
     61          1           0       34.942803   -0.210016   -0.370522
     62          1           0       35.639786   -0.841846    1.114192
     63          1           0       31.848973    3.012717   -1.701836
     64          1           0       30.394973    4.521812    0.660014
     65          1           0       32.753655    4.347407    0.768814
     66          1           0       33.830696    3.669881   -0.614519
     67          1           0       33.424632    2.748100    0.746571
     68          1           0       29.617391    5.049072   -2.005101
     69          1           0       31.308208    5.230020   -1.940099
     70          1           0       30.872325    7.485328   -1.137049
     71          1           0       30.120140    6.744786    0.300577
     72          1           0       29.168684    6.875650   -1.058924
     73          1           0       24.060604    4.731342    0.081289
     74          1           0       24.763720    4.687191   -1.543479
     75          1           0       25.662540    5.279044   -0.137295
     76          1           0       23.160401   -0.472653   -0.716088
     77          1           0       24.190450   -0.220299    4.552428
     78          1           0       22.884521   -1.268807    3.960748
     79          1           0       22.576835    0.314878    4.513523
     80         12           0      -28.129521    0.649375    0.236298
     81          6           0      -26.873524   -2.492024   -0.602532
     82          6           0      -25.717243    2.099882   -1.754059
     83          6           0      -29.535659    3.493171    1.075288
     84          6           0      -31.172993   -0.999685    1.376657
     85          7           0      -26.394424   -0.195339   -1.017704
     86          6           0      -26.086491   -1.507703   -1.242438
     87          6           0      -24.871937   -1.631126   -2.092359
     88          6           0      -24.529517   -0.141781   -2.496517
     89          6           0      -25.609684    0.699634   -1.710973
     90          6           0      -23.043954    0.255918   -2.307344
     91          6           0      -25.090230   -2.527899   -3.335169
     92          6           0      -24.006570   -3.600895   -3.425828
     93          1           0      -23.223252   -3.720365   -4.767896
     94          7           0      -27.661165    2.549944   -0.250443
     95          6           0      -26.604156    2.982257   -1.050044
     96          6           0      -26.645602    4.437783   -0.993819
     97          6           0      -27.750368    4.883637   -0.129625
     98          6           0      -28.359670    3.604799    0.354727
     99          6           0      -25.816834    5.276250   -1.831649
    100          6           0      -28.141430    6.298832   -0.017651
    101          8           0      -27.557662    7.213546   -0.560277
    102          6           0      -29.360908    6.769167    0.695457
    103          7           0      -30.028016    1.127788    1.030528
    104          6           0      -30.232400    2.383214    1.544522
    105          6           0      -31.601282    2.467137    2.186191
    106          6           0      -32.253629    1.186199    1.821688
    107          6           0      -31.147548    0.396108    1.323774
    108          6           0      -31.600656    2.842293    3.724721
    109          6           0      -33.272412    1.326699    0.639001
    110          6           0      -34.395163    0.395518    0.627553
    111          7           0      -28.910428   -1.344249    0.410105
    112          6           0      -30.099957   -1.861710    0.939402
    113          6           0      -29.965241   -3.276448    1.091857
    114          6           0      -28.758499   -3.586269    0.475810
    115          6           0      -28.150787   -2.359303    0.028155
    116          6           0      -30.988607   -4.142647    1.728422
    117          6           0      -27.916867   -4.647220    0.087692
    118          8           0      -28.043351   -5.840886    0.246414
    119          6           0      -26.668587   -4.004899   -0.557465
    120          6           0      -25.469156   -4.451476    0.168753
    121          8           0      -25.002028   -3.920946    1.190678
    122          8           0      -25.028772   -5.643339   -0.359451
    123          6           0      -23.795421   -6.246524    0.118861
    124          1           0      -24.890485    2.490931   -2.349799
    125          1           0      -30.137666    4.355348    1.372946
    126          1           0      -32.093392   -1.451014    1.753045
    127          1           0      -24.074166   -1.857986   -1.384553
    128          1           0      -24.680247    0.067751   -3.555070
    129          1           0      -22.549474   -0.714963   -2.257892
    130          1           0      -22.819611    0.929569   -1.480255
    131          1           0      -22.682948    0.771027   -3.197200
    132          1           0      -24.982327   -2.004637   -4.285072
    133          1           0      -26.089124   -2.951279   -3.231577
    134          1           0      -24.638025   -4.488384   -3.386979
    135          1           0      -23.383603   -3.506096   -2.537655
    136          1           0      -25.157034    4.627697   -2.408365
    137          1           0      -25.126347    5.939748   -1.310115
    138          1           0      -26.448961    5.821635   -2.533295
    139          1           0      -29.246139    6.205089    1.621080
    140          1           0      -30.238508    6.440559    0.138113
    141          1           0      -29.326598    7.844480    0.871797
    142          1           0      -32.054353    3.319611    1.681453
    143          1           0      -32.662549    0.574872    2.626218
    144          1           0      -30.607500    3.163753    4.038973
    145          1           0      -32.055088    2.098290    4.379911
    146          1           0      -32.136257    3.766367    3.940477
    147          1           0      -32.733582    1.260782   -0.306286
    148          1           0      -33.722215    2.319433    0.635780
    149          1           0      -35.200332    0.814263    1.232232
    150          1           0      -34.109755   -0.601595    0.964452
    151          1           0      -34.875048    0.412708   -0.351506
    152          1           0      -31.440575   -3.650834    2.589679
    153          1           0      -30.621411   -5.130546    2.006953
    154          1           0      -31.785058   -4.182947    0.985298
    155          1           0      -26.457278   -4.395657   -1.552922
    156          1           0      -23.777309   -6.702894    1.108611
    157          1           0      -22.982215   -5.525920    0.034517
    158          1           0      -23.642783   -7.093318   -0.549246
 ---------------------------------------------------------------------

 SCF Done:  E(RPBE1PBE) =  -4067.29950213     A.U. after   16 cycles

 Excitation energies and oscillator strengths:

 Excited State   1:      Singlet-A      1.7944 eV  690.97 nm  f=0.3700  <S**2>=0.000
     309 -> 316       -0.16558
     311 -> 313        0.69590
     311 <- 313       -0.11768
 This state for optimization and/or second-order correction.
 Total Energy, E(TD-HF/TD-DFT) =  -4067.23356062
 Copying the excited state density for this state as the 1-particle RhoCI density.

 Excited State   2:      Singlet-A      1.8373 eV  674.81 nm  f=0.3543  <S**2>=0.000
     310 -> 315       -0.18252
     312 -> 314        0.68986
     312 <- 314       -0.10422

 Excited State   3:      Singlet-A      1.8822 eV  658.72 nm  f=0.0000  <S**2>=0.000
     312 -> 313        0.70711

 Excited State   4:      Singlet-A      2.0480 eV  605.39 nm  f=0.0000  <S**2>=0.000
     311 -> 314        0.70711

 Excited State   5:      Singlet-A      2.1559 eV  575.09 nm  f=0.1300  <S**2>=0.000
     308 -> 313       -0.10056
     309 -> 313        0.65387
     311 -> 316        0.23198

 The electronic state is 1-A.
 Alpha  occ. eigenvalues --  -46.93353 -46.92305 -19.26769 -19.25500 -19.20504
 Alpha  occ. eigenvalues --  -19.19562 -19.18612 -19.18517 -19.17619 -19.17574
 Alpha  occ. eigenvalues --  -14.42116 -14.41816 -14.41509 -14.41435 -14.39905
 Alpha  occ. eigenvalues --  -14.39832 -14.39224 -14.38838 -10.37437 -10.36071
 Alpha  occ. eigenvalues --  -10.31337 -10.31254 -10.30915 -10.30788 -10.29941
 Alpha  occ. eigenvalues --  -10.29658 -10.29310 -10.29305 -10.29203 -10.29166
 Alpha  occ. eigenvalues --  -10.28894 -10.28867 -10.28783 -10.28704 -10.28691
 Alpha  occ. eigenvalues --  -10.28656 -10.28238 -10.28232 -10.28180 -10.27681
 Alpha  occ. eigenvalues --  -10.26863 -10.26818 -10.26772 -10.26477 -10.26384
 Alpha  occ. eigenvalues --  -10.26240 -10.26236 -10.26181 -10.26139 -10.26123
 Alpha  occ. eigenvalues --  -10.26121 -10.26011 -10.25960 -10.25899 -10.25812
 Alpha  occ. eigenvalues --  -10.25780 -10.25733 -10.25665 -10.25433 -10.25399
 Alpha  occ. eigenvalues --  -10.25252 -10.25144 -10.25122 -10.25034 -10.25011
 Alpha  occ. eigenvalues --  -10.24913 -10.24769 -10.24751 -10.24745 -10.24400
 Alpha  occ. eigenvalues --  -10.24310 -10.24275 -10.24088 -10.24048 -10.23925
 Alpha  occ. eigenvalues --  -10.23836 -10.23680 -10.23646 -10.23560 -10.22980
 Alpha  occ. eigenvalues --  -10.22972 -10.22708 -10.22624 -10.22497 -10.22459
 Alpha  occ. eigenvalues --  -10.22238  -3.15405  -3.14377  -1.88201  -1.87815
 Alpha  occ. eigenvalues --   -1.87602  -1.87220  -1.86760  -1.86589  -1.10327
 Alpha  occ. eigenvalues --   -1.10186  -1.06385  -1.04833  -1.04556  -1.03911
 Alpha  occ. eigenvalues --   -1.01983  -1.01478  -0.99754  -0.99578  -0.98941
 Alpha  occ. eigenvalues --   -0.98455  -0.97634  -0.97616  -0.96915  -0.96153
 Alpha  occ. eigenvalues --   -0.87938  -0.87007  -0.85097  -0.84113  -0.83838
 Alpha  occ. eigenvalues --   -0.83365  -0.83008  -0.82744  -0.82182  -0.82038
 Alpha  occ. eigenvalues --   -0.81590  -0.81581  -0.80539  -0.80362  -0.79513
 Alpha  occ. eigenvalues --   -0.78873  -0.78851  -0.78230  -0.77725  -0.77384
 Alpha  occ. eigenvalues --   -0.76786  -0.76429  -0.75720  -0.75316  -0.75143
 Alpha  occ. eigenvalues --   -0.74877  -0.73000  -0.72798  -0.72271  -0.72121
 Alpha  occ. eigenvalues --   -0.71398  -0.71390  -0.70959  -0.70607  -0.69877
 Alpha  occ. eigenvalues --   -0.69727  -0.68070  -0.67855  -0.66475  -0.66218
 Alpha  occ. eigenvalues --   -0.64375  -0.63832  -0.63787  -0.63462  -0.62724
 Alpha  occ. eigenvalues --   -0.62333  -0.61850  -0.61175  -0.60920  -0.60665
 Alpha  occ. eigenvalues --   -0.60399  -0.60097  -0.59796  -0.59260  -0.59241
 Alpha  occ. eigenvalues --   -0.58841  -0.58114  -0.56600  -0.55285  -0.54846
 Alpha  occ. eigenvalues --   -0.54062  -0.54010  -0.53996  -0.53622  -0.53525
 Alpha  occ. eigenvalues --   -0.52628  -0.52525  -0.51988  -0.51845  -0.51838
 Alpha  occ. eigenvalues --   -0.51145  -0.50976  -0.50375  -0.50371  -0.50027
 Alpha  occ. eigenvalues --   -0.49876  -0.49724  -0.49656  -0.49007  -0.48980
 Alpha  occ. eigenvalues --   -0.48808  -0.48507  -0.47960  -0.47890  -0.47732
 Alpha  occ. eigenvalues --   -0.47450  -0.47080  -0.47074  -0.46752  -0.46492
 Alpha  occ. eigenvalues --   -0.46472  -0.46396  -0.46382  -0.46322  -0.46263
 Alpha  occ. eigenvalues --   -0.46006  -0.45955  -0.45802  -0.45663  -0.45377
 Alpha  occ. eigenvalues --   -0.45181  -0.44998  -0.44636  -0.44636  -0.44321
 Alpha  occ. eigenvalues --   -0.44180  -0.44144  -0.44089  -0.43844  -0.43760
 Alpha  occ. eigenvalues --   -0.43640  -0.43470  -0.43211  -0.43089  -0.42956
 Alpha  occ. eigenvalues --   -0.42488  -0.42322  -0.42286  -0.42010  -0.41933
 Alpha  occ. eigenvalues --   -0.41838  -0.41823  -0.41709  -0.41677  -0.41482
 Alpha  occ. eigenvalues --   -0.41260  -0.41187  -0.41012  -0.40932  -0.40869
 Alpha  occ. eigenvalues --   -0.40485  -0.40293  -0.40149  -0.40142  -0.40069
 Alpha  occ. eigenvalues --   -0.39761  -0.39736  -0.39566  -0.39313  -0.39228
 Alpha  occ. eigenvalues --   -0.38979  -0.38862  -0.38800  -0.38505  -0.38331
 Alpha  occ. eigenvalues --   -0.38204  -0.38078  -0.37957  -0.37875  -0.37798
 Alpha  occ. eigenvalues --   -0.37513  -0.37469  -0.37399  -0.37105  -0.36944
 Alpha  occ. eigenvalues --   -0.36900  -0.36768  -0.36596  -0.36546  -0.36415
 Alpha  occ. eigenvalues --   -0.36346  -0.36205  -0.36133  -0.36041  -0.35571
 Alpha  occ. eigenvalues --   -0.35478  -0.35136  -0.35131  -0.34070  -0.33943
 Alpha  occ. eigenvalues --   -0.33681  -0.33507  -0.33053  -0.32663  -0.32330
 Alpha  occ. eigenvalues --   -0.32299  -0.32006  -0.31834  -0.31381  -0.31225
 Alpha  occ. eigenvalues --   -0.31149  -0.30668  -0.29812  -0.29514  -0.28982
 Alpha  occ. eigenvalues --   -0.28907  -0.28587  -0.28209  -0.27159  -0.27015
 Alpha  occ. eigenvalues --   -0.26332  -0.25680  -0.25471  -0.25272  -0.25038
 Alpha  occ. eigenvalues --   -0.24945  -0.24312  -0.23745  -0.21413  -0.21246
 Alpha  occ. eigenvalues --   -0.19358  -0.19207
 Alpha virt. eigenvalues --   -0.12056  -0.11599  -0.05952  -0.05484  -0.03931
 Alpha virt. eigenvalues --   -0.03889  -0.02032  -0.01892  -0.01792  -0.00172
 Alpha virt. eigenvalues --   -0.00049  -0.00033   0.00612   0.00760   0.01239

 Mulliken charges:
               1
     1  Mg  12.002472
     2  C    6.000953
     3  C    5.985811
     4  C    5.982828
     5  C    6.012753
     6  N    6.995149
     7  C    5.975061
     8  C    6.009444
     9  C    5.986670
    10  C    6.035099
    11  C    5.998715
    12  C    6.000494
    13  C    6.002699
    14  H    0.989868
    15  N    6.996205
    16  C    6.042162
    17  C    6.023222
    18  C    6.006560
    19  C    6.040080
    20  C    5.996303
    21  C    6.010227
    22  O    8.019089
    23  C    6.000890
    24  N    7.002605
    25  C    6.029123
    26  C    5.990457
    27  C    6.011063
    28  C    5.965129
    29  C    5.999636
    30  C    6.002083
    31  C    5.998696
    32  N    7.000541
    33  C    5.968157
    34  C    5.975980
    35  C    5.993136
    36  C    5.975989
    37  C    6.002155
    38  C    5.983175
    39  O    7.965852
    40  C    6.001903
    41  C    5.994188
    42  O    7.988888
    43  O    8.005068
    44  C    6.004799
    45  H    1.008919
    46  H    1.006484
    47  H    0.991917
    48  H    1.001982
    49  H    1.005637
    50  H    0.994857
    51  H    1.003954
    52  H    1.008907
    53  H    1.003114
    54  H    0.991133
    55  H    1.004003
    56  H    1.003863
    57  H    1.017702
    58  H    1.014790
    59  H    1.021077
    60  H    1.004495
    61  H    1.011368
    62  H    1.012211
    63  H    1.003765
    64  H    0.996849
    65  H    1.007440
    66  H    1.000912
    67  H    0.993556
    68  H    1.002779
    69  H    0.990600
    70  H    0.995491
    71  H    0.999047
    72  H    1.004781
    73  H    0.987297
    74  H    0.982619
    75  H    0.982859
    76  H    0.991927
    77  H    0.993017
    78  H    0.993340
    79  H    0.995932
    80  Mg  12.000002
    81  C    6.000069
    82  C    6.000018
    83  C    5.999967
    84  C    5.999966
    85  N    7.000049
    86  C    5.999879
    87  C    6.000017
    88  C    5.999969
    89  C    6.000046
    90  C    5.999977
    91  C    5.999998
    92  C    5.999990
    93  H    1.000001
    94  N    6.999990
    95  C    6.000085
    96  C    6.000102
    97  C    6.000021
    98  C    6.000092
    99  C    5.999952
   100  C    6.000068
   101  O    8.000061
   102  C    5.999988
   103  N    7.000018
   104  C    6.000085
   105  C    5.999959
   106  C    6.000033
   107  C    5.999938
   108  C    5.999998
   109  C    6.000034
   110  C    6.000016
   111  N    6.999993
   112  C    5.999909
   113  C    5.999911
   114  C    6.000027
   115  C    5.999912
   116  C    6.000009
   117  C    5.999874
   118  O    7.999878
   119  C    6.000031
   120  C    5.999965
   121  O    7.999989
   122  O    7.999993
   123  C    6.000012
   124  H    1.000074
   125  H    1.000033
   126  H    0.999934
   127  H    1.000013
   128  H    1.000011
   129  H    1.000067
   130  H    1.000017
   131  H    1.000027
   132  H    0.999977
   133  H    1.000012
   134  H    1.000003
   135  H    1.000019
   136  H    1.000091
   137  H    1.000118
   138  H    1.000076
   139  H    1.000027
   140  H    1.000026
   141  H    1.000049
   142  H    0.999989
   143  H    0.999994
   144  H    1.000001
   145  H    1.000030
   146  H    0.999992
   147  H    0.999981
   148  H    0.999927
   149  H    0.999958
   150  H    1.000019
   151  H    0.999966
   152  H    0.999916
   153  H    0.999932
   154  H    0.999906
   155  H    0.999960
   156  H    0.999986
   157  H    1.000003
   158  H    0.999975
 Sum of Mulliken charges = 624.00000

 Dipole moment (field-independent basis, Debye):
    X=              8.5167    Y=             -6.0111    Z=              0.2813  Tot=             10.4282
 Quadrupole moment (field-independent basis, Debye-Ang):
   XX=            480.5088   YY=              0.7919   ZZ=             -1.5180
   XY=           -175.2529   XZ=             10.1816   YZ=              0.8052

 Normal termination of Gaussian 16 at Thu Oct 14 06:01:48 2021.
