 Gaussian 16, Revision A.03,
 Gaussian 16:  ES64L-G16RevA.03 25-Dec-2016

 --------------------------------------------------------
 #p PBE1PBE/Def2SVP td=(nstates=5) density=(transition=1)
 --------------------------------------------------------

 --------------------------------
 TDDFT excited states in gaussian
 --------------------------------
 Symbolic Z-matrix:
 Charge =  0 Multiplicity = 1

                         Standard orientation:
 ---------------------------------------------------------------------
 Center     Atomic      Atomic             Coordinates (Angstroms)
 Number     Number       Type             X           Y           Z
 ---------------------------------------------------------------------
      1         12           0       24.470566    0.389556   -0.269560
      2          6           0       22.812617   -1.878059    1.849897
      3          6           0       22.943547    2.958450    1.507964
      4          6           0       25.793539    2.471646   -2.492670
      5          6           0       25.240393   -2.330702   -2.482714
      6          7           0       23.043436    0.521941    1.437664
      7          6           0       22.610408   -0.561254    2.215255
      8          6           0       22.109756   -0.045333    3.551650
      9          6           0       21.890934    1.479551    3.338211
     10          6           0       22.681939    1.671767    2.009225
     11          6           0       20.410888    1.975723    3.342159
     12          6           0       23.024602   -0.400458    4.774653
     13          6           0       22.236340   -0.590244    6.144817
     14          1           0       20.722944   -0.358773    6.136864
     15          7           0       24.481109    2.370881   -0.379319
     16          6           0       23.863741    3.262218    0.481218
     17          6           0       24.211362    4.613539    0.148325
     18          6           0       24.933641    4.518943   -1.084134
     19          6           0       25.120315    3.100155   -1.330311
     20          6           0       23.691543    5.857836    0.931085
     21          6           0       25.422867    5.618616   -1.968852
     22          8           0       25.906418    5.382452   -3.101717
     23          6           0       25.365510    7.158590   -1.745851
     24          7           0       25.147264    0.162171   -2.336536
     25          6           0       25.746140    1.175239   -2.990696
     26          6           0       26.529168    0.641505   -4.216527
     27          6           0       26.340849   -0.879661   -4.235431
     28          6           0       25.541416   -1.038325   -2.867648
     29          6           0       26.202366    1.404823   -5.463726
     30          6           0       27.616160   -1.746393   -4.310888
     31          6           0       28.624945   -1.542208   -3.153804
     32          7           0       24.075073   -1.707823   -0.396508
     33          6           0       24.580750   -2.639170   -1.238330
     34          6           0       24.279864   -3.943299   -0.649760
     35          6           0       23.604681   -3.748552    0.587637
     36          6           0       23.451193   -2.344249    0.686553
     37          6           0       24.741425   -5.293095   -1.192818
     38          6           0       23.010025   -4.393803    1.714346
     39          8           0       22.965862   -5.557201    2.105396
     40          6           0       22.377437   -3.137847    2.605321
     41          6           0       20.903016   -3.395709    2.852768
     42          8           0       20.034449   -3.172965    2.032290
     43          8           0       20.688566   -3.810593    4.147508
     44          6           0       19.428613   -4.468140    4.478724
     45          1           0       22.517309    3.679006    2.208823
     46          1           0       26.289876    3.201542   -3.135157
     47          1           0       25.626447   -3.113016   -3.139074
     48          1           0       21.147569   -0.504993    3.777035
     49          1           0       22.428971    1.990758    4.135992
     50          1           0       20.332178    2.477650    2.378391
     51          1           0       20.266028    2.747997    4.098570
     52          1           0       19.598054    1.253063    3.413640
     53          1           0       23.718781    0.408365    5.000617
     54          1           0       23.615402   -1.279868    4.521584
     55          1           0       22.580952    0.187793    6.826171
     56          1           0       22.460878   -1.592312    6.509439
     57          1           0       23.478629    6.638969    0.200271
     58          1           0       24.434899    6.261560    1.617666
     59          1           0       22.819658    5.794807    1.582022
     60          1           0       25.844460    7.428652   -0.804270
     61          1           0       24.350141    7.550995   -1.801289
     62          1           0       26.061322    7.727141   -2.361719
     63          1           0       27.558605    0.962596   -4.062857
     64          1           0       25.577754   -1.052943   -4.995039
     65          1           0       26.972656    2.128388   -5.731226
     66          1           0       25.228078    1.883051   -5.361634
     67          1           0       26.059121    0.779636   -6.345747
     68          1           0       28.088789   -1.409282   -5.233654
     69          1           0       27.349900   -2.800246   -4.397385
     70          1           0       28.714947   -2.519123   -2.679221
     71          1           0       28.188575   -0.800713   -2.484518
     72          1           0       29.577192   -1.108052   -3.458887
     73          1           0       25.106211   -5.957376   -0.409903
     74          1           0       25.617258   -5.187452   -1.832376
     75          1           0       23.935928   -5.705363   -1.801146
     76          1           0       22.886084   -3.212528    3.566807
     77          1           0       18.649014   -3.933395    3.935523
     78          1           0       19.164583   -4.445958    5.536087
     79          1           0       19.565143   -5.513080    4.200119
     80         12           0      -24.080316    0.660215    0.452342
     81          6           0      -23.787754   -2.671717   -0.846444
     82          6           0      -20.716199    1.091522   -0.668624
     83          6           0      -24.373402    4.003459    0.612586
     84          6           0      -27.453391    0.175005    0.740873
     85          7           0      -22.514471   -0.642980   -0.646881
     86          6           0      -22.607344   -1.945585   -1.041943
     87          6           0      -21.279939   -2.450138   -1.708245
     88          6           0      -20.250829   -1.315357   -1.234963
     89          6           0      -21.224165   -0.195419   -0.903366
     90          6           0      -19.425984   -1.676088   -0.020812
     91          6           0      -21.418788   -2.732553   -3.195051
     92          6           0      -20.775913   -4.034404   -3.739953
     93          1           0      -19.366386   -4.001244   -4.494931
     94          7           0      -22.674875    2.380961    0.121108
     95          6           0      -21.316511    2.291014   -0.248085
     96          6           0      -20.737921    3.640209   -0.244612
     97          6           0      -21.818614    4.507228    0.184498
     98          6           0      -23.011310    3.689567    0.239561
     99          6           0      -19.362106    4.025022   -0.640179
    100          6           0      -21.676353    5.973560    0.507154
    101          8           0      -20.560895    6.440643    0.560213
    102          6           0      -22.835074    6.903670    0.783404
    103          7           0      -25.680641    1.833256    0.524663
    104          6           0      -25.512586    3.196950    0.748011
    105          6           0      -26.905578    3.805664    0.925030
    106          6           0      -27.835605    2.562743    1.176301
    107          6           0      -26.915978    1.439748    0.833308
    108          6           0      -27.078703    4.980598    1.956220
    109          6           0      -29.215399    2.518880    0.450692
    110          6           0      -30.440877    2.338134    1.285859
    111          7           0      -25.373723   -0.904626    0.171240
    112          6           0      -26.735277   -0.995482    0.402135
    113          6           0      -27.187090   -2.398033    0.322309
    114          6           0      -26.028049   -3.062010   -0.238853
    115          6           0      -25.009905   -2.106049   -0.306505
    116          6           0      -28.528411   -3.008036    0.633601
    117          6           0      -25.532475   -4.393808   -0.695724
    118          8           0      -26.109264   -5.434853   -0.832816
    119          6           0      -24.117878   -4.124978   -1.198739
    120          6           0      -23.192919   -5.067690   -0.488478
    121          8           0      -23.041689   -4.947638    0.708331
    122          8           0      -22.477344   -5.984976   -1.315266
    123          6           0      -21.404597   -6.785248   -0.650386
    124          1           0      -19.672795    1.250037   -0.949614
    125          1           0      -24.634973    5.057549    0.719197
    126          1           0      -28.494189    0.023691    1.033625
    127          1           0      -20.889586   -3.337954   -1.211573
    128          1           0      -19.639138   -0.961447   -2.064747
    129          1           0      -20.034263   -1.511535    0.868283
    130          1           0      -18.521933   -1.068385   -0.056831
    131          1           0      -19.085905   -2.705420    0.097542
    132          1           0      -20.908200   -1.915282   -3.703496
    133          1           0      -22.465551   -2.590894   -3.463843
    134          1           0      -21.535290   -4.412146   -4.425033
    135          1           0      -20.637520   -4.800389   -2.976825
    136          1           0      -18.794896    4.115133    0.285747
    137          1           0      -19.377882    5.035299   -1.049185
    138          1           0      -18.798508    3.409487   -1.342328
    139          1           0      -22.573582    7.956537    0.887374
    140          1           0      -23.254452    6.569399    1.732423
    141          1           0      -23.696404    6.896583    0.116479
    142          1           0      -27.045189    4.304468   -0.034472
    143          1           0      -27.938141    2.430985    2.253026
    144          1           0      -26.257840    4.986322    2.673836
    145          1           0      -28.053972    4.923401    2.439283
    146          1           0      -27.102896    5.937113    1.434574
    147          1           0      -29.192424    1.725518   -0.296331
    148          1           0      -29.280972    3.418094   -0.161713
    149          1           0      -30.821378    1.326657    1.145166
    150          1           0      -31.213329    3.032423    0.955409
    151          1           0      -30.342535    2.473917    2.362670
    152          1           0      -28.437135   -4.076773    0.826348
    153          1           0      -29.163248   -2.811630   -0.230859
    154          1           0      -28.971950   -2.436155    1.448866
    155          1           0      -24.140455   -4.196372   -2.286270
    156          1           0      -21.861896   -7.611434   -0.105695
    157          1           0      -20.878709   -6.187972    0.094163
    158          1           0      -20.679246   -7.142629   -1.381052
 ---------------------------------------------------------------------

 SCF Done:  E(RPBE1PBE) =  -4067.38299079     A.U. after   16 cycles

 Excitation energies and oscillator strengths:

 Excited State   1:      Singlet-A      1.8182 eV  681.89 nm  f=0.3772  <S**2>=0.000
     310 -> 315        0.16236
     311 -> 313        0.69662
     311 <- 313       -0.11884
 This state for optimization and/or second-order correction.
 Total Energy, E(TD-HF/TD-DFT) =  -4067.31617157
 Copying the excited state density for this state as the 1-particle RhoCI density.

 Excited State   2:      Singlet-A      1.8362 eV  675.21 nm  f=0.3894  <S**2>=0.000
     309 -> 316        0.16420
     312 -> 314        0.69666
     312 <- 314       -0.11952

 Excited State   3:      Singlet-A      1.8680 eV  663.73 nm  f=0.0000  <S**2>=0.000
     312 -> 313        0.70711

 Excited State   4:      Singlet-A      1.9933 eV  622.02 nm  f=0.0000  <S**2>=0.000
     311 -> 314        0.70711

 Excited State   5:      Singlet-A      2.2360 eV  554.48 nm  f=0.1177  <S**2>=0.000
     308 -> 314        0.10037
     309 -> 314        0.64815
     312 -> 316       -0.25669

 The electronic state is 1-A.
 Alpha  occ. eigenvalues --  -46.92724 -46.92321 -19.25845 -19.24918 -19.20846
 Alpha  occ. eigenvalues --  -19.19819 -19.19682 -19.19455 -19.18521 -19.18225
 Alpha  occ. eigenvalues --  -14.42114 -14.41925 -14.41345 -14.41076 -14.39880
 Alpha  occ. eigenvalues --  -14.39132 -14.38990 -14.38811 -10.37167 -10.36108
 Alpha  occ. eigenvalues --  -10.32808 -10.32547 -10.32462 -10.31677 -10.29441
 Alpha  occ. eigenvalues --  -10.29115 -10.29089 -10.29009 -10.28629 -10.28619
 Alpha  occ. eigenvalues --  -10.28534 -10.28473 -10.28384 -10.28217 -10.28173
 Alpha  occ. eigenvalues --  -10.28008 -10.27932 -10.27908 -10.27727 -10.27268
 Alpha  occ. eigenvalues --  -10.26975 -10.26923 -10.26803 -10.26776 -10.26689
 Alpha  occ. eigenvalues --  -10.26377 -10.26354 -10.26339 -10.26232 -10.25929
 Alpha  occ. eigenvalues --  -10.25912 -10.25911 -10.25893 -10.25877 -10.25753
 Alpha  occ. eigenvalues --  -10.25560 -10.25559 -10.25448 -10.25338 -10.25330
 Alpha  occ. eigenvalues --  -10.25124 -10.25098 -10.24958 -10.24771 -10.24705
 Alpha  occ. eigenvalues --  -10.24687 -10.24454 -10.24408 -10.24403 -10.24319
 Alpha  occ. eigenvalues --  -10.24214 -10.24057 -10.24028 -10.23921 -10.23855
 Alpha  occ. eigenvalues --  -10.23676 -10.23506 -10.23493 -10.23219 -10.23203
 Alpha  occ. eigenvalues --  -10.23170 -10.23153 -10.23147 -10.23069 -10.22818
 Alpha  occ. eigenvalues --  -10.22380  -3.14870  -3.14469  -1.87656  -1.87279
 Alpha  occ. eigenvalues --   -1.87251  -1.87099  -1.86843  -1.86706  -1.10208
 Alpha  occ. eigenvalues --   -1.10002  -1.06391  -1.04990  -1.04273  -1.03034
 Alpha  occ. eigenvalues --   -1.02625  -1.02272  -0.99226  -0.98884  -0.98182
 Alpha  occ. eigenvalues --   -0.98062  -0.97882  -0.97363  -0.96877  -0.96186
 Alpha  occ. eigenvalues --   -0.87021  -0.86586  -0.83715  -0.83519  -0.83129
 Alpha  occ. eigenvalues --   -0.82783  -0.82774  -0.82406  -0.81890  -0.81720
 Alpha  occ. eigenvalues --   -0.80995  -0.80538  -0.79948  -0.79729  -0.78749
 Alpha  occ. eigenvalues --   -0.78265  -0.78058  -0.77664  -0.76755  -0.76452
 Alpha  occ. eigenvalues --   -0.76015  -0.75336  -0.74971  -0.74835  -0.74504
 Alpha  occ. eigenvalues --   -0.74125  -0.72860  -0.72485  -0.71782  -0.71283
 Alpha  occ. eigenvalues --   -0.71083  -0.71056  -0.70585  -0.70149  -0.69591
 Alpha  occ. eigenvalues --   -0.69338  -0.67094  -0.67032  -0.66216  -0.65501
 Alpha  occ. eigenvalues --   -0.64251  -0.63903  -0.63538  -0.63296  -0.62843
 Alpha  occ. eigenvalues --   -0.62334  -0.61910  -0.61125  -0.60391  -0.59759
 Alpha  occ. eigenvalues --   -0.59505  -0.59297  -0.59127  -0.58829  -0.58747
 Alpha  occ. eigenvalues --   -0.58614  -0.56860  -0.56238  -0.55403  -0.54342
 Alpha  occ. eigenvalues --   -0.54062  -0.53976  -0.53780  -0.53460  -0.53376
 Alpha  occ. eigenvalues --   -0.52988  -0.52745  -0.52232  -0.52033  -0.51457
 Alpha  occ. eigenvalues --   -0.51101  -0.50487  -0.50288  -0.50186  -0.50042
 Alpha  occ. eigenvalues --   -0.49365  -0.49327  -0.48788  -0.48486  -0.48429
 Alpha  occ. eigenvalues --   -0.48009  -0.47889  -0.47716  -0.47701  -0.47477
 Alpha  occ. eigenvalues --   -0.47307  -0.47149  -0.46876  -0.46698  -0.46503
 Alpha  occ. eigenvalues --   -0.46321  -0.46240  -0.45909  -0.45880  -0.45650
 Alpha  occ. eigenvalues --   -0.45558  -0.45460  -0.45327  -0.45071  -0.44478
 Alpha  occ. eigenvalues --   -0.44464  -0.44425  -0.44297  -0.44142  -0.43923
 Alpha  occ. eigenvalues --   -0.43869  -0.43845  -0.43777  -0.43711  -0.43434
 Alpha  occ. eigenvalues --   -0.43310  -0.43263  -0.43206  -0.42828  -0.42809
 Alpha  occ. eigenvalues --   -0.42473  -0.42374  -0.42333  -0.42085  -0.41829
 Alpha  occ. eigenvalues --   -0.41655  -0.41410  -0.41099  -0.41071  -0.41017
 Alpha  occ. eigenvalues --   -0.40960  -0.40863  -0.40807  -0.40680  -0.40598
 Alpha  occ. eigenvalues --   -0.40585  -0.40176  -0.39963  -0.39943  -0.39646
 Alpha  occ. eigenvalues --   -0.39433  -0.39371  -0.39278  -0.38989  -0.38860
 Alpha  occ. eigenvalues --   -0.38802  -0.38594  -0.38430  -0.38251  -0.38209
 Alpha  occ. eigenvalues --   -0.38113  -0.37985  -0.37785  -0.37670  -0.37490
 Alpha  occ. eigenvalues --   -0.37460  -0.37419  -0.37282  -0.37165  -0.36799
 Alpha  occ. eigenvalues --   -0.36798  -0.36747  -0.36498  -0.36386  -0.36293
 Alpha  occ. eigenvalues --   -0.36018  -0.35641  -0.35571  -0.35518  -0.35429
 Alpha  occ. eigenvalues --   -0.35199  -0.35008  -0.34595  -0.34224  -0.34125
 Alpha  occ. eigenvalues --   -0.33655  -0.33433  -0.32809  -0.32675  -0.32632
 Alpha  occ. eigenvalues --   -0.32336  -0.32028  -0.31912  -0.31553  -0.31366
 Alpha  occ. eigenvalues --   -0.30874  -0.30842  -0.29775  -0.29546  -0.29203
 Alpha  occ. eigenvalues --   -0.28908  -0.28820  -0.28423  -0.27070  -0.26839
 Alpha  occ. eigenvalues --   -0.26335  -0.26289  -0.25814  -0.25311  -0.25262
 Alpha  occ. eigenvalues --   -0.25226  -0.24958  -0.24393  -0.21194  -0.21062
 Alpha  occ. eigenvalues --   -0.18989  -0.18771
 Alpha virt. eigenvalues --   -0.11632  -0.11388  -0.05023  -0.05014  -0.04277
 Alpha virt. eigenvalues --   -0.03536  -0.02317  -0.01951  -0.01540  -0.01272
 Alpha virt. eigenvalues --   -0.00199   0.00253   0.00594   0.01069   0.01258

 Mulliken charges:
               1
     1  Mg  11.999113
     2  C    6.020064
     3  C    6.001993
     4  C    5.981753
     5  C    6.003502
     6  N    7.011731
     7  C    5.966718
     8  C    6.008529
     9  C    5.989051
    10  C    6.023055
    11  C    6.001669
    12  C    6.002665
    13  C    6.000579
    14  H    0.995168
    15  N    6.996557
    16  C    6.031961
    17  C    6.024973
    18  C    6.012084
    19  C    6.027295
    20  C    5.998034
    21  C    6.008092
    22  O    8.032173
    23  C    5.996474
    24  N    6.991563
    25  C    6.030529
    26  C    5.996007
    27  C    6.007182
    28  C    5.979066
    29  C    5.997906
    30  C    6.004111
    31  C    6.004533
    32  N    7.001424
    33  C    5.970025
    34  C    5.961313
    35  C    6.002874
    36  C    5.965114
    37  C    6.001859
    38  C    5.987266
    39  O    7.975881
    40  C    5.995218
    41  C    5.996869
    42  O    7.994441
    43  O    7.998231
    44  C    6.001617
    45  H    1.013364
    46  H    1.003802
    47  H    0.990116
    48  H    1.001357
    49  H    1.002601
    50  H    0.995489
    51  H    1.002603
    52  H    1.012327
    53  H    0.988908
    54  H    1.007366
    55  H    0.995072
    56  H    1.003072
    57  H    1.014176
    58  H    1.019067
    59  H    1.017504
    60  H    1.007746
    61  H    1.008418
    62  H    1.013092
    63  H    0.998816
    64  H    0.996221
    65  H    0.997594
    66  H    0.996158
    67  H    1.008522
    68  H    0.991250
    69  H    1.004261
    70  H    1.004865
    71  H    0.993477
    72  H    0.992487
    73  H    0.982540
    74  H    0.980898
    75  H    0.978918
    76  H    0.991791
    77  H    0.995489
    78  H    0.994460
    79  H    0.999912
    80  Mg  11.999935
    81  C    5.999839
    82  C    5.999838
    83  C    6.000211
    84  C    5.999924
    85  N    6.999822
    86  C    6.000350
    87  C    5.999901
    88  C    6.000005
    89  C    5.999674
    90  C    6.000098
    91  C    5.999946
    92  C    5.999983
    93  H    1.000144
    94  N    7.000112
    95  C    5.999778
    96  C    5.999670
    97  C    5.999881
    98  C    5.999532
    99  C    6.000022
   100  C    5.999950
   101  O    7.999724
   102  C    6.000067
   103  N    7.000184
   104  C    5.999629
   105  C    6.000124
   106  C    5.999877
   107  C    6.000381
   108  C    5.999983
   109  C    5.999938
   110  C    5.999973
   111  N    6.999971
   112  C    6.000363
   113  C    6.000486
   114  C    5.999900
   115  C    6.000282
   116  C    6.000040
   117  C    6.000270
   118  O    8.000361
   119  C    5.999985
   120  C    6.000063
   121  O    8.000024
   122  O    8.000015
   123  C    5.999926
   124  H    0.999934
   125  H    0.999875
   126  H    1.000135
   127  H    1.000066
   128  H    1.000026
   129  H    0.999913
   130  H    1.000022
   131  H    0.999857
   132  H    1.000109
   133  H    0.999904
   134  H    0.999954
   135  H    0.999988
   136  H    0.999781
   137  H    0.999795
   138  H    0.999818
   139  H    0.999830
   140  H    0.999879
   141  H    0.999845
   142  H    1.000010
   143  H    1.000058
   144  H    1.000052
   145  H    0.999902
   146  H    1.000019
   147  H    0.999968
   148  H    1.000127
   149  H    0.999963
   150  H    1.000080
   151  H    1.000050
   152  H    1.000191
   153  H    1.000217
   154  H    1.000166
   155  H    1.000080
   156  H    1.000036
   157  H    1.000085
   158  H    1.000084
 Sum of Mulliken charges = 624.00000

 Dipole moment (field-independent basis, Debye):
    X=              0.3432    Y=             10.4512    Z=             -0.2476  Tot=             10.4598
 Quadrupole moment (field-independent basis, Debye-Ang):
   XX=             23.5159   YY=              8.8972   ZZ=             -1.7581
   XY=            257.5840   XZ=             -5.2142   YZ=             -2.8211

 Normal termination of Gaussian 16 at Thu Oct 14 11:51:41 2021.
