 Gaussian 16, Revision A.03,
 Gaussian 16:  ES64L-G16RevA.03 25-Dec-2016

 --------------------------------------------------------
 #p PBE1PBE/Def2SVP td=(nstates=5) density=(transition=1)
 --------------------------------------------------------

 --------------------------------
 TDDFT excited states in gaussian
 --------------------------------
 Symbolic Z-matrix:
 Charge =  0 Multiplicity = 1

                         Standard orientation:
 ---------------------------------------------------------------------
 Center     Atomic      Atomic             Coordinates (Angstroms)
 Number     Number       Type             X           Y           Z
 ---------------------------------------------------------------------
      1         12           0       25.284311   -0.818221   -0.009465
      2          6           0       26.411665    2.398966   -0.748998
      3          6           0       24.125188    0.256994    2.919224
      4          6           0       25.476622   -4.042860    1.108486
      5          6           0       26.559079   -1.905563   -3.063794
      6          7           0       25.124002    1.171901    0.910395
      7          6           0       25.628514    2.298361    0.421781
      8          6           0       25.179674    3.496403    1.334462
      9          6           0       24.552939    2.765416    2.545901
     10          6           0       24.612256    1.296908    2.136199
     11          6           0       25.405614    2.898545    3.903751
     12          6           0       24.152637    4.516461    0.662149
     13          6           0       24.469654    5.935730    0.987850
     14          1           0       23.376488    6.841518    1.533542
     15          7           0       24.832446   -1.747464    1.765223
     16          6           0       24.333083   -1.123723    2.877778
     17          6           0       23.830571   -2.148464    3.803482
     18          6           0       24.233018   -3.401151    3.261883
     19          6           0       24.928364   -3.073931    2.006008
     20          6           0       23.130452   -1.806952    5.157454
     21          6           0       24.067623   -4.824967    3.873598
     22          8           0       24.444071   -5.856375    3.328312
     23          6           0       23.388817   -4.942587    5.185711
     24          7           0       25.930591   -2.646205   -0.803206
     25          6           0       25.991112   -3.880132   -0.148615
     26          6           0       26.754470   -4.899931   -1.033609
     27          6           0       26.488820   -4.358594   -2.506434
     28          6           0       26.301909   -2.877311   -2.071719
     29          6           0       28.233512   -5.072826   -0.626318
     30          6           0       25.271965   -4.875794   -3.219707
     31          6           0       23.905464   -4.342512   -2.906816
     32          7           0       26.103101    0.028788   -1.705871
     33          6           0       26.614537   -0.520187   -2.859000
     34          6           0       27.149921    0.500939   -3.762336
     35          6           0       27.190689    1.703288   -2.922345
     36          6           0       26.543302    1.324902   -1.682184
     37          6           0       27.742759    0.277847   -5.058027
     38          6           0       27.614785    3.095752   -2.841717
     39          8           0       28.231471    3.780723   -3.568453
     40          6           0       27.039366    3.624092   -1.426132
     41          6           0       28.041730    4.379909   -0.590928
     42          8           0       28.766819    3.883916    0.266341
     43          8           0       27.933105    5.737869   -0.888912
     44          6           0       28.808568    6.669555   -0.155000
     45          1           0       23.536083    0.445652    3.819525
     46          1           0       25.524623   -5.045859    1.538487
     47          1           0       26.849649   -2.298103   -4.040116
     48          1           0       26.029338    4.062681    1.716725
     49          1           0       23.550896    3.081554    2.835789
     50          1           0       25.010324    3.762446    4.438479
     51          1           0       26.465334    3.114222    3.769909
     52          1           0       25.233565    1.998261    4.494822
     53          1           0       23.129195    4.333011    0.989701
     54          1           0       24.066229    4.450100   -0.422485
     55          1           0       24.703609    6.363238    0.013244
     56          1           0       25.329223    6.133726    1.627579
     57          1           0       23.930046   -1.753474    5.895765
     58          1           0       22.347386   -2.526433    5.397946
     59          1           0       22.785205   -0.775171    5.231389
     60          1           0       23.574624   -4.233076    5.991890
     61          1           0       23.594927   -5.921604    5.617602
     62          1           0       22.324083   -5.111933    5.022675
     63          1           0       26.196263   -5.824477   -0.889053
     64          1           0       27.341233   -4.518544   -3.166429
     65          1           0       28.976165   -4.931348   -1.411550
     66          1           0       28.421056   -5.965859   -0.029724
     67          1           0       28.507595   -4.309950    0.102166
     68          1           0       25.127927   -5.952313   -3.136043
     69          1           0       25.419355   -4.706446   -4.286433
     70          1           0       23.776776   -3.578277   -3.673084
     71          1           0       23.797401   -3.843263   -1.943669
     72          1           0       23.174192   -5.144569   -3.012130
     73          1           0       27.462908    1.140642   -5.662756
     74          1           0       27.277089   -0.615567   -5.473297
     75          1           0       28.827238    0.219135   -4.970921
     76          1           0       26.227958    4.315515   -1.653450
     77          1           0       29.828426    6.300936   -0.268314
     78          1           0       28.576728    6.662549    0.909712
     79          1           0       28.809794    7.727570   -0.417636
     80         12           0      -26.223743   -0.482312   -0.245787
     81          6           0      -24.431222    2.506427   -0.771642
     82          6           0      -27.338905    0.910188    2.714278
     83          6           0      -27.915838   -3.363085    0.456034
     84          6           0      -24.798819   -1.835911   -2.967300
     85          7           0      -25.941046    1.524828    0.840643
     86          6           0      -25.278150    2.657754    0.384302
     87          6           0      -25.614973    3.853534    1.252304
     88          6           0      -26.244234    3.208465    2.540352
     89          6           0      -26.532580    1.827762    1.995141
     90          6           0      -25.348856    3.259378    3.839951
     91          6           0      -26.626660    4.808479    0.601361
     92          6           0      -26.397831    6.298114    0.878838
     93          1           0      -26.644822    6.830472    2.317818
     94          7           0      -27.520954   -1.110385    1.300954
     95          6           0      -27.776481   -0.373048    2.406184
     96          6           0      -28.566307   -1.154615    3.301297
     97          6           0      -28.911761   -2.390491    2.652986
     98          6           0      -28.076817   -2.345236    1.465594
     99          6           0      -28.971574   -0.651028    4.658775
    100          6           0      -29.773768   -3.571227    3.100226
    101          8           0      -30.088272   -4.491253    2.313341
    102          6           0      -30.238885   -3.748795    4.541130
    103          7           0      -26.406811   -2.278487   -1.169505
    104          6           0      -27.105395   -3.378231   -0.680480
    105          6           0      -26.878351   -4.542163   -1.589620
    106          6           0      -25.932464   -4.108023   -2.766515
    107          6           0      -25.708895   -2.647951   -2.340612
    108          6           0      -26.482202   -5.865086   -0.867504
    109          6           0      -26.537897   -4.216235   -4.182811
    110          6           0      -26.161451   -5.519032   -4.914565
    111          7           0      -24.882880    0.113640   -1.571637
    112          6           0      -24.393219   -0.502931   -2.722198
    113          6           0      -23.475595    0.394558   -3.517348
    114          6           0      -23.477726    1.550834   -2.720380
    115          6           0      -24.362382    1.365845   -1.609702
    116          6           0      -22.774351    0.056500   -4.820332
    117          6           0      -22.905769    2.887620   -2.663482
    118          8           0      -22.097799    3.452908   -3.401509
    119          6           0      -23.626277    3.586889   -1.433727
    120          6           0      -22.486119    4.163376   -0.571470
    121          8           0      -21.423083    3.629510   -0.330385
    122          8           0      -22.800778    5.480855   -0.243949
    123          6           0      -21.773862    6.126935    0.573651
    124          1           0      -27.735189    1.409234    3.600835
    125          1           0      -28.418505   -4.324770    0.576405
    126          1           0      -24.289637   -2.388053   -3.759533
    127          1           0      -24.754306    4.443641    1.566185
    128          1           0      -27.170100    3.674943    2.877017
    129          1           0      -24.424735    3.831423    3.752231
    130          1           0      -24.990630    2.304220    4.223195
    131          1           0      -25.877220    3.758561    4.652218
    132          1           0      -27.646158    4.574326    0.906921
    133          1           0      -26.580178    4.736699   -0.485463
    134          1           0      -26.946257    6.930768    0.181064
    135          1           0      -25.374956    6.591100    0.643137
    136          1           0      -28.020413   -0.295251    5.055058
    137          1           0      -29.347772   -1.378027    5.378386
    138          1           0      -29.669015    0.186237    4.646843
    139          1           0      -29.404148   -3.643865    5.234368
    140          1           0      -30.650359   -4.757841    4.521037
    141          1           0      -30.974729   -2.991875    4.812589
    142          1           0      -27.861990   -4.859543   -1.937109
    143          1           0      -24.951052   -4.584008   -2.772234
    144          1           0      -26.385517   -5.645141    0.195909
    145          1           0      -25.512609   -6.192298   -1.241946
    146          1           0      -27.318147   -6.535153   -1.071039
    147          1           0      -26.291950   -3.294899   -4.710314
    148          1           0      -27.623433   -4.304952   -4.134643
    149          1           0      -25.906924   -6.290129   -4.187165
    150          1           0      -25.272162   -5.486282   -5.544278
    151          1           0      -27.042100   -5.864921   -5.456596
    152          1           0      -23.535136    0.046265   -5.601044
    153          1           0      -22.287666   -0.918006   -4.854764
    154          1           0      -22.058865    0.861869   -4.985584
    155          1           0      -24.318012    4.390288   -1.686311
    156          1           0      -21.906042    6.011556    1.649860
    157          1           0      -21.822180    7.172267    0.268937
    158          1           0      -20.734613    5.816598    0.465357
 ---------------------------------------------------------------------

 SCF Done:  E(RPBE1PBE) =  -4067.41626182     A.U. after   16 cycles

 Excitation energies and oscillator strengths:

 Excited State   1:      Singlet-A      1.8400 eV  673.84 nm  f=0.3581  <S**2>=0.000
     309 -> 316        0.17114
     312 -> 314        0.69448
     312 <- 314       -0.11328
 This state for optimization and/or second-order correction.
 Total Energy, E(TD-HF/TD-DFT) =  -4067.34864447
 Copying the excited state density for this state as the 1-particle RhoCI density.

 Excited State   2:      Singlet-A      1.8492 eV  670.48 nm  f=0.3716  <S**2>=0.000
     310 -> 315       -0.18098
     311 -> 313        0.69137
     311 <- 313       -0.10447

 Excited State   3:      Singlet-A      1.9305 eV  642.25 nm  f=0.0000  <S**2>=0.000
     312 -> 313        0.70711

 Excited State   4:      Singlet-A      2.0496 eV  604.93 nm  f=0.0000  <S**2>=0.000
     311 -> 314        0.70711

 Excited State   5:      Singlet-A      2.2265 eV  556.85 nm  f=0.0975  <S**2>=0.000
     310 -> 313        0.64900
     311 -> 315        0.27348

 The electronic state is 1-A.
 Alpha  occ. eigenvalues --  -46.91329 -46.91092 -19.26427 -19.25611 -19.20636
 Alpha  occ. eigenvalues --  -19.20223 -19.19755 -19.19455 -19.19387 -19.19352
 Alpha  occ. eigenvalues --  -14.42051 -14.41621 -14.41017 -14.40984 -14.39614
 Alpha  occ. eigenvalues --  -14.39086 -14.38921 -14.38903 -10.36727 -10.36608
 Alpha  occ. eigenvalues --  -10.32914 -10.32827 -10.32525 -10.32295 -10.29318
 Alpha  occ. eigenvalues --  -10.29005 -10.28958 -10.28728 -10.28478 -10.28386
 Alpha  occ. eigenvalues --  -10.28386 -10.28287 -10.28244 -10.28213 -10.28180
 Alpha  occ. eigenvalues --  -10.27820 -10.27646 -10.27349 -10.27218 -10.27121
 Alpha  occ. eigenvalues --  -10.27096 -10.27092 -10.26645 -10.26619 -10.26573
 Alpha  occ. eigenvalues --  -10.26479 -10.26416 -10.26229 -10.26197 -10.26173
 Alpha  occ. eigenvalues --  -10.26153 -10.26083 -10.25960 -10.25936 -10.25778
 Alpha  occ. eigenvalues --  -10.25737 -10.25732 -10.25511 -10.25381 -10.25133
 Alpha  occ. eigenvalues --  -10.25057 -10.25033 -10.24997 -10.24908 -10.24521
 Alpha  occ. eigenvalues --  -10.24453 -10.24332 -10.24308 -10.24066 -10.24041
 Alpha  occ. eigenvalues --  -10.23955 -10.23801 -10.23784 -10.23758 -10.23720
 Alpha  occ. eigenvalues --  -10.23626 -10.23525 -10.23456 -10.23429 -10.23186
 Alpha  occ. eigenvalues --  -10.23160 -10.23140 -10.23097 -10.23050 -10.23024
 Alpha  occ. eigenvalues --  -10.21946  -3.13607  -3.13448  -1.86452  -1.86289
 Alpha  occ. eigenvalues --   -1.85958  -1.85858  -1.85799  -1.85716  -1.11069
 Alpha  occ. eigenvalues --   -1.09820  -1.07618  -1.04938  -1.04022  -1.03559
 Alpha  occ. eigenvalues --   -1.03017  -1.02192  -0.99787  -0.99276  -0.98259
 Alpha  occ. eigenvalues --   -0.98209  -0.97829  -0.97569  -0.96792  -0.96116
 Alpha  occ. eigenvalues --   -0.86956  -0.86131  -0.83696  -0.83336  -0.83313
 Alpha  occ. eigenvalues --   -0.82845  -0.82604  -0.82362  -0.81840  -0.81427
 Alpha  occ. eigenvalues --   -0.81238  -0.81234  -0.80599  -0.80518  -0.78661
 Alpha  occ. eigenvalues --   -0.78449  -0.77912  -0.77849  -0.76811  -0.76598
 Alpha  occ. eigenvalues --   -0.76063  -0.75862  -0.75275  -0.75275  -0.74711
 Alpha  occ. eigenvalues --   -0.74409  -0.72718  -0.72568  -0.71811  -0.71585
 Alpha  occ. eigenvalues --   -0.71551  -0.71033  -0.70482  -0.70093  -0.69429
 Alpha  occ. eigenvalues --   -0.69221  -0.67178  -0.66680  -0.66094  -0.65914
 Alpha  occ. eigenvalues --   -0.63729  -0.63588  -0.63280  -0.62930  -0.62663
 Alpha  occ. eigenvalues --   -0.62094  -0.61691  -0.61141  -0.60198  -0.60120
 Alpha  occ. eigenvalues --   -0.59944  -0.59170  -0.59025  -0.58793  -0.58792
 Alpha  occ. eigenvalues --   -0.58546  -0.57169  -0.56355  -0.54916  -0.54746
 Alpha  occ. eigenvalues --   -0.54644  -0.54090  -0.53532  -0.53440  -0.53181
 Alpha  occ. eigenvalues --   -0.52751  -0.52300  -0.52300  -0.52054  -0.51616
 Alpha  occ. eigenvalues --   -0.50643  -0.50433  -0.50063  -0.50031  -0.49815
 Alpha  occ. eigenvalues --   -0.49748  -0.49319  -0.49079  -0.48592  -0.48400
 Alpha  occ. eigenvalues --   -0.48171  -0.48109  -0.47915  -0.47715  -0.47506
 Alpha  occ. eigenvalues --   -0.47468  -0.47172  -0.47051  -0.46720  -0.46713
 Alpha  occ. eigenvalues --   -0.46443  -0.46227  -0.46222  -0.46155  -0.45876
 Alpha  occ. eigenvalues --   -0.45827  -0.45744  -0.45150  -0.44980  -0.44742
 Alpha  occ. eigenvalues --   -0.44649  -0.44618  -0.44592  -0.44419  -0.44156
 Alpha  occ. eigenvalues --   -0.44131  -0.44020  -0.43822  -0.43712  -0.43535
 Alpha  occ. eigenvalues --   -0.43268  -0.43167  -0.42974  -0.42814  -0.42731
 Alpha  occ. eigenvalues --   -0.42648  -0.42438  -0.42212  -0.42125  -0.41647
 Alpha  occ. eigenvalues --   -0.41515  -0.41401  -0.41396  -0.41319  -0.41265
 Alpha  occ. eigenvalues --   -0.41006  -0.40995  -0.40788  -0.40652  -0.40432
 Alpha  occ. eigenvalues --   -0.40271  -0.40218  -0.39798  -0.39751  -0.39686
 Alpha  occ. eigenvalues --   -0.39463  -0.39427  -0.39316  -0.39209  -0.39147
 Alpha  occ. eigenvalues --   -0.39045  -0.38947  -0.38571  -0.38420  -0.38323
 Alpha  occ. eigenvalues --   -0.38175  -0.38084  -0.37982  -0.37947  -0.37690
 Alpha  occ. eigenvalues --   -0.37505  -0.37495  -0.37183  -0.36780  -0.36742
 Alpha  occ. eigenvalues --   -0.36577  -0.36428  -0.36403  -0.36311  -0.36176
 Alpha  occ. eigenvalues --   -0.36091  -0.36009  -0.35908  -0.35470  -0.35393
 Alpha  occ. eigenvalues --   -0.35198  -0.35163  -0.34683  -0.34035  -0.33719
 Alpha  occ. eigenvalues --   -0.33612  -0.33347  -0.32990  -0.32955  -0.32683
 Alpha  occ. eigenvalues --   -0.32247  -0.31924  -0.31880  -0.31692  -0.31617
 Alpha  occ. eigenvalues --   -0.31433  -0.30932  -0.30370  -0.29880  -0.29516
 Alpha  occ. eigenvalues --   -0.29238  -0.28459  -0.28356  -0.26792  -0.26722
 Alpha  occ. eigenvalues --   -0.26339  -0.26211  -0.26080  -0.26018  -0.25812
 Alpha  occ. eigenvalues --   -0.25663  -0.25550  -0.25143  -0.20901  -0.20877
 Alpha  occ. eigenvalues --   -0.18719  -0.18430
 Alpha virt. eigenvalues --   -0.11081  -0.10931  -0.05266  -0.04900  -0.04248
 Alpha virt. eigenvalues --   -0.03829  -0.02653  -0.01925  -0.00154   0.00160
 Alpha virt. eigenvalues --    0.00282   0.00498   0.01316   0.01418   0.01633

 Mulliken charges:
               1
     1  Mg  12.001665
     2  C    5.975765
     3  C    5.995311
     4  C    6.028995
     5  C    6.007048
     6  N    6.988054
     7  C    6.033241
     8  C    5.990449
     9  C    6.008196
    10  C    5.974205
    11  C    6.006277
    12  C    5.998369
    13  C    5.999918
    14  H    1.005215
    15  N    7.004620
    16  C    5.966957
    17  C    5.977991
    18  C    5.988372
    19  C    5.960709
    20  C    6.001462
    21  C    5.986172
    22  O    7.972232
    23  C    6.009605
    24  N    7.017898
    25  C    5.963928
    26  C    6.003870
    27  C    5.991757
    28  C    6.020591
    29  C    5.998939
    30  C    5.994533
    31  C    5.996842
    32  N    6.997860
    33  C    6.023910
    34  C    6.035951
    35  C    6.003854
    36  C    6.027341
    37  C    5.995293
    38  C    6.014937
    39  O    8.023780
    40  C    6.004259
    41  C    6.002783
    42  O    8.008601
    43  O    8.000156
    44  C    5.997955
    45  H    0.988645
    46  H    0.996064
    47  H    1.014246
    48  H    1.000171
    49  H    0.995596
    50  H    0.990180
    51  H    0.988038
    52  H    1.007005
    53  H    1.007049
    54  H    0.993181
    55  H    0.995424
    56  H    1.001031
    57  H    0.982705
    58  H    0.985155
    59  H    0.983820
    60  H    0.994428
    61  H    0.986044
    62  H    0.989262
    63  H    1.003672
    64  H    1.001988
    65  H    0.989465
    66  H    1.003039
    67  H    1.001607
    68  H    1.011581
    69  H    0.998638
    70  H    0.993590
    71  H    1.011984
    72  H    1.007279
    73  H    1.017950
    74  H    1.015461
    75  H    1.023394
    76  H    1.006172
    77  H    1.000795
    78  H    1.006110
    79  H    1.003363
    80  Mg  11.999996
    81  C    6.000178
    82  C    6.000033
    83  C    5.999775
    84  C    6.000038
    85  N    7.000038
    86  C    5.999727
    87  C    6.000090
    88  C    5.999914
    89  C    6.000222
    90  C    5.999964
    91  C    6.000019
    92  C    6.000011
    93  H    0.999931
    94  N    6.999977
    95  C    6.000211
    96  C    6.000227
    97  C    6.000079
    98  C    6.000297
    99  C    5.999967
   100  C    6.000083
   101  O    8.000234
   102  C    5.999968
   103  N    6.999999
   104  C    6.000299
   105  C    5.999904
   106  C    6.000081
   107  C    5.999741
   108  C    5.999992
   109  C    6.000046
   110  C    5.999991
   111  N    6.999965
   112  C    5.999768
   113  C    5.999701
   114  C    6.000041
   115  C    5.999787
   116  C    6.000014
   117  C    5.999866
   118  O    7.999715
   119  C    5.999984
   120  C    5.999945
   121  O    8.000000
   122  O    7.999978
   123  C    6.000009
   124  H    1.000067
   125  H    1.000066
   126  H    0.999921
   127  H    1.000008
   128  H    0.999998
   129  H    1.000123
   130  H    1.000014
   131  H    1.000022
   132  H    0.999892
   133  H    1.000044
   134  H    0.999974
   135  H    1.000035
   136  H    1.000150
   137  H    1.000135
   138  H    1.000166
   139  H    1.000077
   140  H    1.000106
   141  H    1.000054
   142  H    0.999997
   143  H    1.000003
   144  H    0.999973
   145  H    1.000097
   146  H    1.000003
   147  H    1.000035
   148  H    0.999903
   149  H    0.999965
   150  H    1.000010
   151  H    0.999951
   152  H    0.999822
   153  H    0.999855
   154  H    0.999895
   155  H    0.999917
   156  H    0.999959
   157  H    0.999953
   158  H    1.000003
 Sum of Mulliken charges = 624.00000

 Dipole moment (field-independent basis, Debye):
    X=              3.6900    Y=              3.6191    Z=             -8.7139  Tot=             10.1315
 Quadrupole moment (field-independent basis, Debye-Ang):
   XX=            194.7298   YY=             -4.8563   ZZ=             -2.0644
   XY=             93.4177   XZ=           -225.4781   YZ=              9.5408

 Normal termination of Gaussian 16 at Thu Oct 14 04:25:56 2021.
