 Gaussian 16, Revision A.03,
 Gaussian 16:  ES64L-G16RevA.03 25-Dec-2016

 --------------------------------------------------------
 #p PBE1PBE/Def2SVP td=(nstates=5) density=(transition=1)
 --------------------------------------------------------

 --------------------------------
 TDDFT excited states in gaussian
 --------------------------------
 Symbolic Z-matrix:
 Charge =  0 Multiplicity = 1

                         Standard orientation:
 ---------------------------------------------------------------------
 Center     Atomic      Atomic             Coordinates (Angstroms)
 Number     Number       Type             X           Y           Z
 ---------------------------------------------------------------------
      1         12           0      -25.982903    0.461509   -0.591791
      2          6           0      -24.872428   -2.121682    1.472692
      3          6           0      -25.879660    2.568463    1.982498
      4          6           0      -28.243825    2.410342   -2.257739
      5          6           0      -26.122367   -1.793947   -3.243155
      6          7           0      -25.270028    0.278154    1.479590
      7          6           0      -24.860875   -0.840276    2.066017
      8          6           0      -24.329398   -0.497015    3.504576
      9          6           0      -24.769153    0.977358    3.670599
     10          6           0      -25.370661    1.317356    2.310275
     11          6           0      -25.936423    1.194163    4.756422
     12          6           0      -22.756195   -0.672332    3.708598
     13          6           0      -22.421432   -1.291224    5.022300
     14          1           0      -21.396413   -0.623262    5.925850
     15          7           0      -26.901755    2.252825   -0.186713
     16          6           0      -26.710393    2.999578    0.945513
     17          6           0      -27.263525    4.342263    0.720165
     18          6           0      -27.952524    4.281767   -0.523273
     19          6           0      -27.747180    2.908397   -1.012652
     20          6           0      -27.172245    5.491615    1.774061
     21          6           0      -28.817453    5.380181   -1.211884
     22          8           0      -29.374168    5.239398   -2.294982
     23          6           0      -28.954502    6.687144   -0.526814
     24          7           0      -27.030589    0.332191   -2.401448
     25          6           0      -27.986551    1.226294   -2.892818
     26          6           0      -28.673923    0.615909   -4.142166
     27          6           0      -27.551759   -0.349147   -4.727183
     28          6           0      -26.860249   -0.595039   -3.356247
     29          6           0      -30.038662   -0.034665   -3.829782
     30          6           0      -26.593239    0.236695   -5.724689
     31          6           0      -25.449752    1.101772   -5.284584
     32          7           0      -25.412333   -1.488307   -0.963678
     33          6           0      -25.557044   -2.300182   -2.064843
     34          6           0      -25.040030   -3.649219   -1.823710
     35          6           0      -24.837395   -3.675652   -0.370738
     36          6           0      -25.097105   -2.321603    0.075792
     37          6           0      -25.017951   -4.742804   -2.763725
     38          6           0      -24.486962   -4.504675    0.776098
     39          8           0      -24.277696   -5.653966    0.889988
     40          6           0      -24.421471   -3.479990    2.025043
     41          6           0      -25.154811   -3.951802    3.255150
     42          8           0      -26.322225   -3.688683    3.528256
     43          8           0      -24.258763   -4.647779    4.065931
     44          6           0      -24.764565   -5.173912    5.346731
     45          1           0      -25.746629    3.430765    2.639701
     46          1           0      -28.974758    3.074999   -2.723763
     47          1           0      -26.102846   -2.418428   -4.138347
     48          1           0      -24.844133   -1.065645    4.279451
     49          1           0      -23.995132    1.681176    3.976538
     50          1           0      -25.445353    1.412914    5.704848
     51          1           0      -26.554735    0.319712    4.957578
     52          1           0      -26.523791    2.059084    4.445961
     53          1           0      -22.234416    0.283679    3.662062
     54          1           0      -22.244857   -1.255100    2.942297
     55          1           0      -21.947968   -2.229982    4.736084
     56          1           0      -23.242951   -1.549354    5.689976
     57          1           0      -28.065687    5.395957    2.390442
     58          1           0      -27.059979    6.465918    1.297813
     59          1           0      -26.429621    5.321217    2.554257
     60          1           0      -29.092512    6.756140    0.552096
     61          1           0      -29.791498    7.238330   -0.954736
     62          1           0      -28.177598    7.362047   -0.887150
     63          1           0      -28.789162    1.470929   -4.807703
     64          1           0      -27.972165   -1.249461   -5.174929
     65          1           0      -30.170447   -1.069366   -4.146272
     66          1           0      -30.891597    0.593276   -4.088235
     67          1           0      -30.180875   -0.094740   -2.750914
     68          1           0      -27.065234    0.846280   -6.494279
     69          1           0      -26.144657   -0.590677   -6.274723
     70          1           0      -24.630113    0.385843   -5.226110
     71          1           0      -25.545127    1.551820   -4.296180
     72          1           0      -25.264231    1.864339   -6.041696
     73          1           0      -24.108151   -5.301848   -2.544264
     74          1           0      -24.938097   -4.307181   -3.759386
     75          1           0      -25.890631   -5.379437   -2.621399
     76          1           0      -23.370817   -3.382048    2.298273
     77          1           0      -25.656460   -5.758113    5.118561
     78          1           0      -25.067902   -4.361880    6.007036
     79          1           0      -24.116628   -5.791586    5.968848
     80         12           0       26.356475   -0.594155    0.237167
     81          6           0       24.925408    2.506732    0.752898
     82          6           0       23.205721   -1.840504   -0.370855
     83          6           0       27.804976   -3.510670   -0.855989
     84          6           0       29.483133    0.752979    0.747491
     85          7           0       24.346806    0.266370   -0.000221
     86          6           0       24.016132    1.563541    0.339024
     87          6           0       22.515937    1.818130    0.218977
     88          6           0       21.960389    0.345394    0.195694
     89          6           0       23.225207   -0.439837   -0.119325
     90          6           0       21.139982   -0.149111    1.471870
     91          6           0       22.057788    2.724307   -0.967988
     92          6           0       21.033190    3.785823   -0.627481
     93          1           0       19.674644    3.489977   -1.243624
     94          7           0       25.586454   -2.373995   -0.509321
     95          6           0       24.296840   -2.698791   -0.654559
     96          6           0       24.158236   -4.076164   -1.094846
     97          6           0       25.405530   -4.651473   -1.271591
     98          6           0       26.353522   -3.505569   -0.930191
     99          6           0       22.735283   -4.740605   -1.413897
    100          6           0       25.715337   -6.138536   -1.652581
    101          8           0       24.749637   -6.909653   -1.916042
    102          6           0       27.101447   -6.647930   -1.761377
    103          7           0       28.435881   -1.242926   -0.266576
    104          6           0       28.760410   -2.490690   -0.515865
    105          6           0       30.235104   -2.766992   -0.310032
    106          6           0       30.886739   -1.410495    0.124557
    107          6           0       29.539249   -0.559073    0.298959
    108          6           0       30.691137   -4.062624    0.433996
    109          6           0       31.909306   -0.691386   -0.802324
    110          6           0       32.736909    0.348581   -0.075736
    111          7           0       27.087637    1.291502    0.661222
    112          6           0       28.415402    1.694637    0.933587
    113          6           0       28.380893    3.069022    1.353507
    114          6           0       27.018108    3.454168    1.339534
    115          6           0       26.326935    2.339650    0.872513
    116          6           0       29.532302    3.862634    1.952896
    117          6           0       26.186709    4.515510    1.624913
    118          8           0       26.340220    5.667443    1.927489
    119          6           0       24.744360    3.999528    1.108987
    120          6           0       24.573670    4.684355   -0.246161
    121          8           0       25.072114    4.319483   -1.293540
    122          8           0       23.769210    5.792361   -0.034183
    123          6           0       23.564103    6.661297   -1.188532
    124          1           0       22.233822   -2.337987   -0.378155
    125          1           0       28.197382   -4.468974   -1.201683
    126          1           0       30.385218    1.276052    1.071628
    127          1           0       22.184603    2.258024    1.159174
    128          1           0       21.405755    0.238577   -0.737257
    129          1           0       21.265153   -1.229804    1.405418
    130          1           0       20.060363   -0.022814    1.387075
    131          1           0       21.448234    0.247306    2.439210
    132          1           0       21.635887    2.009574   -1.674862
    133          1           0       22.839634    3.136626   -1.605470
    134          1           0       21.422954    4.738154   -0.987718
    135          1           0       20.863231    3.873279    0.445811
    136          1           0       21.877438   -4.075062   -1.308852
    137          1           0       22.566872   -5.608571   -0.775547
    138          1           0       22.620471   -5.023755   -2.459280
    139          1           0       27.606639   -6.534932   -0.802671
    140          1           0       27.611503   -6.241770   -2.634962
    141          1           0       26.979087   -7.729724   -1.797568
    142          1           0       30.819700   -2.900299   -1.220527
    143          1           0       31.198757   -1.413099    1.169208
    144          1           0       29.805495   -4.696307    0.497924
    145          1           0       31.197059   -3.872580    1.381283
    146          1           0       31.421915   -4.658836   -0.112633
    147          1           0       31.330050   -0.292039   -1.634731
    148          1           0       32.504931   -1.502213   -1.221593
    149          1           0       33.713150    0.386104   -0.559752
    150          1           0       32.909813    0.151502    0.982928
    151          1           0       32.307441    1.333661   -0.258328
    152          1           0       29.232418    4.816767    2.386351
    153          1           0       30.277446    4.002292    1.170798
    154          1           0       30.028547    3.302240    2.745314
    155          1           0       23.970225    4.168741    1.858074
    156          1           0       24.511699    7.121098   -1.469634
    157          1           0       22.790762    7.405971   -1.003229
    158          1           0       23.268747    6.058903   -2.047131
 ---------------------------------------------------------------------

 SCF Done:  E(RPBE1PBE) =  -4067.38240422     A.U. after   17 cycles

 Excitation energies and oscillator strengths:

 Excited State   1:      Singlet-A      1.8399 eV  673.85 nm  f=0.3611  <S**2>=0.000
     309 -> 316       -0.17109
     312 -> 314        0.69450
     312 <- 314       -0.11328
 This state for optimization and/or second-order correction.
 Total Energy, E(TD-HF/TD-DFT) =  -4067.31478761
 Copying the excited state density for this state as the 1-particle RhoCI density.

 Excited State   2:      Singlet-A      1.8858 eV  657.46 nm  f=0.3626  <S**2>=0.000
     310 -> 315        0.14504
     311 -> 313        0.69237

 Excited State   3:      Singlet-A      1.9287 eV  642.83 nm  f=0.0000  <S**2>=0.000
     312 -> 313        0.70711

 Excited State   4:      Singlet-A      2.1119 eV  587.07 nm  f=0.0000  <S**2>=0.000
     311 -> 314        0.70711

 Excited State   5:      Singlet-A      2.2301 eV  555.97 nm  f=0.1184  <S**2>=0.000
     310 -> 313        0.65847
     311 -> 315       -0.22034
     311 -> 317       -0.11541

 The electronic state is 1-A.
 Alpha  occ. eigenvalues --  -46.92800 -46.91339 -19.25621 -19.25329 -19.20280
 Alpha  occ. eigenvalues --  -19.20233 -19.20081 -19.19765 -19.19464 -19.18480
 Alpha  occ. eigenvalues --  -14.41727 -14.41631 -14.41593 -14.41027 -14.39983
 Alpha  occ. eigenvalues --  -14.38931 -14.38913 -14.38424 -10.36618 -10.36308
 Alpha  occ. eigenvalues --  -10.33836 -10.32837 -10.32535 -10.30949 -10.30229
 Alpha  occ. eigenvalues --  -10.29690 -10.29018 -10.29016 -10.28968 -10.28546
 Alpha  occ. eigenvalues --  -10.28482 -10.28396 -10.28296 -10.28126 -10.27854
 Alpha  occ. eigenvalues --  -10.27830 -10.27656 -10.27359 -10.27228 -10.27131
 Alpha  occ. eigenvalues --  -10.26872 -10.26846 -10.26583 -10.26370 -10.26239
 Alpha  occ. eigenvalues --  -10.26131 -10.26094 -10.26056 -10.26022 -10.25970
 Alpha  occ. eigenvalues --  -10.25946 -10.25841 -10.25749 -10.25743 -10.25535
 Alpha  occ. eigenvalues --  -10.25521 -10.25412 -10.25391 -10.25331 -10.25270
 Alpha  occ. eigenvalues --  -10.25144 -10.25043 -10.24918 -10.24567 -10.24561
 Alpha  occ. eigenvalues --  -10.24543 -10.24534 -10.24512 -10.24464 -10.24459
 Alpha  occ. eigenvalues --  -10.24318 -10.24293 -10.23842 -10.23794 -10.23730
 Alpha  occ. eigenvalues --  -10.23636 -10.23466 -10.23439 -10.23346 -10.23170
 Alpha  occ. eigenvalues --  -10.23149 -10.23125 -10.23107 -10.23034 -10.21957
 Alpha  occ. eigenvalues --  -10.21447  -3.14822  -3.13617  -1.87645  -1.87199
 Alpha  occ. eigenvalues --   -1.87049  -1.86462  -1.85968  -1.85868  -1.10375
 Alpha  occ. eigenvalues --   -1.09830  -1.07628  -1.05043  -1.04947  -1.03489
 Alpha  occ. eigenvalues --   -1.02898  -1.02202  -0.99797  -0.99172  -0.98384
 Alpha  occ. eigenvalues --   -0.98219  -0.97906  -0.97579  -0.97217  -0.96802
 Alpha  occ. eigenvalues --   -0.86241  -0.86141  -0.83480  -0.83323  -0.82856
 Alpha  occ. eigenvalues --   -0.82768  -0.82372  -0.82183  -0.81437  -0.81385
 Alpha  occ. eigenvalues --   -0.81244  -0.80609  -0.80582  -0.80367  -0.78656
 Alpha  occ. eigenvalues --   -0.78459  -0.77940  -0.77859  -0.77239  -0.76822
 Alpha  occ. eigenvalues --   -0.76360  -0.76073  -0.75286  -0.75198  -0.74721
 Alpha  occ. eigenvalues --   -0.74607  -0.72578  -0.71989  -0.71561  -0.71355
 Alpha  occ. eigenvalues --   -0.71043  -0.70937  -0.70103  -0.69758  -0.69488
 Alpha  occ. eigenvalues --   -0.69231  -0.66948  -0.66690  -0.66122  -0.65924
 Alpha  occ. eigenvalues --   -0.64093  -0.63598  -0.63489  -0.62940  -0.62489
 Alpha  occ. eigenvalues --   -0.62104  -0.61618  -0.61151  -0.60130  -0.60032
 Alpha  occ. eigenvalues --   -0.59918  -0.59224  -0.59180  -0.58803  -0.58717
 Alpha  occ. eigenvalues --   -0.58557  -0.56405  -0.56365  -0.54756  -0.54364
 Alpha  occ. eigenvalues --   -0.54156  -0.54101  -0.53575  -0.53450  -0.52997
 Alpha  occ. eigenvalues --   -0.52761  -0.52535  -0.52310  -0.52074  -0.51626
 Alpha  occ. eigenvalues --   -0.50840  -0.50443  -0.50136  -0.50073  -0.49825
 Alpha  occ. eigenvalues --   -0.49701  -0.49329  -0.48727  -0.48602  -0.48349
 Alpha  occ. eigenvalues --   -0.48181  -0.48101  -0.48034  -0.47925  -0.47771
 Alpha  occ. eigenvalues --   -0.47478  -0.47220  -0.47061  -0.46730  -0.46613
 Alpha  occ. eigenvalues --   -0.46237  -0.46208  -0.46165  -0.45886  -0.45754
 Alpha  occ. eigenvalues --   -0.45714  -0.45482  -0.45233  -0.44989  -0.44756
 Alpha  occ. eigenvalues --   -0.44752  -0.44628  -0.44548  -0.44273  -0.44167
 Alpha  occ. eigenvalues --   -0.44141  -0.43985  -0.43832  -0.43752  -0.43386
 Alpha  occ. eigenvalues --   -0.43278  -0.43261  -0.42984  -0.42875  -0.42658
 Alpha  occ. eigenvalues --   -0.42448  -0.42264  -0.42026  -0.41656  -0.41611
 Alpha  occ. eigenvalues --   -0.41406  -0.41329  -0.41269  -0.41046  -0.41005
 Alpha  occ. eigenvalues --   -0.40826  -0.40798  -0.40607  -0.40442  -0.40228
 Alpha  occ. eigenvalues --   -0.40092  -0.40031  -0.39936  -0.39808  -0.39696
 Alpha  occ. eigenvalues --   -0.39581  -0.39473  -0.39450  -0.39157  -0.38958
 Alpha  occ. eigenvalues --   -0.38886  -0.38811  -0.38581  -0.38519  -0.38255
 Alpha  occ. eigenvalues --   -0.38185  -0.38094  -0.37863  -0.37700  -0.37515
 Alpha  occ. eigenvalues --   -0.37509  -0.37388  -0.37188  -0.37078  -0.36867
 Alpha  occ. eigenvalues --   -0.36752  -0.36465  -0.36413  -0.36321  -0.36186
 Alpha  occ. eigenvalues --   -0.36019  -0.35855  -0.35403  -0.35370  -0.35173
 Alpha  occ. eigenvalues --   -0.35103  -0.34904  -0.34195  -0.34045  -0.33960
 Alpha  occ. eigenvalues --   -0.33623  -0.33040  -0.33000  -0.32694  -0.32447
 Alpha  occ. eigenvalues --   -0.31935  -0.31627  -0.31554  -0.31443  -0.31425
 Alpha  occ. eigenvalues --   -0.30943  -0.30488  -0.29653  -0.29526  -0.29268
 Alpha  occ. eigenvalues --   -0.29248  -0.28707  -0.28366  -0.27225  -0.26802
 Alpha  occ. eigenvalues --   -0.26775  -0.26399  -0.26220  -0.26029  -0.25673
 Alpha  occ. eigenvalues --   -0.25313  -0.25153  -0.24941  -0.20911  -0.20874
 Alpha  occ. eigenvalues --   -0.18952  -0.18440
 Alpha virt. eigenvalues --   -0.11099  -0.10941  -0.05478  -0.04910  -0.03920
 Alpha virt. eigenvalues --   -0.03839  -0.02522  -0.01935  -0.00937  -0.00164
 Alpha virt. eigenvalues --    0.00150   0.00881   0.01256   0.01407   0.02053

 Mulliken charges:
               1
     1  Mg  12.001675
     2  C    5.976328
     3  C    5.995539
     4  C    6.028677
     5  C    6.007283
     6  N    6.988209
     7  C    6.033174
     8  C    5.990355
     9  C    6.008017
    10  C    5.974049
    11  C    6.006296
    12  C    5.998360
    13  C    6.000052
    14  H    1.005182
    15  N    7.004550
    16  C    5.966901
    17  C    5.977767
    18  C    5.988638
    19  C    5.960738
    20  C    6.001353
    21  C    5.986068
    22  O    7.972411
    23  C    6.009512
    24  N    7.017870
    25  C    5.963905
    26  C    6.003990
    27  C    5.991884
    28  C    6.020534
    29  C    5.998882
    30  C    5.994526
    31  C    5.996824
    32  N    6.998167
    33  C    6.023609
    34  C    6.035888
    35  C    6.003492
    36  C    6.027110
    37  C    5.995299
    38  C    6.014868
    39  O    8.023909
    40  C    6.004255
    41  C    6.002678
    42  O    8.008799
    43  O    8.000098
    44  C    5.997981
    45  H    0.988588
    46  H    0.996141
    47  H    1.014229
    48  H    1.000232
    49  H    0.995644
    50  H    0.990215
    51  H    0.988081
    52  H    1.006999
    53  H    1.007054
    54  H    0.993235
    55  H    0.995433
    56  H    1.001010
    57  H    0.982737
    58  H    0.985198
    59  H    0.983862
    60  H    0.994400
    61  H    0.986054
    62  H    0.989247
    63  H    1.003642
    64  H    1.001936
    65  H    0.989443
    66  H    1.003015
    67  H    1.001572
    68  H    1.011557
    69  H    0.998618
    70  H    0.993590
    71  H    1.011960
    72  H    1.007260
    73  H    1.017966
    74  H    1.015477
    75  H    1.023441
    76  H    1.006206
    77  H    1.000794
    78  H    1.006103
    79  H    1.003361
    80  Mg  12.000006
    81  C    5.999916
    82  C    6.000017
    83  C    6.000048
    84  C    5.999979
    85  N    6.999945
    86  C    6.000160
    87  C    5.999983
    88  C    6.000046
    89  C    5.999888
    90  C    6.000005
    91  C    5.999976
    92  C    5.999991
    93  H    1.000030
    94  N    7.000060
    95  C    5.999836
    96  C    5.999893
    97  C    5.999973
    98  C    5.999812
    99  C    6.000007
   100  C    5.999940
   101  O    7.999868
   102  C    6.000026
   103  N    6.999990
   104  C    5.999856
   105  C    6.000059
   106  C    5.999979
   107  C    6.000151
   108  C    6.000003
   109  C    5.999975
   110  C    5.999980
   111  N    6.999958
   112  C    6.000181
   113  C    6.000129
   114  C    6.000045
   115  C    6.000116
   116  C    5.999999
   117  C    6.000059
   118  O    8.000199
   119  C    6.000005
   120  C    6.000006
   121  O    8.000036
   122  O    8.000023
   123  C    5.999981
   124  H    0.999945
   125  H    0.999955
   126  H    1.000042
   127  H    0.999994
   128  H    0.999988
   129  H    1.000017
   130  H    0.999949
   131  H    0.999957
   132  H    1.000039
   133  H    0.999989
   134  H    0.999999
   135  H    1.000009
   136  H    0.999895
   137  H    0.999898
   138  H    0.999896
   139  H    0.999956
   140  H    0.999952
   141  H    0.999917
   142  H    0.999962
   143  H    0.999998
   144  H    1.000025
   145  H    0.999966
   146  H    0.999984
   147  H    1.000012
   148  H    1.000053
   149  H    1.000035
   150  H    1.000011
   151  H    0.999975
   152  H    1.000084
   153  H    1.000098
   154  H    1.000104
   155  H    1.000071
   156  H    1.000018
   157  H    1.000048
   158  H    1.000023
 Sum of Mulliken charges = 624.00000

 Dipole moment (field-independent basis, Debye):
    X=              2.9747    Y=             -9.3985    Z=             -2.5134  Tot=             10.1734
 Quadrupole moment (field-independent basis, Debye-Ang):
   XX=           -155.8494   YY=             -6.0872   ZZ=              5.4711
   XY=            251.5660   XZ=             64.3428   YZ=              2.0505

 Normal termination of Gaussian 16 at Thu Oct 14 03:38:00 2021.
