 Gaussian 16, Revision A.03,
 Gaussian 16:  ES64L-G16RevA.03 25-Dec-2016

 --------------------------------------------------------
 #p PBE1PBE/Def2SVP td=(nstates=5) density=(transition=1)
 --------------------------------------------------------

 --------------------------------
 TDDFT excited states in gaussian
 --------------------------------
 Symbolic Z-matrix:
 Charge =  0 Multiplicity = 1

                         Standard orientation:
 ---------------------------------------------------------------------
 Center     Atomic      Atomic             Coordinates (Angstroms)
 Number     Number       Type             X           Y           Z
 ---------------------------------------------------------------------
      1         12           0      -24.318892   -0.867831    0.018785
      2          6           0      -25.657339    2.460607    0.322529
      3          6           0      -22.411312    0.312404   -2.554546
      4          6           0      -23.306378   -4.030592   -0.453680
      5          6           0      -26.649255   -1.904913    2.264899
      6          7           0      -24.036978    1.268115   -0.989142
      7          6           0      -24.679557    2.414259   -0.620524
      8          6           0      -24.050563    3.527715   -1.368802
      9          6           0      -23.104763    2.848055   -2.397341
     10          6           0      -23.171952    1.337362   -2.042706
     11          6           0      -23.571328    3.092850   -3.867664
     12          6           0      -23.359829    4.575940   -0.532820
     13          6           0      -22.896879    5.864709   -1.192891
     14          1           0      -23.274361    7.122827   -0.530641
     15          7           0      -22.972309   -1.704169   -1.227643
     16          6           0      -22.336686   -1.054994   -2.321873
     17          6           0      -21.387872   -2.029440   -2.892681
     18          6           0      -21.728619   -3.261778   -2.341196
     19          6           0      -22.770054   -3.039360   -1.321834
     20          6           0      -20.432883   -1.638551   -4.001149
     21          6           0      -21.123338   -4.658208   -2.601079
     22          8           0      -21.644791   -5.725601   -2.227607
     23          6           0      -19.832805   -4.702547   -3.312347
     24          7           0      -24.930988   -2.761116    0.746880
     25          6           0      -24.393753   -3.927533    0.453692
     26          6           0      -25.071462   -5.120446    1.182207
     27          6           0      -25.936845   -4.374848    2.200489
     28          6           0      -25.802461   -2.938733    1.748566
     29          6           0      -25.911744   -5.996998    0.193291
     30          6           0      -25.582118   -4.552476    3.659597
     31          6           0      -26.755080   -4.752655    4.635662
     32          7           0      -25.761398    0.089736    1.131400
     33          6           0      -26.634211   -0.491444    2.025096
     34          6           0      -27.498031    0.533131    2.685643
     35          6           0      -27.102922    1.653040    1.982100
     36          6           0      -26.114514    1.358778    1.035130
     37          6           0      -28.394249    0.374356    3.871637
     38          6           0      -27.368834    3.080198    1.877304
     39          8           0      -28.137136    3.749756    2.558559
     40          6           0      -26.443805    3.684252    0.795967
     41          6           0      -27.289755    4.445182   -0.087707
     42          8           0      -28.055242    3.993822   -0.973385
     43          8           0      -27.030743    5.775823    0.041798
     44          6           0      -27.571764    6.687716   -0.942300
     45          1           0      -21.733068    0.692088   -3.321205
     46          1           0      -23.103178   -5.071016   -0.715164
     47          1           0      -27.493637   -2.366047    2.781085
     48          1           0      -24.896972    3.972844   -1.890182
     49          1           0      -22.079705    3.211617   -2.323304
     50          1           0      -22.914156    3.467634   -4.653004
     51          1           0      -24.374401    3.823287   -3.770779
     52          1           0      -24.112944    2.264219   -4.324660
     53          1           0      -22.423618    4.198203   -0.121470
     54          1           0      -23.863030    4.733206    0.420799
     55          1           0      -23.292511    5.942452   -2.204469
     56          1           0      -21.818592    5.891575   -1.037963
     57          1           0      -20.397260   -2.343860   -4.831171
     58          1           0      -19.406869   -1.482753   -3.668409
     59          1           0      -20.690702   -0.718096   -4.525554
     60          1           0      -19.141679   -4.023096   -2.813354
     61          1           0      -20.100383   -4.322753   -4.297764
     62          1           0      -19.440507   -5.709015   -3.171389
     63          1           0      -24.264826   -5.683417    1.653027
     64          1           0      -27.007375   -4.573104    2.156387
     65          1           0      -26.979649   -5.916719    0.394191
     66          1           0      -25.677269   -7.055563    0.305494
     67          1           0      -25.691570   -5.601302   -0.798314
     68          1           0      -24.972468   -3.729428    4.031094
     69          1           0      -24.796230   -5.306970    3.646539
     70          1           0      -26.369672   -5.337159    5.470510
     71          1           0      -27.650449   -5.146449    4.153694
     72          1           0      -26.976065   -3.720730    4.907606
     73          1           0      -27.961286    0.720679    4.810281
     74          1           0      -28.733648   -0.660444    3.835773
     75          1           0      -29.350042    0.856710    3.663220
     76          1           0      -25.870947    4.444238    1.327265
     77          1           0      -28.062776    6.205417   -1.787939
     78          1           0      -26.814097    7.403223   -1.260647
     79          1           0      -28.336341    7.339292   -0.518440
     80         12           0       25.042393   -0.439564    0.035775
     81          6           0       24.003805    2.655694    0.990663
     82          6           0       25.520703    0.646688   -3.193492
     83          6           0       25.880079   -3.609439   -0.807399
     84          6           0       24.086647   -1.620708    3.226889
     85          7           0       24.574102    1.401433   -1.034559
     86          6           0       24.477070    2.578936   -0.361417
     87          6           0       24.713698    3.774849   -1.220088
     88          6           0       24.949884    3.041400   -2.640403
     89          6           0       25.025220    1.590922   -2.292582
     90          6           0       23.784672    3.338627   -3.689197
     91          6           0       26.027287    4.528493   -0.704972
     92          6           0       26.170805    6.010033   -1.060008
     93          1           0       25.313816    6.741921   -2.122746
     94          7           0       25.719868   -1.380565   -1.704898
     95          6           0       25.824840   -0.743057   -2.951915
     96          6           0       26.275404   -1.737666   -3.897665
     97          6           0       26.412355   -2.963786   -3.215583
     98          6           0       26.041010   -2.648383   -1.843051
     99          6           0       26.581660   -1.363370   -5.366653
    100          6           0       26.792150   -4.405682   -3.842729
    101          8           0       27.026647   -5.398272   -3.141842
    102          6           0       26.935560   -4.679832   -5.330683
    103          7           0       25.043571   -2.360676    1.135462
    104          6           0       25.405989   -3.505678    0.509195
    105          6           0       25.057552   -4.734653    1.347256
    106          6           0       24.778575   -4.062819    2.812620
    107          6           0       24.722430   -2.571312    2.446736
    108          6           0       23.926232   -5.693299    0.754188
    109          6           0       25.959486   -4.198823    3.901894
    110          6           0       25.640521   -4.683139    5.304338
    111          7           0       24.257721    0.298996    1.825094
    112          6           0       23.914638   -0.258564    2.999503
    113          6           0       23.473815    0.804899    3.955712
    114          6           0       23.563965    1.977181    3.168251
    115          6           0       23.923425    1.564576    1.861920
    116          6           0       23.079920    0.728388    5.388384
    117          6           0       23.350799    3.372116    3.271017
    118          8           0       22.975912    4.061793    4.241470
    119          6           0       23.622099    3.882573    1.858096
    120          6           0       22.422579    4.508006    1.349999
    121          8           0       21.313137    4.088746    1.238277
    122          8           0       22.811631    5.752450    0.863329
    123          6           0       21.839833    6.694803    0.187343
    124          1           0       25.906418    0.961614   -4.164940
    125          1           0       26.058702   -4.643019   -1.112278
    126          1           0       23.595443   -1.936660    4.148920
    127          1           0       23.960821    4.554541   -1.333953
    128          1           0       25.888817    3.354721   -3.096800
    129          1           0       24.093806    3.432458   -4.729965
    130          1           0       23.192870    4.182196   -3.334195
    131          1           0       23.122673    2.472499   -3.661991
    132          1           0       26.934299    4.032950   -1.051741
    133          1           0       26.001832    4.429536    0.380525
    134          1           0       27.220961    6.145916   -1.321567
    135          1           0       26.059526    6.595715   -0.148281
    136          1           0       26.479312   -0.301458   -5.589798
    137          1           0       25.913491   -1.962346   -5.984539
    138          1           0       27.597835   -1.698834   -5.575186
    139          1           0       27.835342   -4.138178   -5.620056
    140          1           0       26.203714   -4.136019   -5.928319
    141          1           0       26.813126   -5.743157   -5.535703
    142          1           0       25.963514   -5.334076    1.444472
    143          1           0       23.866867   -4.462143    3.257385
    144          1           0       23.090711   -5.795858    1.447040
    145          1           0       24.348140   -6.670404    0.521676
    146          1           0       23.487424   -5.259189   -0.144514
    147          1           0       26.543441   -3.282153    3.983134
    148          1           0       26.681418   -4.894226    3.474787
    149          1           0       25.991190   -3.907960    5.984792
    150          1           0       26.084799   -5.651712    5.531961
    151          1           0       24.558956   -4.725135    5.440411
    152          1           0       23.185501   -0.257153    5.841584
    153          1           0       22.035227    1.011376    5.519943
    154          1           0       23.698909    1.427202    5.950711
    155          1           0       24.435605    4.608131    1.831175
    156          1           0       20.857134    6.230300    0.103031
    157          1           0       22.173025    6.893387   -0.832185
    158          1           0       21.814678    7.583876    0.817379
 ---------------------------------------------------------------------

 SCF Done:  E(RPBE1PBE) =  -4067.38653468     A.U. after   16 cycles

 Excitation energies and oscillator strengths:

 Excited State   1:      Singlet-A      1.8923 eV  655.20 nm  f=0.3820  <S**2>=0.000
     310 -> 316        0.18623
     311 -> 313        0.68966
     311 <- 313       -0.10200
 This state for optimization and/or second-order correction.
 Total Energy, E(TD-HF/TD-DFT) =  -4067.31699328
 Copying the excited state density for this state as the 1-particle RhoCI density.

 Excited State   2:      Singlet-A      1.9171 eV  646.72 nm  f=0.3723  <S**2>=0.000
     309 -> 315        0.19069
     312 -> 314        0.68790

 Excited State   3:      Singlet-A      1.9922 eV  622.36 nm  f=0.0000  <S**2>=0.000
     312 -> 313        0.70711

 Excited State   4:      Singlet-A      2.1312 eV  581.76 nm  f=0.0000  <S**2>=0.000
     311 -> 314        0.70711

 Excited State   5:      Singlet-A      2.2346 eV  554.85 nm  f=0.1003  <S**2>=0.000
     310 -> 313        0.65138
     311 -> 316       -0.26691

 The electronic state is 1-A.
 Alpha  occ. eigenvalues --  -46.92796 -46.91899 -19.25818 -19.24347 -19.19742
 Alpha  occ. eigenvalues --  -19.19516 -19.19213 -19.19087 -19.18965 -19.18855
 Alpha  occ. eigenvalues --  -14.42021 -14.41407 -14.41164 -14.40617 -14.39422
 Alpha  occ. eigenvalues --  -14.39260 -14.39250 -14.38974 -10.36120 -10.35599
 Alpha  occ. eigenvalues --  -10.33516 -10.32331 -10.31644 -10.31538 -10.29420
 Alpha  occ. eigenvalues --  -10.29118 -10.28465 -10.28456 -10.28436 -10.28403
 Alpha  occ. eigenvalues --  -10.28360 -10.28259 -10.28215 -10.28148 -10.28039
 Alpha  occ. eigenvalues --  -10.28016 -10.27817 -10.27739 -10.27627 -10.27515
 Alpha  occ. eigenvalues --  -10.26636 -10.26530 -10.26406 -10.26345 -10.26154
 Alpha  occ. eigenvalues --  -10.26142 -10.26124 -10.26078 -10.26068 -10.26019
 Alpha  occ. eigenvalues --  -10.25908 -10.25852 -10.25825 -10.25773 -10.25697
 Alpha  occ. eigenvalues --  -10.25585 -10.25561 -10.25382 -10.25365 -10.25103
 Alpha  occ. eigenvalues --  -10.25096 -10.25013 -10.24963 -10.24945 -10.24921
 Alpha  occ. eigenvalues --  -10.24921 -10.24693 -10.24497 -10.24030 -10.23992
 Alpha  occ. eigenvalues --  -10.23872 -10.23781 -10.23718 -10.23677 -10.23607
 Alpha  occ. eigenvalues --  -10.23592 -10.23583 -10.23558 -10.23486 -10.23480
 Alpha  occ. eigenvalues --  -10.23410 -10.23322 -10.23174 -10.22797 -10.22393
 Alpha  occ. eigenvalues --  -10.22349  -3.14788  -3.14083  -1.87649  -1.87144
 Alpha  occ. eigenvalues --   -1.87022  -1.86933  -1.86448  -1.86319  -1.10889
 Alpha  occ. eigenvalues --   -1.10336  -1.04341  -1.04228  -1.03719  -1.02983
 Alpha  occ. eigenvalues --   -1.02008  -1.00741  -1.00433  -1.00217  -0.99314
 Alpha  occ. eigenvalues --   -0.99121  -0.98315  -0.97679  -0.97301  -0.96810
 Alpha  occ. eigenvalues --   -0.87832  -0.87553  -0.84427  -0.83583  -0.82969
 Alpha  occ. eigenvalues --   -0.82779  -0.82526  -0.81865  -0.81860  -0.81394
 Alpha  occ. eigenvalues --   -0.81355  -0.81208  -0.80976  -0.80545  -0.78983
 Alpha  occ. eigenvalues --   -0.78668  -0.78340  -0.77759  -0.77215  -0.76748
 Alpha  occ. eigenvalues --   -0.76643  -0.75838  -0.75592  -0.75469  -0.75275
 Alpha  occ. eigenvalues --   -0.74687  -0.72939  -0.72774  -0.72037  -0.71823
 Alpha  occ. eigenvalues --   -0.71763  -0.71401  -0.70875  -0.70496  -0.69605
 Alpha  occ. eigenvalues --   -0.69573  -0.67468  -0.67046  -0.66466  -0.66412
 Alpha  occ. eigenvalues --   -0.63929  -0.63739  -0.63654  -0.63024  -0.62637
 Alpha  occ. eigenvalues --   -0.62499  -0.60938  -0.60855  -0.60456  -0.59852
 Alpha  occ. eigenvalues --   -0.59733  -0.59683  -0.59658  -0.59121  -0.59089
 Alpha  occ. eigenvalues --   -0.58824  -0.57144  -0.56343  -0.55090  -0.54926
 Alpha  occ. eigenvalues --   -0.54504  -0.54475  -0.54065  -0.53814  -0.53406
 Alpha  occ. eigenvalues --   -0.53399  -0.52907  -0.52857  -0.52331  -0.52233
 Alpha  occ. eigenvalues --   -0.51063  -0.50680  -0.50256  -0.50169  -0.50095
 Alpha  occ. eigenvalues --   -0.49819  -0.48970  -0.48674  -0.48574  -0.48444
 Alpha  occ. eigenvalues --   -0.48351  -0.47944  -0.47748  -0.47710  -0.47517
 Alpha  occ. eigenvalues --   -0.47469  -0.47362  -0.46739  -0.46650  -0.46649
 Alpha  occ. eigenvalues --   -0.46493  -0.46254  -0.46234  -0.46169  -0.46003
 Alpha  occ. eigenvalues --   -0.45796  -0.45424  -0.45397  -0.45138  -0.45037
 Alpha  occ. eigenvalues --   -0.44871  -0.44593  -0.44477  -0.44243  -0.44217
 Alpha  occ. eigenvalues --   -0.44069  -0.43736  -0.43638  -0.43561  -0.43283
 Alpha  occ. eigenvalues --   -0.43031  -0.42995  -0.42958  -0.42807  -0.42620
 Alpha  occ. eigenvalues --   -0.42574  -0.42396  -0.42324  -0.42020  -0.41968
 Alpha  occ. eigenvalues --   -0.41904  -0.41708  -0.41635  -0.41307  -0.41283
 Alpha  occ. eigenvalues --   -0.41185  -0.40968  -0.40965  -0.40887  -0.40850
 Alpha  occ. eigenvalues --   -0.40391  -0.40374  -0.39955  -0.39909  -0.39879
 Alpha  occ. eigenvalues --   -0.39453  -0.39332  -0.39169  -0.39046  -0.38796
 Alpha  occ. eigenvalues --   -0.38768  -0.38767  -0.38564  -0.38553  -0.38514
 Alpha  occ. eigenvalues --   -0.38125  -0.38092  -0.38030  -0.37533  -0.37350
 Alpha  occ. eigenvalues --   -0.37210  -0.37157  -0.36922  -0.36667  -0.36593
 Alpha  occ. eigenvalues --   -0.36491  -0.36467  -0.36376  -0.36176  -0.36079
 Alpha  occ. eigenvalues --   -0.36001  -0.35984  -0.35920  -0.35742  -0.35688
 Alpha  occ. eigenvalues --   -0.35105  -0.35043  -0.34900  -0.34703  -0.34358
 Alpha  occ. eigenvalues --   -0.33741  -0.33423  -0.32916  -0.32818  -0.32577
 Alpha  occ. eigenvalues --   -0.32126  -0.31853  -0.31610  -0.31069  -0.31053
 Alpha  occ. eigenvalues --   -0.30991  -0.30593  -0.29440  -0.29358  -0.29073
 Alpha  occ. eigenvalues --   -0.28693  -0.28580  -0.28187  -0.27170  -0.26828
 Alpha  occ. eigenvalues --   -0.26199  -0.26127  -0.26015  -0.25878  -0.25741
 Alpha  occ. eigenvalues --   -0.25699  -0.25497  -0.25404  -0.21010  -0.20810
 Alpha  occ. eigenvalues --   -0.18795  -0.18607
 Alpha virt. eigenvalues --   -0.11019  -0.10696  -0.05240  -0.05208  -0.04218
 Alpha virt. eigenvalues --   -0.03507  -0.02143  -0.01918  -0.00132  -0.00109
 Alpha virt. eigenvalues --    0.00377   0.00756   0.01332   0.01446   0.01587

 Mulliken charges:
               1
     1  Mg  12.000004
     2  C    5.999943
     3  C    6.000056
     4  C    6.000105
     5  C    5.999977
     6  N    6.999980
     7  C    6.000116
     8  C    5.999982
     9  C    6.000012
    10  C    5.999901
    11  C    6.000037
    12  C    5.999979
    13  C    5.999992
    14  H    1.000011
    15  N    7.000016
    16  C    5.999843
    17  C    5.999947
    18  C    5.999955
    19  C    5.999851
    20  C    6.000050
    21  C    5.999938
    22  O    7.999897
    23  C    6.000008
    24  N    7.000063
    25  C    5.999882
    26  C    6.000015
    27  C    5.999994
    28  C    6.000118
    29  C    5.999998
    30  C    5.999950
    31  C    5.999994
    32  N    6.999997
    33  C    6.000062
    34  C    6.000093
    35  C    5.999978
    36  C    6.000111
    37  C    5.999991
    38  C    6.000119
    39  O    8.000084
    40  C    6.000004
    41  C    5.999996
    42  O    8.000004
    43  O    8.000015
    44  C    5.999996
    45  H    0.999954
    46  H    0.999973
    47  H    1.000039
    48  H    0.999981
    49  H    1.000010
    50  H    0.999983
    51  H    0.999948
    52  H    0.999979
    53  H    1.000045
    54  H    0.999985
    55  H    0.999992
    56  H    1.000036
    57  H    0.999915
    58  H    0.999951
    59  H    0.999936
    60  H    1.000000
    61  H    0.999958
    62  H    0.999939
    63  H    1.000019
    64  H    0.999984
    65  H    0.999957
    66  H    0.999987
    67  H    1.000015
    68  H    1.000031
    69  H    1.000056
    70  H    1.000033
    71  H    0.999995
    72  H    0.999988
    73  H    1.000089
    74  H    1.000040
    75  H    1.000050
    76  H    1.000037
    77  H    0.999997
    78  H    1.000027
    79  H    1.000008
    80  Mg  12.001356
    81  C    6.018211
    82  C    5.982048
    83  C    5.984351
    84  C    6.008893
    85  N    6.999494
    86  C    5.964377
    87  C    6.017015
    88  C    5.986366
    89  C    6.037837
    90  C    5.997866
    91  C    6.003806
    92  C    6.000257
    93  H    0.994111
    94  N    6.994643
    95  C    6.047466
    96  C    6.010554
    97  C    6.021616
    98  C    6.025097
    99  C    5.999654
   100  C    6.012152
   101  O    8.027090
   102  C    5.998522
   103  N    6.998220
   104  C    6.029756
   105  C    5.990113
   106  C    6.009430
   107  C    5.972845
   108  C    5.998258
   109  C    6.007647
   110  C    5.999058
   111  N    7.002932
   112  C    5.964768
   113  C    5.966690
   114  C    5.998910
   115  C    5.973454
   116  C    6.004437
   117  C    5.983085
   118  O    7.970605
   119  C    6.001447
   120  C    5.995900
   121  O    7.996684
   122  O    7.998707
   123  C    6.001296
   124  H    1.009249
   125  H    1.005792
   126  H    0.991874
   127  H    0.996808
   128  H    1.002247
   129  H    1.000353
   130  H    1.014665
   131  H    1.000295
   132  H    0.988749
   133  H    1.007932
   134  H    0.995930
   135  H    1.003175
   136  H    1.016274
   137  H    1.015067
   138  H    1.015314
   139  H    1.006918
   140  H    1.006190
   141  H    1.013026
   142  H    0.999249
   143  H    0.997073
   144  H    1.010418
   145  H    0.999880
   146  H    0.995737
   147  H    1.000784
   148  H    0.987720
   149  H    1.002515
   150  H    0.994656
   151  H    1.000724
   152  H    0.981800
   153  H    0.980720
   154  H    0.982990
   155  H    0.991031
   156  H    0.996848
   157  H    0.993323
   158  H    0.997650
 Sum of Mulliken charges = 624.00000

 Dipole moment (field-independent basis, Debye):
    X=              3.1855    Y=             -4.4942    Z=             -8.7253  Tot=             10.3188
 Quadrupole moment (field-independent basis, Debye-Ang):
   XX=            160.5424   YY=              2.0698   ZZ=             -0.3030
   XY=           -114.0109   XZ=           -218.5894   YZ=              5.3632

 Normal termination of Gaussian 16 at Fri Oct 15 04:59:47 2021.
