 Gaussian 16, Revision A.03,
 Gaussian 16:  ES64L-G16RevA.03 25-Dec-2016

 --------------------------------------------------------
 #p PBE1PBE/Def2SVP td=(nstates=5) density=(transition=1)
 --------------------------------------------------------

 --------------------------------
 TDDFT excited states in gaussian
 --------------------------------
 Symbolic Z-matrix:
 Charge =  0 Multiplicity = 1

                         Standard orientation:
 ---------------------------------------------------------------------
 Center     Atomic      Atomic             Coordinates (Angstroms)
 Number     Number       Type             X           Y           Z
 ---------------------------------------------------------------------
      1         12           0      -16.961430   -0.658829    0.261324
      2          6           0      -17.086476    2.419459   -1.180760
      3          6           0      -16.109377    0.725451    3.293595
      4          6           0      -16.698612   -3.793328    1.512966
      5          6           0      -17.363121   -2.059032   -2.958898
      6          7           0      -16.417288    1.347941    0.917804
      7          6           0      -16.865381    2.436144    0.236571
      8          6           0      -16.907162    3.677380    1.061862
      9          6           0      -16.323486    3.094185    2.451189
     10          6           0      -16.270771    1.617761    2.232248
     11          6           0      -14.888812    3.689893    2.815710
     12          6           0      -18.427695    4.154648    1.199846
     13          6           0      -18.673192    5.629167    1.527161
     14          1           0      -17.582964    6.606109    2.033605
     15          7           0      -16.575175   -1.473832    2.148379
     16          6           0      -16.218519   -0.713281    3.273922
     17          6           0      -15.987993   -1.642746    4.355426
     18          6           0      -16.184352   -2.948965    3.862886
     19          6           0      -16.548923   -2.749519    2.466989
     20          6           0      -15.654547   -1.144064    5.780889
     21          6           0      -15.952441   -4.345053    4.646324
     22          8           0      -16.286747   -5.439295    4.174794
     23          6           0      -15.344990   -4.455413    6.035049
     24          7           0      -17.097836   -2.676778   -0.638266
     25          6           0      -16.907937   -3.779099    0.125548
     26          6           0      -16.753284   -5.033282   -0.733080
     27          6           0      -17.308592   -4.509486   -2.180061
     28          6           0      -17.377567   -2.993542   -1.937631
     29          6           0      -15.316348   -5.729886   -0.709113
     30          6           0      -18.806192   -4.954337   -2.578646
     31          6           0      -19.077183   -5.550945   -3.947504
     32          7           0      -17.238102   -0.032017   -1.711846
     33          6           0      -17.369986   -0.669168   -2.888477
     34          6           0      -17.626903    0.325090   -3.977081
     35          6           0      -17.569436    1.556768   -3.282723
     36          6           0      -17.206213    1.255756   -1.947277
     37          6           0      -17.924496    0.136232   -5.422531
     38          6           0      -17.697616    2.945034   -3.523829
     39          8           0      -17.946932    3.560890   -4.580492
     40          6           0      -17.385419    3.575795   -2.169138
     41          6           0      -16.230611    4.433127   -2.309075
     42          8           0      -15.135586    4.203957   -2.718367
     43          8           0      -16.584020    5.653722   -1.741537
     44          6           0      -15.610908    6.807682   -1.637586
     45          1           0      -16.060899    1.093518    4.320163
     46          1           0      -16.517117   -4.797384    1.902936
     47          1           0      -17.297178   -2.406089   -3.991590
     48          1           0      -16.349957    4.570388    0.779431
     49          1           0      -16.990624    3.314201    3.284607
     50          1           0      -14.699904    3.861117    3.875219
     51          1           0      -14.697928    4.564259    2.193686
     52          1           0      -14.160641    2.937558    2.510879
     53          1           0      -18.962676    3.572785    1.950653
     54          1           0      -18.882523    3.929875    0.234779
     55          1           0      -19.492072    5.634614    2.247656
     56          1           0      -19.104849    6.110079    0.650207
     57          1           0      -15.666526   -0.059804    5.891180
     58          1           0      -14.677372   -1.555214    6.032064
     59          1           0      -16.378094   -1.602240    6.455565
     60          1           0      -16.098020   -4.025715    6.694623
     61          1           0      -14.540020   -3.738345    6.197335
     62          1           0      -14.941863   -5.455012    6.196216
     63          1           0      -17.470321   -5.770698   -0.370311
     64          1           0      -16.643369   -4.816591   -2.987309
     65          1           0      -14.887326   -5.787530   -1.709751
     66          1           0      -15.390070   -6.724277   -0.270303
     67          1           0      -14.607499   -5.128458   -0.139477
     68          1           0      -19.525746   -4.153712   -2.407979
     69          1           0      -19.105499   -5.694392   -1.837077
     70          1           0      -19.840743   -4.926298   -4.409762
     71          1           0      -19.382157   -6.596136   -3.903964
     72          1           0      -18.191628   -5.444313   -4.575582
     73          1           0      -18.035000   -0.901489   -5.736784
     74          1           0      -17.130987    0.556595   -6.040927
     75          1           0      -18.852633    0.659522   -5.651504
     76          1           0      -18.218502    4.167188   -1.788116
     77          1           0      -14.629878    6.511554   -2.009684
     78          1           0      -15.472613    7.075432   -0.589219
     79          1           0      -16.046666    7.607260   -2.236602
     80         12           0       17.227620   -0.634376   -0.113116
     81          6           0       15.061387    2.154716    0.620515
     82          6           0       19.861977    1.677218   -0.231542
     83          6           0       19.235860   -3.172896   -0.663374
     84          6           0       14.422993   -2.716342   -0.256671
     85          7           0       17.375657    1.707251    0.154779
     86          6           0       16.436222    2.558073    0.645507
     87          6           0       17.038080    3.888296    1.068261
     88          6           0       18.547620    3.848390    0.456032
     89          6           0       18.605358    2.339974    0.078294
     90          6           0       18.817946    4.860387   -0.685450
     91          6           0       16.999398    4.104133    2.618905
     92          6           0       16.263329    5.396729    3.057165
     93          1           0       17.230780    6.484226    3.804083
     94          7           0       19.205660   -0.729950   -0.391448
     95          6           0       20.191326    0.312774   -0.449266
     96          6           0       21.566923   -0.189299   -0.677690
     97          6           0       21.349110   -1.604655   -0.739674
     98          6           0       19.909176   -1.876965   -0.595376
     99          6           0       22.811581    0.690017   -0.814088
    100          6           0       22.334490   -2.676698   -1.011668
    101          8           0       22.154911   -3.875630   -0.827089
    102          6           0       23.756801   -2.257985   -1.432881
    103          7           0       16.881800   -2.635588   -0.238024
    104          6           0       17.882184   -3.506237   -0.503983
    105          6           0       17.385857   -4.879990   -0.860055
    106          6           0       15.848906   -4.787566   -0.694983
    107          6           0       15.672865   -3.300159   -0.314577
    108          6           0       17.872452   -5.403767   -2.194977
    109          6           0       15.337137   -5.769735    0.515182
    110          6           0       14.163935   -6.821337    0.120212
    111          7           0       15.123485   -0.329065   -0.137149
    112          6           0       14.119040   -1.326654   -0.124806
    113          6           0       12.830251   -0.658353    0.088593
    114          6           0       13.203395    0.644820    0.510713
    115          6           0       14.561336    0.821727    0.241131
    116          6           0       11.411342   -1.207744   -0.024111
    117          6           0       12.599763    1.968545    0.833438
    118          8           0       11.425656    2.416926    0.951223
    119          6           0       13.828934    2.937647    1.030592
    120          6           0       13.615148    4.154773    0.179863
    121          8           0       13.230788    4.126881   -0.954985
    122          8           0       13.809811    5.278938    0.933390
    123          6           0       13.292613    6.503338    0.271645
    124          1           0       20.618093    2.448699   -0.390122
    125          1           0       19.849175   -4.057693   -0.847832
    126          1           0       13.536323   -3.353358   -0.259101
    127          1           0       16.479571    4.654058    0.529890
    128          1           0       19.312203    3.986867    1.220923
    129          1           0       19.009696    4.342972   -1.625915
    130          1           0       19.665017    5.500226   -0.434710
    131          1           0       18.039564    5.604087   -0.856298
    132          1           0       18.001991    4.166679    3.042781
    133          1           0       16.484781    3.287297    3.125618
    134          1           0       15.546821    5.229378    3.861771
    135          1           0       15.671388    5.880319    2.280724
    136          1           0       22.739508    1.712918   -0.443172
    137          1           0       23.242086    0.742152   -1.814062
    138          1           0       23.567069    0.198098   -0.200597
    139          1           0       23.727320   -1.706218   -2.372408
    140          1           0       24.437913   -3.107342   -1.495505
    141          1           0       24.152935   -1.601687   -0.658010
    142          1           0       17.831348   -5.588296   -0.160219
    143          1           0       15.337214   -4.985479   -1.636384
    144          1           0       18.617795   -6.194621   -2.106281
    145          1           0       18.393283   -4.674875   -2.815800
    146          1           0       17.003057   -5.747923   -2.755547
    147          1           0       14.964813   -5.237523    1.389919
    148          1           0       16.137403   -6.393745    0.912162
    149          1           0       14.216251   -6.919269   -0.964297
    150          1           0       13.181078   -6.472149    0.439363
    151          1           0       14.394252   -7.825271    0.475870
    152          1           0       10.726615   -0.725653    0.673354
    153          1           0       11.435283   -2.239551    0.328391
    154          1           0       11.213246   -1.175199   -1.095562
    155          1           0       13.763953    3.285222    2.061333
    156          1           0       13.746736    6.553095   -0.717814
    157          1           0       13.731863    7.310487    0.857674
    158          1           0       12.219550    6.610708    0.113425
 ---------------------------------------------------------------------

 SCF Done:  E(RPBE1PBE) =  -4067.36749125     A.U. after   16 cycles

 Excitation energies and oscillator strengths:

 Excited State   1:      Singlet-A      1.8271 eV  678.59 nm  f=0.3560  <S**2>=0.000
     309 -> 315       -0.18302
     311 -> 313        0.69139
     311 <- 313       -0.10666
 This state for optimization and/or second-order correction.
 Total Energy, E(TD-HF/TD-DFT) =  -4067.30034731
 Copying the excited state density for this state as the 1-particle RhoCI density.

 Excited State   2:      Singlet-A      1.8888 eV  656.43 nm  f=0.0000  <S**2>=0.000
     312 -> 313        0.70710

 Excited State   3:      Singlet-A      1.8923 eV  655.20 nm  f=0.3834  <S**2>=0.000
     310 -> 316        0.18632
     312 -> 314        0.68964
     312 <- 314       -0.10199

 Excited State   4:      Singlet-A      2.0625 eV  601.13 nm  f=0.0000  <S**2>=0.000
     311 -> 314        0.70710

 Excited State   5:      Singlet-A      2.1728 eV  570.62 nm  f=0.1303  <S**2>=0.000
     309 -> 313        0.65737
     311 -> 315        0.25557

 The electronic state is 1-A.
 Alpha  occ. eigenvalues --  -46.92730 -46.91969 -19.26295 -19.24276 -19.19959
 Alpha  occ. eigenvalues --  -19.19670 -19.19453 -19.19060 -19.19039 -19.18898
 Alpha  occ. eigenvalues --  -14.41957 -14.41955 -14.41593 -14.41099 -14.40309
 Alpha  occ. eigenvalues --  -14.39184 -14.39015 -14.38908 -10.35844 -10.35528
 Alpha  occ. eigenvalues --  -10.33452 -10.32431 -10.32115 -10.31472 -10.29451
 Alpha  occ. eigenvalues --  -10.29353 -10.29148 -10.29093 -10.29085 -10.29045
 Alpha  occ. eigenvalues --  -10.29043 -10.28693 -10.28484 -10.28399 -10.28295
 Alpha  occ. eigenvalues --  -10.28089 -10.27951 -10.27942 -10.27673 -10.27561
 Alpha  occ. eigenvalues --  -10.27449 -10.26875 -10.26849 -10.26800 -10.26466
 Alpha  occ. eigenvalues --  -10.26449 -10.26429 -10.26399 -10.26340 -10.26279
 Alpha  occ. eigenvalues --  -10.26087 -10.26079 -10.26002 -10.25954 -10.25919
 Alpha  occ. eigenvalues --  -10.25799 -10.25789 -10.25677 -10.25629 -10.25613
 Alpha  occ. eigenvalues --  -10.25493 -10.25466 -10.25300 -10.25037 -10.25032
 Alpha  occ. eigenvalues --  -10.25006 -10.24970 -10.24942 -10.24856 -10.24553
 Alpha  occ. eigenvalues --  -10.24001 -10.23966 -10.23927 -10.23915 -10.23722
 Alpha  occ. eigenvalues --  -10.23683 -10.23645 -10.23542 -10.23517 -10.23493
 Alpha  occ. eigenvalues --  -10.23435 -10.23220 -10.23088 -10.22995 -10.22740
 Alpha  occ. eigenvalues --  -10.22327  -3.14722  -3.14188  -1.87583  -1.87078
 Alpha  occ. eigenvalues --   -1.87027  -1.86956  -1.86563  -1.86433  -1.11727
 Alpha  occ. eigenvalues --   -1.10265  -1.04567  -1.04278  -1.03511  -1.02917
 Alpha  occ. eigenvalues --   -1.01937  -1.01896  -1.00151  -0.99055  -0.98660
 Alpha  occ. eigenvalues --   -0.98250  -0.97856  -0.97254  -0.97236  -0.96631
 Alpha  occ. eigenvalues --   -0.87765  -0.85948  -0.82903  -0.82900  -0.82771
 Alpha  occ. eigenvalues --   -0.82460  -0.82335  -0.81794  -0.81717  -0.81291
 Alpha  occ. eigenvalues --   -0.81243  -0.81144  -0.80479  -0.80084  -0.78601
 Alpha  occ. eigenvalues --   -0.78246  -0.77694  -0.77485  -0.76579  -0.76080
 Alpha  occ. eigenvalues --   -0.75773  -0.75495  -0.75404  -0.75008  -0.74622
 Alpha  occ. eigenvalues --   -0.73977  -0.73263  -0.72708  -0.71758  -0.71477
 Alpha  occ. eigenvalues --   -0.71333  -0.71115  -0.70429  -0.70328  -0.69591
 Alpha  occ. eigenvalues --   -0.69506  -0.67043  -0.66981  -0.66399  -0.65854
 Alpha  occ. eigenvalues --   -0.63673  -0.63493  -0.63162  -0.62960  -0.62573
 Alpha  occ. eigenvalues --   -0.61970  -0.61523  -0.60392  -0.60380  -0.60023
 Alpha  occ. eigenvalues --   -0.59670  -0.59617  -0.59023  -0.58997  -0.58759
 Alpha  occ. eigenvalues --   -0.58565  -0.56955  -0.56274  -0.55288  -0.55025
 Alpha  occ. eigenvalues --   -0.54408  -0.53866  -0.53748  -0.53332  -0.53324
 Alpha  occ. eigenvalues --   -0.52958  -0.52839  -0.52478  -0.52266  -0.51737
 Alpha  occ. eigenvalues --   -0.50696  -0.50615  -0.50104  -0.49879  -0.49751
 Alpha  occ. eigenvalues --   -0.49481  -0.49071  -0.48605  -0.48398  -0.48284
 Alpha  occ. eigenvalues --   -0.47967  -0.47645  -0.47452  -0.47296  -0.47280
 Alpha  occ. eigenvalues --   -0.46902  -0.46670  -0.46663  -0.46585  -0.46281
 Alpha  occ. eigenvalues --   -0.46194  -0.46104  -0.46052  -0.46001  -0.45936
 Alpha  occ. eigenvalues --   -0.45463  -0.45331  -0.45089  -0.45073  -0.44707
 Alpha  occ. eigenvalues --   -0.44540  -0.44415  -0.44364  -0.44148  -0.44003
 Alpha  occ. eigenvalues --   -0.43906  -0.43728  -0.43670  -0.43492  -0.43279
 Alpha  occ. eigenvalues --   -0.42956  -0.42893  -0.42802  -0.42742  -0.42643
 Alpha  occ. eigenvalues --   -0.42554  -0.42273  -0.42259  -0.42072  -0.41903
 Alpha  occ. eigenvalues --   -0.41702  -0.41582  -0.41570  -0.41240  -0.41217
 Alpha  occ. eigenvalues --   -0.41119  -0.40931  -0.40904  -0.40819  -0.40727
 Alpha  occ. eigenvalues --   -0.40334  -0.40309  -0.39844  -0.39744  -0.39647
 Alpha  occ. eigenvalues --   -0.39519  -0.39386  -0.39248  -0.39105  -0.38980
 Alpha  occ. eigenvalues --   -0.38902  -0.38750  -0.38731  -0.38702  -0.38489
 Alpha  occ. eigenvalues --   -0.38463  -0.38107  -0.38026  -0.37695  -0.37466
 Alpha  occ. eigenvalues --   -0.37455  -0.37098  -0.37090  -0.36771  -0.36601
 Alpha  occ. eigenvalues --   -0.36424  -0.36398  -0.36152  -0.36113  -0.35936
 Alpha  occ. eigenvalues --   -0.35854  -0.35685  -0.35620  -0.35598  -0.35369
 Alpha  occ. eigenvalues --   -0.35139  -0.35041  -0.34640  -0.34467  -0.34293
 Alpha  occ. eigenvalues --   -0.33570  -0.33361  -0.33250  -0.32752  -0.32514
 Alpha  occ. eigenvalues --   -0.32512  -0.32252  -0.31787  -0.31544  -0.31453
 Alpha  occ. eigenvalues --   -0.30983  -0.30646  -0.29757  -0.29375  -0.29367
 Alpha  occ. eigenvalues --   -0.29289  -0.28625  -0.28586  -0.27139  -0.26762
 Alpha  occ. eigenvalues --   -0.26061  -0.25999  -0.25951  -0.25696  -0.25634
 Alpha  occ. eigenvalues --   -0.25568  -0.25431  -0.25015  -0.20847  -0.20744
 Alpha  occ. eigenvalues --   -0.18924  -0.18729
 Alpha virt. eigenvalues --   -0.11401  -0.10953  -0.05319  -0.05142  -0.04153
 Alpha virt. eigenvalues --   -0.04073  -0.02379  -0.02078  -0.00048  -0.00010
 Alpha virt. eigenvalues --    0.00695   0.00821   0.01008   0.01285   0.01398

 Mulliken charges:
               1
     1  Mg  11.999997
     2  C    6.000162
     3  C    6.000052
     4  C    5.999838
     5  C    5.999992
     6  N    7.000015
     7  C    5.999784
     8  C    6.000123
     9  C    5.999908
    10  C    6.000220
    11  C    5.999953
    12  C    6.000021
    13  C    6.000033
    14  H    1.000013
    15  N    7.000066
    16  C    6.000211
    17  C    6.000087
    18  C    6.000051
    19  C    6.000146
    20  C    6.000007
    21  C    6.000074
    22  O    8.000158
    23  C    5.999949
    24  N    7.000050
    25  C    6.000196
    26  C    5.999954
    27  C    6.000025
    28  C    5.999802
    29  C    5.999961
    30  C    6.000082
    31  C    5.999990
    32  N    7.000016
    33  C    5.999861
    34  C    5.999796
    35  C    5.999940
    36  C    5.999881
    37  C    6.000073
    38  C    5.999873
    39  O    7.999777
    40  C    6.000013
    41  C    5.999981
    42  O    8.000081
    43  O    7.999949
    44  C    5.999998
    45  H    1.000041
    46  H    1.000033
    47  H    0.999941
    48  H    1.000017
    49  H    0.999941
    50  H    1.000031
    51  H    1.000125
    52  H    1.000151
    53  H    0.999878
    54  H    1.000006
    55  H    0.999878
    56  H    0.999959
    57  H    1.000109
    58  H    1.000212
    59  H    1.000000
    60  H    0.999956
    61  H    1.000167
    62  H    1.000122
    63  H    0.999913
    64  H    1.000032
    65  H    1.000130
    66  H    0.999982
    67  H    1.000108
    68  H    0.999941
    69  H    0.999869
    70  H    0.999943
    71  H    0.999903
    72  H    1.000052
    73  H    0.999843
    74  H    0.999927
    75  H    0.999804
    76  H    0.999863
    77  H    1.000099
    78  H    0.999966
    79  H    0.999899
    80  Mg  11.996041
    81  C    6.024647
    82  C    6.002854
    83  C    5.971067
    84  C    6.002405
    85  N    7.017553
    86  C    5.967928
    87  C    6.009611
    88  C    5.988889
    89  C    6.027014
    90  C    5.997634
    91  C    6.001195
    92  C    6.001943
    93  H    0.993605
    94  N    6.997139
    95  C    6.030369
    96  C    6.024004
    97  C    6.013093
    98  C    6.025526
    99  C    5.996766
   100  C    6.012029
   101  O    8.030967
   102  C    5.996175
   103  N    6.991089
   104  C    6.036012
   105  C    5.991561
   106  C    6.010599
   107  C    5.971465
   108  C    5.999384
   109  C    6.004513
   110  C    6.000684
   111  N    7.001781
   112  C    5.963331
   113  C    5.969257
   114  C    5.997899
   115  C    5.971594
   116  C    5.998596
   117  C    5.988399
   118  O    7.970826
   119  C    5.996284
   120  C    5.992994
   121  O    8.000113
   122  O    7.998253
   123  C    6.001691
   124  H    1.012917
   125  H    1.001648
   126  H    0.987761
   127  H    1.002484
   128  H    1.000760
   129  H    0.999465
   130  H    1.003393
   131  H    1.012807
   132  H    0.992036
   133  H    1.004601
   134  H    1.003015
   135  H    1.001893
   136  H    1.014586
   137  H    1.018169
   138  H    1.014760
   139  H    1.007272
   140  H    1.013596
   141  H    1.004972
   142  H    0.998257
   143  H    0.996672
   144  H    0.997289
   145  H    0.994512
   146  H    1.008648
   147  H    1.000776
   148  H    0.988414
   149  H    0.996287
   150  H    1.002475
   151  H    0.993943
   152  H    0.986135
   153  H    0.985082
   154  H    0.984187
   155  H    0.995528
   156  H    0.995681
   157  H    0.995258
   158  H    0.999940
 Sum of Mulliken charges = 624.00000

 Dipole moment (field-independent basis, Debye):
    X=             10.0710    Y=              0.3121    Z=             -1.1145  Tot=             10.1373
 Quadrupole moment (field-independent basis, Debye-Ang):
   XX=            345.9792   YY=             -2.7580   ZZ=              0.1779
   XY=              1.0353   XZ=            -24.3541   YZ=             -0.4258

 Normal termination of Gaussian 16 at Thu Oct 14 19:11:16 2021.
