 Gaussian 16, Revision A.03,
 Gaussian 16:  ES64L-G16RevA.03 25-Dec-2016

 --------------------------------------------------------
 #p PBE1PBE/Def2SVP td=(nstates=5) density=(transition=1)
 --------------------------------------------------------

 --------------------------------
 TDDFT excited states in gaussian
 --------------------------------
 Symbolic Z-matrix:
 Charge =  0 Multiplicity = 1

                         Standard orientation:
 ---------------------------------------------------------------------
 Center     Atomic      Atomic             Coordinates (Angstroms)
 Number     Number       Type             X           Y           Z
 ---------------------------------------------------------------------
      1         12           0      -22.814482    0.545588    0.244534
      2          6           0      -21.596944   -2.412356   -1.174203
      3          6           0      -21.473421    2.330479   -2.343193
      4          6           0      -23.696654    3.318544    1.817328
      5          6           0      -23.998065   -1.423072    2.983134
      6          7           0      -21.617296   -0.012845   -1.534983
      7          6           0      -21.277718   -1.268729   -1.986800
      8          6           0      -20.754467   -1.198455   -3.409553
      9          6           0      -20.477332    0.343922   -3.609922
     10          6           0      -21.341829    0.914967   -2.434634
     11          6           0      -19.006916    0.721781   -3.484143
     12          6           0      -21.738476   -1.946408   -4.381237
     13          6           0      -21.395755   -1.744235   -5.883366
     14          1           0      -19.935956   -1.528770   -6.224693
     15          7           0      -22.633455    2.478757   -0.196584
     16          6           0      -21.954244    3.054463   -1.262914
     17          6           0      -21.969295    4.526015   -1.188782
     18          6           0      -22.666789    4.794714    0.028998
     19          6           0      -23.019356    3.499032    0.603507
     20          6           0      -21.400007    5.398890   -2.243640
     21          6           0      -22.958184    6.157280    0.602992
     22          8           0      -23.622849    6.306343    1.665680
     23          6           0      -22.536314    7.412563   -0.111406
     24          7           0      -23.780423    0.887565    2.129637
     25          6           0      -24.012320    2.146602    2.501899
     26          6           0      -24.595701    2.187616    3.982476
     27          6           0      -24.659004    0.611496    4.390869
     28          6           0      -24.104491   -0.017482    3.111954
     29          6           0      -23.628824    3.064130    4.879566
     30          6           0      -26.123766    0.061669    4.665300
     31          6           0      -26.659523    0.254553    6.113059
     32          7           0      -22.773844   -1.437370    0.866432
     33          6           0      -23.387684   -2.138172    1.938025
     34          6           0      -23.145755   -3.637931    1.772326
     35          6           0      -22.390101   -3.791513    0.614351
     36          6           0      -22.261974   -2.420154    0.058631
     37          6           0      -23.650924   -4.749568    2.637759
     38          6           0      -21.768025   -4.723598   -0.296650
     39          8           0      -21.658130   -5.953611   -0.277000
     40          6           0      -21.375604   -3.881230   -1.609876
     41          6           0      -19.968389   -4.161028   -2.085569
     42          8           0      -18.994078   -3.588362   -1.678078
     43          8           0      -19.972269   -4.998469   -3.223936
     44          6           0      -18.764320   -5.000622   -4.062731
     45          1           0      -20.952479    2.756487   -3.203610
     46          1           0      -23.971462    4.237954    2.338798
     47          1           0      -24.239249   -2.069842    3.829401
     48          1           0      -19.818510   -1.754788   -3.440551
     49          1           0      -20.870256    0.777325   -4.530203
     50          1           0      -18.751273    1.218637   -4.419907
     51          1           0      -18.439642   -0.177041   -3.243533
     52          1           0      -18.838978    1.535342   -2.778844
     53          1           0      -22.704009   -1.671555   -3.957759
     54          1           0      -21.633065   -3.002741   -4.136246
     55          1           0      -21.999033   -0.878648   -6.157220
     56          1           0      -21.731238   -2.627729   -6.426309
     57          1           0      -20.587586    5.899586   -1.717255
     58          1           0      -22.130784    6.078848   -2.680688
     59          1           0      -20.921276    4.947152   -3.113406
     60          1           0      -23.062271    7.470509   -1.063367
     61          1           0      -21.465205    7.212893   -0.161522
     62          1           0      -22.651090    8.346092    0.438760
     63          1           0      -25.582449    2.607055    3.782437
     64          1           0      -23.916461    0.244795    5.100848
     65          1           0      -22.753561    3.450456    4.357577
     66          1           0      -23.258419    2.468763    5.714526
     67          1           0      -24.210906    3.941599    5.159669
     68          1           0      -26.271399   -0.940969    4.265039
     69          1           0      -26.782968    0.664622    4.041643
     70          1           0      -27.602885    0.792601    6.026905
     71          1           0      -25.891419    0.756696    6.701395
     72          1           0      -26.872921   -0.696976    6.600625
     73          1           0      -24.437805   -5.242856    2.066743
     74          1           0      -24.021620   -4.352994    3.583738
     75          1           0      -22.957831   -5.550842    2.893201
     76          1           0      -22.112411   -4.147703   -2.367087
     77          1           0      -18.056701   -5.632983   -3.527205
     78          1           0      -18.451439   -3.982029   -4.293128
     79          1           0      -19.061229   -5.432640   -5.018027
     80         12           0       22.898694    0.491322   -0.283437
     81          6           0       21.078176   -2.443479    0.399278
     82          6           0       19.874764    1.917952   -1.239671
     83          6           0       24.416455    3.444270   -0.544326
     84          6           0       25.522861   -0.841760    1.555050
     85          7           0       20.700483   -0.204334   -0.226170
     86          6           0       20.174550   -1.467939   -0.040186
     87          6           0       18.767558   -1.669212   -0.562581
     88          6           0       18.390240   -0.272300   -1.110760
     89          6           0       19.689605    0.558161   -0.850538
     90          6           0       17.952069   -0.264378   -2.631450
     91          6           0       17.684020   -2.178982    0.489190
     92          6           0       17.847685   -1.752170    1.957063
     93          1           0       16.913676   -0.635425    2.510310
     94          7           0       22.247536    2.367704   -0.815302
     95          6           0       21.000060    2.740272   -1.228492
     96          6           0       21.012658    4.146919   -1.654125
     97          6           0       22.347690    4.616756   -1.460079
     98          6           0       23.073083    3.436177   -0.898296
     99          6           0       19.791564    4.872857   -2.206134
    100          6           0       22.673769    6.132813   -1.730939
    101          8           0       21.753638    6.865332   -2.066836
    102          6           0       24.136569    6.693294   -1.479700
    103          7           0       24.626181    1.212612    0.507708
    104          6           0       25.149119    2.446371    0.127157
    105          6           0       26.669458    2.625889    0.691757
    106          6           0       26.852218    1.223639    1.489578
    107          6           0       25.590478    0.497391    1.150304
    108          6           0       27.709510    2.849412   -0.445293
    109          6           0       27.046662    1.357090    3.060764
    110          6           0       28.236542    0.648461    3.726373
    111          7           0       23.328816   -1.335515    0.684429
    112          6           0       24.415352   -1.760502    1.405177
    113          6           0       24.141573   -3.123707    1.906843
    114          6           0       22.853023   -3.452337    1.406777
    115          6           0       22.406035   -2.292490    0.714246
    116          6           0       25.021478   -3.977684    2.777084
    117          6           0       21.822375   -4.506603    1.452870
    118          8           0       21.824393   -5.668328    1.885597
    119          6           0       20.695995   -3.930573    0.607730
    120          6           0       20.458552   -4.675637   -0.582524
    121          8           0       21.186818   -4.554927   -1.601525
    122          8           0       19.319622   -5.496119   -0.460062
    123          6           0       18.845277   -6.201451   -1.646349
    124          1           0       18.997970    2.365756   -1.711379
    125          1           0       24.988572    4.348135   -0.761866
    126          1           0       26.413795   -1.208908    2.067888
    127          1           0       18.910895   -2.417676   -1.340991
    128          1           0       17.669063    0.132848   -0.401851
    129          1           0       16.887357   -0.041593   -2.700589
    130          1           0       18.171334   -1.262958   -3.010372
    131          1           0       18.489776    0.497352   -3.196998
    132          1           0       17.841417   -3.257378    0.444496
    133          1           0       16.686967   -1.949860    0.112343
    134          1           0       18.873319   -1.437863    2.153259
    135          1           0       17.735124   -2.638329    2.580288
    136          1           0       19.309024    5.553747   -1.504926
    137          1           0       19.127059    4.182699   -2.726107
    138          1           0       20.063553    5.487537   -3.064029
    139          1           0       24.826072    5.998363   -1.959630
    140          1           0       24.288599    6.731275   -0.401351
    141          1           0       24.252864    7.750923   -1.716338
    142          1           0       26.668863    3.559882    1.252892
    143          1           0       27.683434    0.698547    1.018440
    144          1           0       28.134857    1.877060   -0.692836
    145          1           0       28.453935    3.605509   -0.195527
    146          1           0       27.290564    3.282567   -1.353418
    147          1           0       26.105158    1.048627    3.516341
    148          1           0       27.189782    2.432475    3.166351
    149          1           0       28.085294    0.512214    4.797549
    150          1           0       29.055121    1.340282    3.529127
    151          1           0       28.303700   -0.305317    3.202599
    152          1           0       25.628404   -3.257125    3.324632
    153          1           0       25.654928   -4.477033    2.043969
    154          1           0       24.501929   -4.734214    3.365896
    155          1           0       19.855738   -3.998569    1.298352
    156          1           0       19.497622   -6.964940   -2.070260
    157          1           0       18.616632   -5.486497   -2.437251
    158          1           0       17.846559   -6.566328   -1.405942
 ---------------------------------------------------------------------

 SCF Done:  E(RPBE1PBE) =  -4067.38106630     A.U. after   16 cycles

 Excitation energies and oscillator strengths:

 Excited State   1:      Singlet-A      1.8621 eV  665.85 nm  f=0.3413  <S**2>=0.000
     310 -> 315        0.19107
     312 -> 314        0.68742
     312 <- 314       -0.10005
 This state for optimization and/or second-order correction.
 Total Energy, E(TD-HF/TD-DFT) =  -4067.31263697
 Copying the excited state density for this state as the 1-particle RhoCI density.

 Excited State   2:      Singlet-A      1.8697 eV  663.13 nm  f=0.3988  <S**2>=0.000
     309 -> 316       -0.17503
     311 -> 313        0.69137
     311 <- 313       -0.10381

 Excited State   3:      Singlet-A      1.9385 eV  639.60 nm  f=0.0000  <S**2>=0.000
     312 -> 313        0.70711

 Excited State   4:      Singlet-A      2.0990 eV  590.67 nm  f=0.0000  <S**2>=0.000
     311 -> 314        0.70711

 Excited State   5:      Singlet-A      2.2825 eV  543.18 nm  f=0.0466  <S**2>=0.000
     310 -> 314        0.61492
     312 -> 315       -0.34314

 The electronic state is 1-A.
 Alpha  occ. eigenvalues --  -46.92351 -46.91500 -19.26410 -19.24638 -19.20470
 Alpha  occ. eigenvalues --  -19.20431 -19.19797 -19.19467 -19.19418 -19.18593
 Alpha  occ. eigenvalues --  -14.42059 -14.41724 -14.41604 -14.41141 -14.39652
 Alpha  occ. eigenvalues --  -14.39529 -14.39522 -14.39017 -10.36971 -10.36415
 Alpha  occ. eigenvalues --  -10.33644 -10.32689 -10.32535 -10.32338 -10.29558
 Alpha  occ. eigenvalues --  -10.29309 -10.29079 -10.28973 -10.28772 -10.28590
 Alpha  occ. eigenvalues --  -10.28458 -10.28457 -10.28439 -10.28438 -10.28085
 Alpha  occ. eigenvalues --  -10.28076 -10.27966 -10.27916 -10.27757 -10.27447
 Alpha  occ. eigenvalues --  -10.27290 -10.27153 -10.27145 -10.26857 -10.26769
 Alpha  occ. eigenvalues --  -10.26491 -10.26243 -10.26215 -10.26180 -10.26174
 Alpha  occ. eigenvalues --  -10.26118 -10.26113 -10.26097 -10.25950 -10.25933
 Alpha  occ. eigenvalues --  -10.25905 -10.25596 -10.25515 -10.25480 -10.25375
 Alpha  occ. eigenvalues --  -10.25236 -10.25175 -10.25017 -10.24962 -10.24784
 Alpha  occ. eigenvalues --  -10.24657 -10.24481 -10.24475 -10.24429 -10.24417
 Alpha  occ. eigenvalues --  -10.24354 -10.24265 -10.24257 -10.24136 -10.24064
 Alpha  occ. eigenvalues --  -10.23769 -10.23679 -10.23650 -10.23534 -10.23389
 Alpha  occ. eigenvalues --  -10.23241 -10.23080 -10.23025 -10.22891 -10.22848
 Alpha  occ. eigenvalues --  -10.22843  -3.14552  -3.13758  -1.87350  -1.86943
 Alpha  occ. eigenvalues --   -1.86779  -1.86606  -1.86119  -1.86013  -1.10195
 Alpha  occ. eigenvalues --   -1.09677  -1.05116  -1.03855  -1.03816  -1.02603
 Alpha  occ. eigenvalues --   -1.02455  -1.01774  -0.98930  -0.98860  -0.98181
 Alpha  occ. eigenvalues --   -0.98104  -0.97453  -0.97222  -0.96490  -0.96079
 Alpha  occ. eigenvalues --   -0.87524  -0.85958  -0.83487  -0.83164  -0.83093
 Alpha  occ. eigenvalues --   -0.82837  -0.82340  -0.82106  -0.81872  -0.81131
 Alpha  occ. eigenvalues --   -0.81051  -0.80666  -0.80452  -0.79813  -0.78827
 Alpha  occ. eigenvalues --   -0.78512  -0.78174  -0.77242  -0.77059  -0.76330
 Alpha  occ. eigenvalues --   -0.76179  -0.75863  -0.75237  -0.75053  -0.74424
 Alpha  occ. eigenvalues --   -0.74339  -0.73216  -0.72523  -0.71769  -0.71506
 Alpha  occ. eigenvalues --   -0.71281  -0.71010  -0.70839  -0.70086  -0.69275
 Alpha  occ. eigenvalues --   -0.68912  -0.66814  -0.66533  -0.66192  -0.65916
 Alpha  occ. eigenvalues --   -0.63720  -0.63648  -0.63340  -0.62985  -0.62838
 Alpha  occ. eigenvalues --   -0.62781  -0.61492  -0.61238  -0.60203  -0.59939
 Alpha  occ. eigenvalues --   -0.59683  -0.59656  -0.59112  -0.58740  -0.58472
 Alpha  occ. eigenvalues --   -0.58294  -0.57034  -0.55855  -0.55196  -0.54788
 Alpha  occ. eigenvalues --   -0.54140  -0.54071  -0.53616  -0.53267  -0.53226
 Alpha  occ. eigenvalues --   -0.52347  -0.52207  -0.52185  -0.51777  -0.51362
 Alpha  occ. eigenvalues --   -0.50756  -0.50667  -0.50317  -0.50074  -0.49503
 Alpha  occ. eigenvalues --   -0.49165  -0.48984  -0.48798  -0.48746  -0.48476
 Alpha  occ. eigenvalues --   -0.48393  -0.47974  -0.47855  -0.47608  -0.47182
 Alpha  occ. eigenvalues --   -0.47148  -0.46952  -0.46787  -0.46678  -0.46511
 Alpha  occ. eigenvalues --   -0.46353  -0.46167  -0.45982  -0.45804  -0.45744
 Alpha  occ. eigenvalues --   -0.45480  -0.45352  -0.45181  -0.45045  -0.44946
 Alpha  occ. eigenvalues --   -0.44595  -0.44557  -0.44100  -0.44044  -0.43949
 Alpha  occ. eigenvalues --   -0.43928  -0.43891  -0.43843  -0.43646  -0.43547
 Alpha  occ. eigenvalues --   -0.43523  -0.43224  -0.43169  -0.42933  -0.42845
 Alpha  occ. eigenvalues --   -0.42791  -0.42704  -0.42101  -0.42026  -0.41792
 Alpha  occ. eigenvalues --   -0.41534  -0.41353  -0.41140  -0.40989  -0.40943
 Alpha  occ. eigenvalues --   -0.40932  -0.40775  -0.40564  -0.40469  -0.40331
 Alpha  occ. eigenvalues --   -0.40084  -0.39984  -0.39867  -0.39759  -0.39662
 Alpha  occ. eigenvalues --   -0.39535  -0.39440  -0.39437  -0.39301  -0.38982
 Alpha  occ. eigenvalues --   -0.38934  -0.38818  -0.38705  -0.38310  -0.38040
 Alpha  occ. eigenvalues --   -0.37985  -0.37835  -0.37816  -0.37769  -0.37733
 Alpha  occ. eigenvalues --   -0.37483  -0.37458  -0.37260  -0.37177  -0.37072
 Alpha  occ. eigenvalues --   -0.37036  -0.36904  -0.36509  -0.36276  -0.36077
 Alpha  occ. eigenvalues --   -0.35971  -0.35762  -0.35533  -0.35284  -0.35242
 Alpha  occ. eigenvalues --   -0.35078  -0.34794  -0.34658  -0.34138  -0.34059
 Alpha  occ. eigenvalues --   -0.33858  -0.33472  -0.33249  -0.33005  -0.32610
 Alpha  occ. eigenvalues --   -0.32522  -0.32089  -0.32061  -0.31760  -0.31605
 Alpha  occ. eigenvalues --   -0.31201  -0.30936  -0.29989  -0.29395  -0.29367
 Alpha  occ. eigenvalues --   -0.29073  -0.28862  -0.28696  -0.26902  -0.26842
 Alpha  occ. eigenvalues --   -0.26394  -0.26211  -0.25982  -0.25767  -0.25621
 Alpha  occ. eigenvalues --   -0.25599  -0.25329  -0.25198  -0.21042  -0.20892
 Alpha  occ. eigenvalues --   -0.18489  -0.18164
 Alpha virt. eigenvalues --   -0.10748  -0.10483  -0.05544  -0.05280  -0.04410
 Alpha virt. eigenvalues --   -0.03980  -0.02397  -0.02197  -0.01173  -0.01033
 Alpha virt. eigenvalues --   -0.00198   0.00604   0.00812   0.01088   0.01105

 Mulliken charges:
               1
     1  Mg  12.001667
     2  C    6.021832
     3  C    5.992663
     4  C    5.979106
     5  C    6.008527
     6  N    7.010445
     7  C    5.965995
     8  C    6.006510
     9  C    5.992216
    10  C    6.028682
    11  C    5.998201
    12  C    6.003130
    13  C    5.999613
    14  H    0.995372
    15  N    6.995221
    16  C    6.034296
    17  C    6.024025
    18  C    6.014419
    19  C    6.025456
    20  C    5.995255
    21  C    6.011889
    22  O    8.030946
    23  C    5.997400
    24  N    6.996461
    25  C    6.028827
    26  C    5.995005
    27  C    6.008680
    28  C    5.967322
    29  C    5.997515
    30  C    6.006636
    31  C    5.998307
    32  N    7.001651
    33  C    5.965692
    34  C    5.969277
    35  C    5.996696
    36  C    5.975390
    37  C    6.004131
    38  C    5.982061
    39  O    7.969919
    40  C    5.997522
    41  C    5.998772
    42  O    7.992241
    43  O    7.999253
    44  C    6.001856
    45  H    1.012324
    46  H    1.004584
    47  H    0.991226
    48  H    1.000494
    49  H    1.000247
    50  H    1.003381
    51  H    1.014017
    52  H    0.994875
    53  H    0.997923
    54  H    1.006592
    55  H    0.993728
    56  H    1.001400
    57  H    1.016740
    58  H    1.018117
    59  H    1.017214
    60  H    1.006872
    61  H    1.004137
    62  H    1.014000
    63  H    0.997131
    64  H    1.000518
    65  H    0.993731
    66  H    1.009020
    67  H    0.998763
    68  H    1.004503
    69  H    0.990958
    70  H    0.994992
    71  H    0.995526
    72  H    1.000397
    73  H    0.981525
    74  H    0.983796
    75  H    0.982477
    76  H    0.994009
    77  H    0.998669
    78  H    0.993761
    79  H    0.996273
    80  Mg  12.000124
    81  C    5.999294
    82  C    6.000576
    83  C    6.000936
    84  C    5.999284
    85  N    6.999799
    86  C    6.001491
    87  C    5.999499
    88  C    6.000475
    89  C    5.998330
    90  C    6.000179
    91  C    5.999951
    92  C    5.999890
    93  H    1.000627
    94  N    7.000264
    95  C    5.998108
    96  C    5.999136
    97  C    5.999404
    98  C    5.998251
    99  C    6.000225
   100  C    5.999503
   101  O    7.999169
   102  C    6.000015
   103  N    7.000062
   104  C    5.998425
   105  C    6.000343
   106  C    5.999454
   107  C    6.001538
   108  C    6.000183
   109  C    5.999777
   110  C    5.999986
   111  N    6.999958
   112  C    6.001794
   113  C    6.001219
   114  C    6.000244
   115  C    6.001281
   116  C    6.000002
   117  C    6.000898
   118  O    8.001351
   119  C    6.000023
   120  C    6.000135
   121  O    8.000318
   122  O    8.000107
   123  C    5.999807
   124  H    0.999465
   125  H    0.999647
   126  H    1.000365
   127  H    1.000019
   128  H    0.999799
   129  H    0.999738
   130  H    0.999453
   131  H    1.000262
   132  H    0.999782
   133  H    1.000380
   134  H    0.999769
   135  H    0.999923
   136  H    0.999079
   137  H    0.999260
   138  H    0.999285
   139  H    0.999676
   140  H    0.999557
   141  H    0.999421
   142  H    1.000036
   143  H    1.000062
   144  H    0.999536
   145  H    0.999782
   146  H    1.000213
   147  H    0.999920
   148  H    1.000549
   149  H    1.000064
   150  H    1.000263
   151  H    0.999819
   152  H    1.000725
   153  H    1.000852
   154  H    1.000692
   155  H    1.000469
   156  H    1.000143
   157  H    1.000300
   158  H    1.000262
 Sum of Mulliken charges = 624.00000

 Dipole moment (field-independent basis, Debye):
    X=              0.9445    Y=              9.5045    Z=             -2.3306  Tot=              9.8315
 Quadrupole moment (field-independent basis, Debye-Ang):
   XX=            -35.5684   YY=              9.8044   ZZ=             -3.5919
   XY=           -232.4273   XZ=             62.7382   YZ=              0.7066

 Normal termination of Gaussian 16 at Thu Oct 14 19:02:03 2021.
