 Gaussian 16, Revision A.03,
 Gaussian 16:  ES64L-G16RevA.03 25-Dec-2016

 --------------------------------------------------------
 #p PBE1PBE/Def2SVP td=(nstates=5) density=(transition=1)
 --------------------------------------------------------

 --------------------------------
 TDDFT excited states in gaussian
 --------------------------------
 Symbolic Z-matrix:
 Charge =  0 Multiplicity = 1

                         Standard orientation:
 ---------------------------------------------------------------------
 Center     Atomic      Atomic             Coordinates (Angstroms)
 Number     Number       Type             X           Y           Z
 ---------------------------------------------------------------------
      1         12           0       23.533232    0.701844    0.054206
      2          6           0       22.666719   -2.588372   -0.992555
      3          6           0       23.545900   -0.426748    3.302083
      4          6           0       24.271422    3.824680    0.842784
      5          6           0       22.991012    1.848255   -3.308987
      6          7           0       23.072382   -1.328063    1.094373
      7          6           0       22.852323   -2.502009    0.397424
      8          6           0       22.768697   -3.637483    1.474351
      9          6           0       23.016250   -2.922006    2.907460
     10          6           0       23.205526   -1.485075    2.410778
     11          6           0       21.925550   -3.144962    3.975704
     12          6           0       23.631395   -4.941209    1.215814
     13          6           0       22.860907   -6.227489    1.144531
     14          1           0       21.555910   -6.460006    1.859178
     15          7           0       24.005260    1.588694    1.898975
     16          6           0       23.938098    0.950954    3.097546
     17          6           0       24.484609    1.869374    4.063146
     18          6           0       24.601913    3.115880    3.411160
     19          6           0       24.266987    2.930849    1.961702
     20          6           0       24.652545    1.435184    5.529004
     21          6           0       24.873566    4.446268    4.045549
     22          8           0       24.838397    5.509308    3.381503
     23          6           0       25.134025    4.516909    5.504525
     24          7           0       23.541441    2.581352   -1.131348
     25          6           0       23.950030    3.670522   -0.579625
     26          6           0       24.106572    4.966949   -1.539803
     27          6           0       23.671328    4.312998   -2.860054
     28          6           0       23.392058    2.885932   -2.456482
     29          6           0       23.174779    6.122629   -1.020857
     30          6           0       24.681936    4.393302   -4.057761
     31          6           0       25.942378    3.501347   -3.960645
     32          7           0       22.850686   -0.128076   -1.685438
     33          6           0       22.668183    0.487679   -2.946055
     34          6           0       22.302346   -0.560320   -3.908649
     35          6           0       22.299545   -1.778211   -3.187127
     36          6           0       22.683258   -1.470034   -1.838236
     37          6           0       22.026009   -0.337817   -5.425796
     38          6           0       22.098163   -3.119658   -3.349915
     39          8           0       21.746031   -3.783074   -4.303892
     40          6           0       22.374856   -3.769297   -1.965326
     41          6           0       21.227905   -4.566784   -1.597027
     42          8           0       20.239202   -4.142265   -0.988402
     43          8           0       21.296600   -5.812778   -2.231558
     44          6           0       20.077424   -6.644635   -2.077587
     45          1           0       23.340799   -0.587872    4.362834
     46          1           0       24.355006    4.870708    1.145203
     47          1           0       22.817323    2.142381   -4.346137
     48          1           0       21.749605   -3.963690    1.270707
     49          1           0       23.903562   -3.355802    3.366398
     50          1           0       22.357680   -3.561823    4.886325
     51          1           0       21.072182   -3.757872    3.686017
     52          1           0       21.546207   -2.142088    4.171784
     53          1           0       24.404520   -5.034144    1.978787
     54          1           0       24.075128   -4.798985    0.230404
     55          1           0       23.426452   -6.954494    1.728473
     56          1           0       22.752413   -6.491919    0.093267
     57          1           0       24.621072    0.351324    5.642521
     58          1           0       23.868551    1.885146    6.136739
     59          1           0       25.632553    1.817289    5.812990
     60          1           0       25.995964    3.879618    5.702161
     61          1           0       24.299708    4.111021    6.077886
     62          1           0       25.255076    5.551310    5.823650
     63          1           0       25.143905    5.298264   -1.593490
     64          1           0       22.674972    4.664804   -3.128630
     65          1           0       22.317975    5.661969   -0.529223
     66          1           0       22.800006    6.669558   -1.886743
     67          1           0       23.599517    6.851959   -0.330610
     68          1           0       24.895372    5.435975   -4.290954
     69          1           0       24.140289    4.106130   -4.958468
     70          1           0       26.337619    3.316629   -2.962324
     71          1           0       26.695748    3.906805   -4.636973
     72          1           0       25.648516    2.553409   -4.411109
     73          1           0       22.574340   -1.027904   -6.067138
     74          1           0       22.211619    0.684773   -5.752426
     75          1           0       21.030551   -0.714649   -5.662007
     76          1           0       23.233194   -4.401408   -2.190520
     77          1           0       19.246703   -6.213954   -2.636038
     78          1           0       19.714204   -6.728055   -1.053918
     79          1           0       20.375662   -7.668319   -2.304567
     80         12           0      -23.648856    0.593079   -0.121790
     81          6           0      -21.298134   -1.740880    1.027777
     82          6           0      -25.723630   -2.037257   -0.916054
     83          6           0      -25.832268    2.807725   -1.226208
     84          6           0      -21.336149    3.135141    0.607596
     85          7           0      -23.503154   -1.601848    0.139927
     86          6           0      -22.448958   -2.383403    0.613060
     87          6           0      -22.861132   -3.880796    0.898696
     88          6           0      -24.170680   -3.909634    0.134525
     89          6           0      -24.514548   -2.410240   -0.245365
     90          6           0      -24.007727   -4.713110   -1.236289
     91          6           0      -23.126390   -3.914770    2.469207
     92          6           0      -22.599704   -5.188346    3.265892
     93          1           0      -22.683768   -6.408411    2.384733
     94          7           0      -25.403707    0.394432   -1.063589
     95          6           0      -26.090589   -0.717577   -1.310031
     96          6           0      -27.362087   -0.457274   -1.931491
     97          6           0      -27.514667    0.942323   -1.876461
     98          6           0      -26.173632    1.467443   -1.417961
     99          6           0      -28.320530   -1.477922   -2.425827
    100          6           0      -28.735863    1.808062   -2.108508
    101          8           0      -28.787259    2.998560   -1.779155
    102          6           0      -29.935842    1.245444   -2.875388
    103          7           0      -23.548015    2.702856   -0.323833
    104          6           0      -24.678452    3.351338   -0.762055
    105          6           0      -24.465460    4.854937   -0.600204
    106          6           0      -23.034278    4.983392    0.117100
    107          6           0      -22.606930    3.542185    0.210021
    108          6           0      -24.655457    5.571610   -1.983644
    109          6           0      -22.990320    5.739739    1.435590
    110          6           0      -21.916847    6.872108    1.475196
    111          7           0      -21.711686    0.683198    0.632612
    112          6           0      -20.867007    1.814400    0.861821
    113          6           0      -19.603620    1.395577    1.354693
    114          6           0      -19.749434    0.000215    1.431710
    115          6           0      -21.019501   -0.359631    0.935238
    116          6           0      -18.403232    2.187516    1.762541
    117          6           0      -19.105119   -1.217902    1.805895
    118          8           0      -17.999847   -1.466710    2.226861
    119          6           0      -20.141237   -2.367262    1.653569
    120          6           0      -19.506287   -3.494174    0.922909
    121          8           0      -19.196633   -3.538303   -0.264357
    122          8           0      -19.379564   -4.498091    1.796113
    123          6           0      -18.855272   -5.748016    1.287032
    124          1           0      -26.526643   -2.756779   -1.088251
    125          1           0      -26.592849    3.488043   -1.617499
    126          1           0      -20.611295    3.895182    0.906778
    127          1           0      -21.980576   -4.467301    0.638354
    128          1           0      -24.963671   -4.315400    0.761822
    129          1           0      -22.989487   -5.070846   -1.390244
    130          1           0      -24.278060   -4.047873   -2.056113
    131          1           0      -24.725423   -5.528948   -1.149442
    132          1           0      -24.183338   -3.862769    2.728786
    133          1           0      -22.683688   -3.002200    2.869227
    134          1           0      -23.298410   -5.461004    4.056907
    135          1           0      -21.688509   -4.964507    3.821219
    136          1           0      -29.188859   -1.431459   -1.767190
    137          1           0      -27.905055   -2.482161   -2.354795
    138          1           0      -28.641514   -1.308531   -3.453199
    139          1           0      -30.415341    2.178808   -3.169471
    140          1           0      -30.575036    0.591683   -2.280810
    141          1           0      -29.734946    0.751401   -3.825811
    142          1           0      -25.183557    5.367282    0.039998
    143          1           0      -22.350356    5.478697   -0.572242
    144          1           0      -25.282015    6.440025   -1.779909
    145          1           0      -25.070011    4.930595   -2.761747
    146          1           0      -23.746358    6.092134   -2.287101
    147          1           0      -22.840774    5.107555    2.310287
    148          1           0      -23.927385    6.298197    1.447226
    149          1           0      -21.457615    7.002505    0.495160
    150          1           0      -21.051391    6.585508    2.072304
    151          1           0      -22.351961    7.819991    1.792558
    152          1           0      -18.734493    2.594994    2.718101
    153          1           0      -18.210421    2.895258    0.956598
    154          1           0      -17.538057    1.558566    1.967524
    155          1           0      -20.271454   -2.717975    2.678228
    156          1           0      -17.903546   -5.574961    0.783889
    157          1           0      -19.445823   -6.253594    0.522256
    158          1           0      -18.707960   -6.389254    2.156249
 ---------------------------------------------------------------------

 SCF Done:  E(RPBE1PBE) =  -4067.40036441     A.U. after   16 cycles

 Excitation energies and oscillator strengths:

 Excited State   1:      Singlet-A      1.8615 eV  666.06 nm  f=0.3673  <S**2>=0.000
     309 -> 315        0.15512
     312 -> 313        0.69392
     312 <- 313       -0.10802
 This state for optimization and/or second-order correction.
 Total Energy, E(TD-HF/TD-DFT) =  -4067.33195698
 Copying the excited state density for this state as the 1-particle RhoCI density.

 Excited State   2:      Singlet-A      1.8677 eV  663.84 nm  f=0.3625  <S**2>=0.000
     310 -> 316        0.18706
     311 -> 314        0.68778

 Excited State   3:      Singlet-A      1.9990 eV  620.23 nm  f=0.0000  <S**2>=0.000
     312 -> 314        0.70711

 Excited State   4:      Singlet-A      2.0376 eV  608.47 nm  f=0.0000  <S**2>=0.000
     311 -> 313        0.70711

 Excited State   5:      Singlet-A      2.2068 eV  561.82 nm  f=0.1031  <S**2>=0.000
     310 -> 314        0.65388
     311 -> 316       -0.25871

 The electronic state is 1-A.
 Alpha  occ. eigenvalues --  -46.93173 -46.91145 -19.25953 -19.24976 -19.19886
 Alpha  occ. eigenvalues --  -19.19570 -19.19107 -19.18668 -19.18105 -19.17872
 Alpha  occ. eigenvalues --  -14.42033 -14.41754 -14.41403 -14.41114 -14.39685
 Alpha  occ. eigenvalues --  -14.39504 -14.39269 -14.38238 -10.35652 -10.35393
 Alpha  occ. eigenvalues --  -10.33118 -10.31858 -10.30657 -10.30496 -10.29418
 Alpha  occ. eigenvalues --  -10.29404 -10.29141 -10.28990 -10.28775 -10.28616
 Alpha  occ. eigenvalues --  -10.28419 -10.28372 -10.28200 -10.28199 -10.28140
 Alpha  occ. eigenvalues --  -10.28063 -10.28052 -10.28043 -10.27926 -10.27003
 Alpha  occ. eigenvalues --  -10.26728 -10.26590 -10.26546 -10.26539 -10.26340
 Alpha  occ. eigenvalues --  -10.26269 -10.26139 -10.26098 -10.26061 -10.25968
 Alpha  occ. eigenvalues --  -10.25947 -10.25478 -10.25446 -10.25380 -10.25371
 Alpha  occ. eigenvalues --  -10.25346 -10.25281 -10.25277 -10.25111 -10.25106
 Alpha  occ. eigenvalues --  -10.25041 -10.25008 -10.24985 -10.24966 -10.24909
 Alpha  occ. eigenvalues --  -10.24857 -10.24808 -10.24531 -10.24408 -10.24390
 Alpha  occ. eigenvalues --  -10.24192 -10.23918 -10.23891 -10.23732 -10.23708
 Alpha  occ. eigenvalues --  -10.23647 -10.23441 -10.23399 -10.23391 -10.23382
 Alpha  occ. eigenvalues --  -10.23359 -10.23313 -10.23165 -10.22922 -10.21987
 Alpha  occ. eigenvalues --  -10.21616  -3.15097  -3.13430  -1.87951  -1.87505
 Alpha  occ. eigenvalues --   -1.87276  -1.86283  -1.85785  -1.85685  -1.11956
 Alpha  occ. eigenvalues --   -1.09136  -1.04826  -1.04333  -1.04289  -1.02839
 Alpha  occ. eigenvalues --   -1.01963  -1.01173  -1.00714  -0.99433  -0.98726
 Alpha  occ. eigenvalues --   -0.98160  -0.97568  -0.97497  -0.96989  -0.96573
 Alpha  occ. eigenvalues --   -0.87147  -0.86843  -0.84038  -0.83819  -0.82673
 Alpha  occ. eigenvalues --   -0.82663  -0.82357  -0.82217  -0.82018  -0.81526
 Alpha  occ. eigenvalues --   -0.81373  -0.81085  -0.80924  -0.79908  -0.78531
 Alpha  occ. eigenvalues --   -0.78266  -0.77828  -0.77672  -0.76816  -0.76538
 Alpha  occ. eigenvalues --   -0.76190  -0.75965  -0.75527  -0.75009  -0.74661
 Alpha  occ. eigenvalues --   -0.74370  -0.73022  -0.72414  -0.71861  -0.71807
 Alpha  occ. eigenvalues --   -0.71104  -0.70758  -0.70074  -0.69925  -0.69294
 Alpha  occ. eigenvalues --   -0.69292  -0.67587  -0.67050  -0.65967  -0.65800
 Alpha  occ. eigenvalues --   -0.64765  -0.63516  -0.63455  -0.63229  -0.62241
 Alpha  occ. eigenvalues --   -0.62048  -0.61772  -0.61198  -0.59790  -0.59769
 Alpha  occ. eigenvalues --   -0.59702  -0.59546  -0.59404  -0.59095  -0.59077
 Alpha  occ. eigenvalues --   -0.58759  -0.57084  -0.56067  -0.55190  -0.54572
 Alpha  occ. eigenvalues --   -0.54173  -0.54097  -0.53694  -0.53239  -0.53204
 Alpha  occ. eigenvalues --   -0.52687  -0.52430  -0.52337  -0.52104  -0.51874
 Alpha  occ. eigenvalues --   -0.51154  -0.50809  -0.50537  -0.50198  -0.49850
 Alpha  occ. eigenvalues --   -0.49844  -0.49412  -0.49015  -0.48433  -0.48143
 Alpha  occ. eigenvalues --   -0.48025  -0.47622  -0.47532  -0.47427  -0.47285
 Alpha  occ. eigenvalues --   -0.47196  -0.47179  -0.47066  -0.46721  -0.46573
 Alpha  occ. eigenvalues --   -0.46393  -0.46086  -0.45950  -0.45799  -0.45497
 Alpha  occ. eigenvalues --   -0.45483  -0.45250  -0.45106  -0.44866  -0.44806
 Alpha  occ. eigenvalues --   -0.44550  -0.44437  -0.44232  -0.44084  -0.43817
 Alpha  occ. eigenvalues --   -0.43807  -0.43740  -0.43499  -0.43323  -0.43282
 Alpha  occ. eigenvalues --   -0.43190  -0.43039  -0.42849  -0.42631  -0.42568
 Alpha  occ. eigenvalues --   -0.42469  -0.42336  -0.42174  -0.42162  -0.41988
 Alpha  occ. eigenvalues --   -0.41876  -0.41514  -0.41410  -0.41321  -0.41302
 Alpha  occ. eigenvalues --   -0.41206  -0.41037  -0.40869  -0.40783  -0.40581
 Alpha  occ. eigenvalues --   -0.40259  -0.40044  -0.39880  -0.39771  -0.39509
 Alpha  occ. eigenvalues --   -0.39450  -0.39285  -0.39275  -0.39091  -0.39051
 Alpha  occ. eigenvalues --   -0.38631  -0.38534  -0.38451  -0.38183  -0.38038
 Alpha  occ. eigenvalues --   -0.37966  -0.37884  -0.37619  -0.37542  -0.37418
 Alpha  occ. eigenvalues --   -0.37366  -0.37242  -0.37181  -0.36769  -0.36733
 Alpha  occ. eigenvalues --   -0.36659  -0.36486  -0.36479  -0.36168  -0.36041
 Alpha  occ. eigenvalues --   -0.35975  -0.35940  -0.35644  -0.35478  -0.35360
 Alpha  occ. eigenvalues --   -0.35004  -0.34991  -0.34643  -0.34639  -0.34037
 Alpha  occ. eigenvalues --   -0.33701  -0.33276  -0.32636  -0.32398  -0.31936
 Alpha  occ. eigenvalues --   -0.31910  -0.31681  -0.31479  -0.31472  -0.31324
 Alpha  occ. eigenvalues --   -0.31048  -0.30544  -0.29458  -0.29109  -0.29007
 Alpha  occ. eigenvalues --   -0.28647  -0.28431  -0.28148  -0.27184  -0.26833
 Alpha  occ. eigenvalues --   -0.26449  -0.26370  -0.25730  -0.25599  -0.25479
 Alpha  occ. eigenvalues --   -0.25285  -0.25159  -0.24597  -0.21000  -0.20687
 Alpha  occ. eigenvalues --   -0.18816  -0.18665
 Alpha virt. eigenvalues --   -0.11047  -0.11037  -0.05306  -0.05242  -0.04011
 Alpha virt. eigenvalues --   -0.03522  -0.02048  -0.01604  -0.00148   0.00392
 Alpha virt. eigenvalues --    0.00564   0.01459   0.01502   0.01773   0.01997

 Mulliken charges:
               1
     1  Mg  12.000008
     2  C    5.999990
     3  C    6.000002
     4  C    5.999979
     5  C    5.999980
     6  N    7.000030
     7  C    6.000047
     8  C    5.999997
     9  C    6.000031
    10  C    5.999917
    11  C    5.999998
    12  C    5.999992
    13  C    5.999993
    14  H    1.000069
    15  N    7.000015
    16  C    5.999938
    17  C    5.999945
    18  C    5.999981
    19  C    5.999926
    20  C    6.000010
    21  C    5.999957
    22  O    7.999919
    23  C    6.000011
    24  N    6.999961
    25  C    5.999956
    26  C    6.000002
    27  C    5.999988
    28  C    6.000091
    29  C    6.000016
    30  C    5.999987
    31  C    6.000000
    32  N    7.000020
    33  C    6.000104
    34  C    6.000078
    35  C    5.999987
    36  C    6.000068
    37  C    6.000006
    38  C    6.000032
    39  O    8.000076
    40  C    5.999985
    41  C    6.000018
    42  O    8.000065
    43  O    7.999977
    44  C    5.999981
    45  H    1.000021
    46  H    0.999971
    47  H    1.000007
    48  H    1.000024
    49  H    0.999964
    50  H    0.999983
    51  H    1.000011
    52  H    1.000043
    53  H    0.999997
    54  H    0.999957
    55  H    0.999984
    56  H    0.999977
    57  H    0.999945
    58  H    0.999983
    59  H    0.999930
    60  H    0.999948
    61  H    1.000011
    62  H    0.999948
    63  H    0.999961
    64  H    1.000030
    65  H    1.000045
    66  H    0.999968
    67  H    0.999997
    68  H    1.000007
    69  H    0.999991
    70  H    1.000024
    71  H    0.999969
    72  H    0.999973
    73  H    1.000016
    74  H    1.000039
    75  H    1.000079
    76  H    0.999988
    77  H    1.000039
    78  H    1.000046
    79  H    0.999990
    80  Mg  11.996946
    81  C    6.025540
    82  C    6.003291
    83  C    5.975079
    84  C    5.997639
    85  N    7.017977
    86  C    5.966968
    87  C    6.003598
    88  C    5.997375
    89  C    6.020284
    90  C    5.996569
    91  C    6.000622
    92  C    6.003129
    93  H    0.994039
    94  N    6.993323
    95  C    6.029631
    96  C    6.024664
    97  C    6.010189
    98  C    6.038031
    99  C    5.995722
   100  C    6.012593
   101  O    8.028985
   102  C    5.993886
   103  N    6.992713
   104  C    6.031022
   105  C    5.989313
   106  C    6.011692
   107  C    5.972328
   108  C    5.996638
   109  C    6.006963
   110  C    6.000324
   111  N    6.999405
   112  C    5.966389
   113  C    5.976153
   114  C    5.996689
   115  C    5.970461
   116  C    5.997739
   117  C    5.982496
   118  O    7.969059
   119  C    5.995600
   120  C    5.996849
   121  O    7.994587
   122  O    7.998956
   123  C    6.001786
   124  H    1.012447
   125  H    1.002086
   126  H    0.986127
   127  H    1.003683
   128  H    1.002306
   129  H    1.013759
   130  H    0.995541
   131  H    1.003510
   132  H    0.989483
   133  H    1.006879
   134  H    0.996833
   135  H    1.004271
   136  H    1.018239
   137  H    1.015374
   138  H    1.017751
   139  H    1.012999
   140  H    1.008242
   141  H    1.007719
   142  H    1.000748
   143  H    0.996886
   144  H    1.001871
   145  H    0.993436
   146  H    1.008694
   147  H    1.000497
   148  H    0.987806
   149  H    0.997923
   150  H    1.003172
   151  H    0.993902
   152  H    0.985104
   153  H    0.986233
   154  H    0.988091
   155  H    0.995731
   156  H    0.999364
   157  H    0.993417
   158  H    0.996631
 Sum of Mulliken charges = 624.00000

 Dipole moment (field-independent basis, Debye):
    X=             -9.2792    Y=             -1.3733    Z=             -4.0085  Tot=             10.2008
 Quadrupole moment (field-independent basis, Debye-Ang):
   XX=            437.5724   YY=             -4.4359   ZZ=              1.8451
   XY=             27.9492   XZ=             96.3556   YZ=             -1.2779

 Normal termination of Gaussian 16 at Thu Oct 14 12:22:31 2021.
