 Gaussian 16, Revision A.03,
 Gaussian 16:  ES64L-G16RevA.03 25-Dec-2016

 --------------------------------------------------------
 #p PBE1PBE/Def2SVP td=(nstates=5) density=(transition=1)
 --------------------------------------------------------

 --------------------------------
 TDDFT excited states in gaussian
 --------------------------------
 Symbolic Z-matrix:
 Charge =  0 Multiplicity = 1

                         Standard orientation:
 ---------------------------------------------------------------------
 Center     Atomic      Atomic             Coordinates (Angstroms)
 Number     Number       Type             X           Y           Z
 ---------------------------------------------------------------------
      1         12           0       18.989049   -0.283327    0.082888
      2          6           0       15.371144   -0.821122   -0.212340
      3          6           0       18.767717    0.968350   -3.136428
      4          6           0       21.784566    1.146311    0.640644
      5          6           0       18.578513   -1.261200    3.516107
      6          7           0       17.125942    0.156665   -1.463079
      7          6           0       15.785769   -0.150194   -1.373439
      8          6           0       15.037325    0.412500   -2.636759
      9          6           0       16.157958    0.711753   -3.647619
     10          6           0       17.420699    0.610042   -2.710063
     11          6           0       16.339365   -0.258813   -4.887772
     12          6           0       14.097023    1.626433   -2.323572
     13          6           0       12.775282    1.661106   -3.060192
     14          1           0       12.674510    2.635407   -4.275570
     15          7           0       20.174995    0.777005   -1.094624
     16          6           0       19.996268    1.111899   -2.409321
     17          6           0       21.174357    1.878496   -2.899453
     18          6           0       22.041093    1.946678   -1.777677
     19          6           0       21.325381    1.313899   -0.672558
     20          6           0       21.353629    2.520220   -4.285009
     21          6           0       23.340931    2.741654   -1.624161
     22          8           0       23.765096    3.321661   -2.620045
     23          6           0       24.098760    2.829185   -0.438740
     24          7           0       19.910583    0.134702    1.947007
     25          6           0       21.224057    0.532258    1.794540
     26          6           0       21.931468    0.430230    3.201121
     27          6           0       20.781888   -0.048925    4.158361
     28          6           0       19.726815   -0.511583    3.125079
     29          6           0       23.195696   -0.470761    3.255566
     30          6           0       20.208771    0.962646    5.231015
     31          6           0       21.010073    1.173130    6.527498
     32          7           0       17.384012   -0.966963    1.449057
     33          6           0       17.426328   -1.434393    2.747401
     34          6           0       16.170015   -2.018594    3.150138
     35          6           0       15.325532   -1.811124    1.995934
     36          6           0       16.049496   -1.113964    0.966624
     37          6           0       15.902331   -2.583597    4.511054
     38          6           0       14.018571   -1.965533    1.535155
     39          8           0       12.995857   -2.303327    2.115768
     40          6           0       13.933860   -1.234497    0.163979
     41          6           0       13.422527   -2.284898   -0.794129
     42          8           0       12.483652   -2.095990   -1.571572
     43          8           0       14.215056   -3.500299   -0.869722
     44          6           0       13.891142   -4.305107   -2.046534
     45          1           0       18.742327    1.300848   -4.175788
     46          1           0       22.801459    1.421859    0.927781
     47          1           0       18.635065   -1.599858    4.552637
     48          1           0       14.509159   -0.411288   -3.118995
     49          1           0       16.134446    1.748366   -3.983726
     50          1           0       15.961264    0.309518   -5.737298
     51          1           0       15.709262   -1.142566   -4.791798
     52          1           0       17.348304   -0.640537   -5.043730
     53          1           0       14.492912    2.597393   -2.622344
     54          1           0       13.835660    1.639616   -1.265234
     55          1           0       12.000710    1.829471   -2.311978
     56          1           0       12.603541    0.665672   -3.470963
     57          1           0       22.381546    2.386473   -4.623102
     58          1           0       21.060512    3.558502   -4.130026
     59          1           0       20.732791    2.023476   -5.029360
     60          1           0       24.506515    1.840382   -0.226318
     61          1           0       23.572341    3.263824    0.411066
     62          1           0       24.823783    3.594405   -0.718121
     63          1           0       22.273208    1.388721    3.590334
     64          1           0       21.056270   -0.965500    4.680012
     65          1           0       22.980492   -1.215532    4.021919
     66          1           0       24.040838    0.145727    3.560209
     67          1           0       23.274849   -0.857163    2.238694
     68          1           0       19.234754    0.539221    5.478335
     69          1           0       20.148378    1.971527    4.822301
     70          1           0       21.807883    0.442717    6.389941
     71          1           0       20.453941    0.820734    7.397369
     72          1           0       21.419271    2.167739    6.703071
     73          1           0       16.114972   -1.771302    5.204840
     74          1           0       16.602295   -3.366513    4.802383
     75          1           0       14.846528   -2.792347    4.684107
     76          1           0       13.171166   -0.462670    0.265526
     77          1           0       14.861425   -4.799532   -2.106794
     78          1           0       13.518214   -3.697690   -2.871170
     79          1           0       13.179119   -5.059875   -1.712465
     80         12           0      -18.397013    0.577013    0.535535
     81          6           0      -15.660108   -1.127450   -0.807277
     82          6           0      -20.022006   -2.525805    0.697860
     83          6           0      -21.273649    2.105839    1.301459
     84          6           0      -17.066344    3.521376   -0.649094
     85          7           0      -17.866003   -1.662725    0.098474
     86          6           0      -16.693818   -2.006809   -0.498199
     87          6           0      -16.643559   -3.563531   -0.764469
     88          6           0      -18.184083   -3.954265   -0.497580
     89          6           0      -18.760608   -2.655094    0.089779
     90          6           0      -18.854811   -4.190199   -1.897387
     91          6           0      -15.703386   -4.195337    0.326835
     92          6           0      -15.590939   -5.743819    0.363858
     93          1           0      -15.613595   -6.662825    1.548877
     94          7           0      -20.272733   -0.137915    1.123724
     95          6           0      -20.774792   -1.448938    1.177059
     96          6           0      -22.108648   -1.380700    1.604954
     97          6           0      -22.430740   -0.078731    1.964089
     98          6           0      -21.302936    0.695212    1.472110
     99          6           0      -22.897166   -2.633090    1.806828
    100          6           0      -23.742997    0.523049    2.566606
    101          8           0      -23.903537    1.703405    2.858027
    102          6           0      -24.893766   -0.361633    3.053850
    103          7           0      -19.087063    2.509702    0.233085
    104          6           0      -20.257341    2.914719    0.774980
    105          6           0      -20.442152    4.444821    0.774105
    106          6           0      -19.156999    4.889017    0.021882
    107          6           0      -18.320302    3.624235   -0.049270
    108          6           0      -21.832317    4.931730    0.245919
    109          6           0      -18.388482    6.113686    0.589646
    110          6           0      -17.595167    5.884451    1.805577
    111          7           0      -16.681149    1.157236   -0.428897
    112          6           0      -16.275061    2.337615   -0.835581
    113          6           0      -14.913416    2.292553   -1.378283
    114          6           0      -14.656447    0.884378   -1.361014
    115          6           0      -15.753220    0.241299   -0.821404
    116          6           0      -13.928147    3.361206   -1.479777
    117          6           0      -13.634840   -0.098598   -1.676760
    118          8           0      -12.493064    0.042256   -2.052217
    119          6           0      -14.310375   -1.443937   -1.384634
    120          6           0      -14.314963   -2.356598   -2.615465
    121          8           0      -15.080216   -2.248355   -3.538080
    122          8           0      -13.273020   -3.248246   -2.524025
    123          6           0      -13.216319   -4.174479   -3.678348
    124          1           0      -20.468089   -3.507517    0.865175
    125          1           0      -22.110504    2.653622    1.740299
    126          1           0      -16.823270    4.575008   -0.797036
    127          1           0      -16.385517   -3.803221   -1.796318
    128          1           0      -18.327716   -4.826098    0.141900
    129          1           0      -19.525524   -3.409172   -2.254059
    130          1           0      -19.609710   -4.975472   -1.850727
    131          1           0      -18.145163   -4.390294   -2.699915
    132          1           0      -16.036620   -3.820756    1.294312
    133          1           0      -14.719303   -3.744772    0.194906
    134          1           0      -14.708801   -5.952511   -0.242147
    135          1           0      -16.499782   -6.017433   -0.170664
    136          1           0      -22.389670   -3.559848    1.537786
    137          1           0      -23.879162   -2.484554    1.355611
    138          1           0      -23.032500   -2.677029    2.887851
    139          1           0      -25.408233   -0.893815    2.253646
    140          1           0      -25.607397    0.139494    3.708035
    141          1           0      -24.451050   -1.084983    3.738846
    142          1           0      -20.378249    4.590498    1.852074
    143          1           0      -19.503087    5.090841   -0.991822
    144          1           0      -22.605942    4.190129    0.442228
    145          1           0      -21.772573    5.084378   -0.832004
    146          1           0      -22.171856    5.846606    0.731970
    147          1           0      -19.208116    6.800835    0.797346
    148          1           0      -17.802844    6.579329   -0.203246
    149          1           0      -16.623606    5.473024    1.532360
    150          1           0      -18.134248    5.254870    2.513207
    151          1           0      -17.345792    6.818095    2.310656
    152          1           0      -14.226937    4.084949   -0.721107
    153          1           0      -13.881021    3.972214   -2.381330
    154          1           0      -12.956393    2.902806   -1.299374
    155          1           0      -13.761433   -1.919082   -0.570948
    156          1           0      -12.169888   -4.389462   -3.894012
    157          1           0      -13.520970   -3.762078   -4.640461
    158          1           0      -13.694976   -5.123973   -3.440875
 ---------------------------------------------------------------------

 SCF Done:  E(RPBE1PBE) =  -4067.34119845     A.U. after   16 cycles

 Excitation energies and oscillator strengths:

 Excited State   1:      Singlet-A      1.8703 eV  662.92 nm  f=0.3654  <S**2>=0.000
     309 -> 315        0.19135
     311 -> 313        0.68604
 This state for optimization and/or second-order correction.
 Total Energy, E(TD-HF/TD-DFT) =  -4067.27246717
 Copying the excited state density for this state as the 1-particle RhoCI density.

 Excited State   2:      Singlet-A      1.8847 eV  657.86 nm  f=0.3583  <S**2>=0.000
     310 -> 316       -0.17964
     312 -> 314        0.69084
     312 <- 314       -0.10349

 Excited State   3:      Singlet-A      1.8872 eV  656.97 nm  f=0.0000  <S**2>=0.000
     312 -> 313        0.70710

 Excited State   4:      Singlet-A      2.1450 eV  578.02 nm  f=0.0000  <S**2>=0.000
     311 -> 314        0.70710

 Excited State   5:      Singlet-A      2.2322 eV  555.44 nm  f=0.0728  <S**2>=0.000
     308 -> 313        0.10215
     309 -> 313        0.63199
     311 -> 315       -0.29398

 The electronic state is 1-A.
 Alpha  occ. eigenvalues --  -46.94113 -46.92072 -19.26395 -19.24348 -19.20575
 Alpha  occ. eigenvalues --  -19.20301 -19.19476 -19.19055 -19.18910 -19.18154
 Alpha  occ. eigenvalues --  -14.42054 -14.41614 -14.41511 -14.40697 -14.40301
 Alpha  occ. eigenvalues --  -14.38885 -14.38789 -14.38726 -10.36743 -10.36429
 Alpha  occ. eigenvalues --  -10.33156 -10.31951 -10.31648 -10.30676 -10.29904
 Alpha  occ. eigenvalues --  -10.29532 -10.29439 -10.29050 -10.28996 -10.28845
 Alpha  occ. eigenvalues --  -10.28762 -10.28628 -10.28440 -10.28177 -10.27972
 Alpha  occ. eigenvalues --  -10.27787 -10.27761 -10.27446 -10.27221 -10.27124
 Alpha  occ. eigenvalues --  -10.27107 -10.27096 -10.26650 -10.26635 -10.26619
 Alpha  occ. eigenvalues --  -10.26399 -10.26362 -10.26175 -10.26140 -10.26097
 Alpha  occ. eigenvalues --  -10.25979 -10.25944 -10.25938 -10.25781 -10.25682
 Alpha  occ. eigenvalues --  -10.25566 -10.25542 -10.25432 -10.25344 -10.25208
 Alpha  occ. eigenvalues --  -10.25047 -10.25035 -10.25025 -10.24919 -10.24630
 Alpha  occ. eigenvalues --  -10.24613 -10.24505 -10.24502 -10.24405 -10.24377
 Alpha  occ. eigenvalues --  -10.24228 -10.24080 -10.23932 -10.23803 -10.23799
 Alpha  occ. eigenvalues --  -10.23727 -10.23491 -10.23482 -10.23455 -10.23284
 Alpha  occ. eigenvalues --  -10.23231 -10.23057 -10.23030 -10.22827 -10.22538
 Alpha  occ. eigenvalues --  -10.22099  -3.16106  -3.14212  -1.88887  -1.88531
 Alpha  occ. eigenvalues --   -1.88292  -1.87039  -1.86601  -1.86422  -1.11539
 Alpha  occ. eigenvalues --   -1.08639  -1.05085  -1.05055  -1.04965  -1.03769
 Alpha  occ. eigenvalues --   -1.03551  -1.01152  -0.99724  -0.99542  -0.98302
 Alpha  occ. eigenvalues --   -0.97983  -0.97932  -0.97871  -0.96969  -0.95816
 Alpha  occ. eigenvalues --   -0.88200  -0.87289  -0.83689  -0.83229  -0.83172
 Alpha  occ. eigenvalues --   -0.82752  -0.82747  -0.82385  -0.81678  -0.81501
 Alpha  occ. eigenvalues --   -0.81246  -0.81100  -0.80582  -0.80325  -0.79212
 Alpha  occ. eigenvalues --   -0.78253  -0.78100  -0.77943  -0.77903  -0.76809
 Alpha  occ. eigenvalues --   -0.76625  -0.75668  -0.75507  -0.75111  -0.74644
 Alpha  occ. eigenvalues --   -0.74210  -0.72690  -0.72493  -0.71876  -0.71647
 Alpha  occ. eigenvalues --   -0.71291  -0.70892  -0.70409  -0.70110  -0.69588
 Alpha  occ. eigenvalues --   -0.69123  -0.67317  -0.66937  -0.66360  -0.66157
 Alpha  occ. eigenvalues --   -0.64343  -0.63570  -0.63482  -0.63022  -0.62740
 Alpha  occ. eigenvalues --   -0.62131  -0.61356  -0.61306  -0.59987  -0.59812
 Alpha  occ. eigenvalues --   -0.59790  -0.59451  -0.59161  -0.58904  -0.58583
 Alpha  occ. eigenvalues --   -0.58543  -0.57050  -0.56375  -0.54862  -0.54491
 Alpha  occ. eigenvalues --   -0.54405  -0.53989  -0.53870  -0.53751  -0.53492
 Alpha  occ. eigenvalues --   -0.52995  -0.52842  -0.51887  -0.51828  -0.51526
 Alpha  occ. eigenvalues --   -0.51190  -0.51013  -0.50251  -0.50138  -0.50081
 Alpha  occ. eigenvalues --   -0.49740  -0.49330  -0.49159  -0.48714  -0.48500
 Alpha  occ. eigenvalues --   -0.48404  -0.48276  -0.48093  -0.47826  -0.47758
 Alpha  occ. eigenvalues --   -0.47525  -0.47448  -0.47250  -0.47094  -0.46782
 Alpha  occ. eigenvalues --   -0.46688  -0.46572  -0.46382  -0.45888  -0.45659
 Alpha  occ. eigenvalues --   -0.45572  -0.45560  -0.45320  -0.45221  -0.44674
 Alpha  occ. eigenvalues --   -0.44490  -0.44483  -0.44471  -0.44124  -0.44039
 Alpha  occ. eigenvalues --   -0.44000  -0.43847  -0.43768  -0.43599  -0.43485
 Alpha  occ. eigenvalues --   -0.43391  -0.43282  -0.43015  -0.42905  -0.42823
 Alpha  occ. eigenvalues --   -0.42610  -0.42491  -0.42381  -0.42112  -0.41846
 Alpha  occ. eigenvalues --   -0.41732  -0.41440  -0.41284  -0.41112  -0.40885
 Alpha  occ. eigenvalues --   -0.40786  -0.40680  -0.40581  -0.40512  -0.40136
 Alpha  occ. eigenvalues --   -0.40060  -0.39795  -0.39727  -0.39687  -0.39472
 Alpha  occ. eigenvalues --   -0.39406  -0.39247  -0.39141  -0.39123  -0.39004
 Alpha  occ. eigenvalues --   -0.38916  -0.38794  -0.38706  -0.38598  -0.38458
 Alpha  occ. eigenvalues --   -0.38391  -0.38125  -0.38024  -0.37926  -0.37677
 Alpha  occ. eigenvalues --   -0.37390  -0.37338  -0.37333  -0.37203  -0.37120
 Alpha  occ. eigenvalues --   -0.37111  -0.36823  -0.36737  -0.36712  -0.36592
 Alpha  occ. eigenvalues --   -0.36340  -0.36144  -0.35547  -0.35164  -0.35087
 Alpha  occ. eigenvalues --   -0.35032  -0.34822  -0.34509  -0.34234  -0.33808
 Alpha  occ. eigenvalues --   -0.33781  -0.33348  -0.32860  -0.32766  -0.32634
 Alpha  occ. eigenvalues --   -0.32535  -0.32199  -0.32136  -0.31754  -0.31361
 Alpha  occ. eigenvalues --   -0.31320  -0.30229  -0.29752  -0.29645  -0.29452
 Alpha  occ. eigenvalues --   -0.29203  -0.28679  -0.28385  -0.27087  -0.26896
 Alpha  occ. eigenvalues --   -0.26633  -0.26056  -0.25840  -0.25690  -0.25487
 Alpha  occ. eigenvalues --   -0.25141  -0.24933  -0.24411  -0.21360  -0.20670
 Alpha  occ. eigenvalues --   -0.19087  -0.18607
 Alpha virt. eigenvalues --   -0.11309  -0.10844  -0.06088  -0.04798  -0.04352
 Alpha virt. eigenvalues --   -0.03733  -0.02396  -0.02130  -0.02057  -0.00518
 Alpha virt. eigenvalues --    0.00118   0.00167   0.00607   0.01396   0.01412

 Mulliken charges:
               1
     1  Mg  12.003231
     2  C    5.985044
     3  C    5.999308
     4  C    6.028422
     5  C    5.988932
     6  N    6.990241
     7  C    6.027172
     8  C    5.994684
     9  C    6.004031
    10  C    5.973832
    11  C    6.006881
    12  C    5.998445
    13  C    5.998706
    14  H    1.008094
    15  N    7.007443
    16  C    5.966536
    17  C    5.975155
    18  C    5.997078
    19  C    5.962941
    20  C    6.000907
    21  C    5.987103
    22  O    7.983292
    23  C    6.003849
    24  N    7.000915
    25  C    5.962304
    26  C    6.010473
    27  C    5.994663
    28  C    6.032569
    29  C    6.000669
    30  C    5.996925
    31  C    6.001234
    32  N    6.996646
    33  C    6.027496
    34  C    6.036528
    35  C    5.993171
    36  C    6.037792
    37  C    5.999373
    38  C    6.016646
    39  O    8.027794
    40  C    5.998202
    41  C    6.003703
    42  O    8.009135
    43  O    7.996490
    44  C    5.998629
    45  H    0.988429
    46  H    0.993792
    47  H    1.008283
    48  H    0.998947
    49  H    0.999861
    50  H    0.994213
    51  H    0.986896
    52  H    1.002814
    53  H    1.008167
    54  H    0.993127
    55  H    0.997396
    56  H    0.999144
    57  H    0.986225
    58  H    0.983602
    59  H    0.985329
    60  H    0.991922
    61  H    0.989967
    62  H    0.989448
    63  H    0.996456
    64  H    0.997436
    65  H    0.989924
    66  H    0.999570
    67  H    1.003001
    68  H    0.993375
    69  H    1.008887
    70  H    1.004362
    71  H    0.998954
    72  H    1.005308
    73  H    1.019431
    74  H    1.019781
    75  H    1.013391
    76  H    1.007348
    77  H    1.004170
    78  H    1.006356
    79  H    1.002004
    80  Mg  11.999924
    81  C    6.000105
    82  C    5.999429
    83  C    5.999827
    84  C    6.000855
    85  N    6.999924
    86  C    5.999292
    87  C    6.000335
    88  C    5.999592
    89  C    6.001233
    90  C    5.999907
    91  C    6.000154
    92  C    6.000001
    93  H    0.999663
    94  N    6.999879
    95  C    6.001407
    96  C    6.000416
    97  C    6.000862
    98  C    6.000702
    99  C    5.999925
   100  C    6.000431
   101  O    8.001003
   102  C    5.999843
   103  N    7.000175
   104  C    6.001006
   105  C    5.999785
   106  C    6.000347
   107  C    5.998666
   108  C    5.999906
   109  C    6.000084
   110  C    6.000158
   111  N    6.999959
   112  C    5.998769
   113  C    5.998686
   114  C    6.000066
   115  C    5.999060
   116  C    6.000188
   117  C    5.999312
   118  O    7.999016
   119  C    6.000083
   120  C    5.999874
   121  O    7.999833
   122  O    7.999912
   123  C    6.000068
   124  H    1.000303
   125  H    1.000303
   126  H    0.999771
   127  H    0.999969
   128  H    1.000030
   129  H    1.000017
   130  H    1.000032
   131  H    1.000454
   132  H    0.999737
   133  H    1.000183
   134  H    1.000023
   135  H    0.999870
   136  H    1.000614
   137  H    1.000620
   138  H    1.000576
   139  H    1.000353
   140  H    1.000529
   141  H    1.000207
   142  H    0.999942
   143  H    0.999876
   144  H    0.999754
   145  H    1.000321
   146  H    1.000261
   147  H    0.999766
   148  H    1.000151
   149  H    1.000247
   150  H    0.999652
   151  H    0.999871
   152  H    0.999263
   153  H    0.999161
   154  H    0.999382
   155  H    0.999569
   156  H    0.999790
   157  H    0.999978
   158  H    0.999766
 Sum of Mulliken charges = 624.00000

 Dipole moment (field-independent basis, Debye):
    X=             -6.8492    Y=             -4.3218    Z=              6.1194  Tot=             10.1507
 Quadrupole moment (field-independent basis, Debye-Ang):
   XX=           -227.5558   YY=              0.6607   ZZ=              2.3728
   XY=            -77.7031   XZ=            108.5612   YZ=             -0.4600

 Normal termination of Gaussian 16 at Fri Oct 15 06:51:56 2021.
