 Gaussian 16, Revision A.03,
 Gaussian 16:  ES64L-G16RevA.03 25-Dec-2016

 --------------------------------------------------------
 #p PBE1PBE/Def2SVP td=(nstates=5) density=(transition=1)
 --------------------------------------------------------

 --------------------------------
 TDDFT excited states in gaussian
 --------------------------------
 Symbolic Z-matrix:
 Charge =  0 Multiplicity = 1

                         Standard orientation:
 ---------------------------------------------------------------------
 Center     Atomic      Atomic             Coordinates (Angstroms)
 Number     Number       Type             X           Y           Z
 ---------------------------------------------------------------------
      1         12           0      -19.045436    0.409823    0.379678
      2          6           0      -16.249377   -1.028318   -0.992761
      3          6           0      -20.747501   -2.513273   -0.182382
      4          6           0      -21.912033    1.883359    1.660093
      5          6           0      -17.411119    3.464439    0.516395
      6          7           0      -18.583554   -1.580161   -0.548544
      7          6           0      -17.322109   -1.920421   -0.946544
      8          6           0      -17.271646   -3.299553   -1.397344
      9          6           0      -18.711268   -3.788231   -1.370846
     10          6           0      -19.448529   -2.555733   -0.685892
     11          6           0      -19.387800   -4.215806   -2.718964
     12          6           0      -16.294886   -4.159287   -0.524803
     13          6           0      -15.529622   -5.321542   -1.246955
     14          1           0      -16.217393   -5.967011   -2.465961
     15          7           0      -21.022934   -0.297803    0.789234
     16          6           0      -21.499239   -1.561237    0.483806
     17          6           0      -22.913392   -1.651703    0.900303
     18          6           0      -23.275672   -0.350446    1.458226
     19          6           0      -22.058561    0.472077    1.345894
     20          6           0      -23.791911   -2.878538    0.717553
     21          6           0      -24.570988    0.033846    2.134455
     22          8           0      -24.680661    1.170365    2.627138
     23          6           0      -25.765054   -0.840004    2.232699
     24          7           0      -19.625720    2.407853    0.932540
     25          6           0      -20.812608    2.710429    1.466298
     26          6           0      -20.831810    4.165333    1.963900
     27          6           0      -19.287636    4.656855    1.842814
     28          6           0      -18.714274    3.389107    1.116975
     29          6           0      -21.857202    5.026308    1.163734
     30          6           0      -18.555031    4.898253    3.191082
     31          6           0      -18.199856    6.359628    3.503525
     32          7           0      -17.219522    1.151172   -0.186638
     33          6           0      -16.677953    2.434837   -0.086956
     34          6           0      -15.294821    2.446475   -0.612837
     35          6           0      -15.133523    1.090889   -0.984579
     36          6           0      -16.320564    0.357875   -0.716874
     37          6           0      -14.355078    3.548476   -0.657367
     38          6           0      -14.135400    0.114566   -1.467995
     39          8           0      -12.969073    0.230496   -1.736294
     40          6           0      -14.846249   -1.284287   -1.527852
     41          6           0      -14.681953   -1.831582   -2.884040
     42          8           0      -15.304548   -1.338441   -3.838355
     43          8           0      -13.930735   -2.964430   -2.958158
     44          6           0      -13.880311   -3.690724   -4.223113
     45          1           0      -21.260237   -3.458196   -0.373931
     46          1           0      -22.834505    2.339366    2.026212
     47          1           0      -16.898164    4.411165    0.697613
     48          1           0      -16.912697   -3.300980   -2.427122
     49          1           0      -18.852718   -4.565479   -0.618958
     50          1           0      -18.846343   -4.199973   -3.665395
     51          1           0      -20.277934   -3.601960   -2.854446
     52          1           0      -19.833078   -5.210432   -2.684938
     53          1           0      -16.817806   -4.520726    0.360726
     54          1           0      -15.609560   -3.490369   -0.004587
     55          1           0      -15.301698   -6.116102   -0.535882
     56          1           0      -14.602033   -4.992572   -1.714485
     57          1           0      -23.245939   -3.751719    0.362050
     58          1           0      -24.564240   -2.700035   -0.031138
     59          1           0      -24.134939   -3.239833    1.686871
     60          1           0      -26.485525   -0.304724    2.850426
     61          1           0      -25.554205   -1.819607    2.663669
     62          1           0      -26.120643   -1.081812    1.230962
     63          1           0      -21.029215    4.128423    3.035318
     64          1           0      -19.173745    5.517242    1.183464
     65          1           0      -22.524676    5.608857    1.798866
     66          1           0      -22.491622    4.394758    0.541239
     67          1           0      -21.233259    5.636181    0.509964
     68          1           0      -17.621248    4.344164    3.279057
     69          1           0      -19.137323    4.538389    4.039619
     70          1           0      -18.915438    7.019410    3.012746
     71          1           0      -17.211342    6.559541    3.091233
     72          1           0      -18.128593    6.436459    4.587694
     73          1           0      -13.322270    3.218695   -0.767652
     74          1           0      -14.406407    4.194635    0.218738
     75          1           0      -14.500077    4.065756   -1.605897
     76          1           0      -14.286681   -1.830417   -0.767668
     77          1           0      -13.386924   -3.150188   -5.031343
     78          1           0      -14.869647   -4.048966   -4.507521
     79          1           0      -13.267651   -4.584139   -4.103472
     80         12           0       19.469593   -0.221849   -0.066944
     81          6           0       15.953056   -0.918237    0.085428
     82          6           0       18.554959    2.488250   -2.206730
     83          6           0       22.448136    1.259068    0.406371
     84          6           0       19.940010   -2.395090    2.531525
     85          7           0       17.489920    0.651779   -0.889225
     86          6           0       16.215028    0.196551   -0.719231
     87          6           0       15.173840    1.067910   -1.504848
     88          6           0       16.137634    1.860585   -2.511606
     89          6           0       17.461959    1.719428   -1.778230
     90          6           0       16.233847    1.263585   -3.896883
     91          6           0       14.249554    1.867131   -0.601205
     92          6           0       12.741081    1.890693   -0.960339
     93          1           0       12.095406    3.144573   -1.714492
     94          7           0       20.460646    1.618498   -0.889675
     95          6           0       19.907371    2.518231   -1.824509
     96          6           0       20.926378    3.513758   -2.178989
     97          6           0       22.106660    3.119388   -1.433898
     98          6           0       21.702171    2.046756   -0.550737
     99          6           0       20.759422    4.687579   -3.068759
    100          6           0       23.474764    3.734609   -1.589679
    101          8           0       23.650810    4.511324   -2.501245
    102          6           0       24.652242    3.437792   -0.689958
    103          7           0       20.852422   -0.478310    1.334594
    104          6           0       22.079976    0.164602    1.202071
    105          6           0       22.988628   -0.351314    2.320318
    106          6           0       22.259793   -1.645345    2.837254
    107          6           0       20.939228   -1.525423    2.154464
    108          6           0       24.519821   -0.533633    2.010476
    109          6           0       22.177580   -1.876695    4.377379
    110          6           0       22.696039   -3.168229    4.920619
    111          7           0       18.291572   -1.504888    1.013205
    112          6           0       18.625602   -2.405752    2.009330
    113          6           0       17.496651   -3.312047    2.295259
    114          6           0       16.407867   -2.681619    1.576751
    115          6           0       16.962119   -1.617562    0.858670
    116          6           0       17.424382   -4.527812    3.181173
    117          6           0       14.948792   -2.809125    1.288907
    118          8           0       14.126586   -3.551915    1.744420
    119          6           0       14.623185   -1.602355    0.414799
    120          6           0       13.961102   -2.106425   -0.832713
    121          8           0       14.605382   -2.785441   -1.603086
    122          8           0       12.627320   -1.652694   -1.061181
    123          6           0       12.031704   -1.976069   -2.393080
    124          1           0       18.324353    3.296064   -2.904607
    125          1           0       23.451501    1.601190    0.665414
    126          1           0       20.181811   -3.205871    3.221472
    127          1           0       14.573401    0.465412   -2.185836
    128          1           0       15.903962    2.924995   -2.531339
    129          1           0       16.935235    0.430221   -3.863242
    130          1           0       16.532951    2.066431   -4.570591
    131          1           0       15.342412    0.820555   -4.342139
    132          1           0       14.585926    2.901247   -0.669073
    133          1           0       14.471130    1.589973    0.429386
    134          1           0       12.258334    1.774787    0.010330
    135          1           0       12.427727    1.040597   -1.566472
    136          1           0       21.156314    4.390818   -4.039117
    137          1           0       21.423399    5.485218   -2.735440
    138          1           0       19.775139    5.135469   -3.210608
    139          1           0       25.538029    4.048313   -0.864204
    140          1           0       24.917556    2.400285   -0.893523
    141          1           0       24.515211    3.450317    0.390688
    142          1           0       22.981069    0.493426    3.009737
    143          1           0       22.688558   -2.502932    2.319649
    144          1           0       24.689000   -0.602220    0.935536
    145          1           0       24.918593   -1.392141    2.550583
    146          1           0       25.085848    0.308781    2.407433
    147          1           0       21.139956   -1.766873    4.692449
    148          1           0       22.660443   -1.023160    4.853032
    149          1           0       21.853933   -3.792883    5.217817
    150          1           0       23.296431   -2.975397    5.809586
    151          1           0       23.307596   -3.783984    4.261471
    152          1           0       16.590127   -5.169359    2.898124
    153          1           0       17.315083   -4.158507    4.201249
    154          1           0       18.399582   -5.014472    3.157103
    155          1           0       14.044411   -0.907043    1.022986
    156          1           0       11.693460   -3.012397   -2.390209
    157          1           0       12.780797   -1.905859   -3.181484
    158          1           0       11.217109   -1.291653   -2.629173
 ---------------------------------------------------------------------

 SCF Done:  E(RPBE1PBE) =  -4067.41472783     A.U. after   16 cycles

 Excitation energies and oscillator strengths:

 Excited State   1:      Singlet-A      1.8362 eV  675.21 nm  f=0.3844  <S**2>=0.000
     309 -> 316        0.16421
     311 -> 313        0.69670
     311 <- 313       -0.11952
 This state for optimization and/or second-order correction.
 Total Energy, E(TD-HF/TD-DFT) =  -4067.34724714
 Copying the excited state density for this state as the 1-particle RhoCI density.

 Excited State   2:      Singlet-A      1.8396 eV  673.99 nm  f=0.0000  <S**2>=0.000
     312 -> 313        0.70711

 Excited State   3:      Singlet-A      1.8897 eV  656.10 nm  f=0.3732  <S**2>=0.000
     310 -> 315       -0.18008
     312 -> 314        0.68960
     312 <- 314       -0.10437

 Excited State   4:      Singlet-A      2.0796 eV  596.20 nm  f=0.0000  <S**2>=0.000
     311 -> 314        0.70710

 Excited State   5:      Singlet-A      2.2360 eV  554.48 nm  f=0.1185  <S**2>=0.000
     308 -> 313        0.10036
     309 -> 313        0.64815
     311 -> 316       -0.25662

 The electronic state is 1-A.
 Alpha  occ. eigenvalues --  -46.92714 -46.92271 -19.26569 -19.25832 -19.20834
 Alpha  occ. eigenvalues --  -19.19809 -19.19517 -19.19251 -19.18555 -19.18216
 Alpha  occ. eigenvalues --  -14.42104 -14.41335 -14.41307 -14.41212 -14.39175
 Alpha  occ. eigenvalues --  -14.38981 -14.38889 -14.38802 -10.37154 -10.36543
 Alpha  occ. eigenvalues --  -10.32451 -10.32043 -10.32013 -10.31668 -10.29520
 Alpha  occ. eigenvalues --  -10.29425 -10.29106 -10.28999 -10.28733 -10.28463
 Alpha  occ. eigenvalues --  -10.28317 -10.28317 -10.28164 -10.28113 -10.27923
 Alpha  occ. eigenvalues --  -10.27898 -10.27818 -10.27697 -10.27665 -10.27259
 Alpha  occ. eigenvalues --  -10.26808 -10.26795 -10.26766 -10.26672 -10.26368
 Alpha  occ. eigenvalues --  -10.26367 -10.26343 -10.26328 -10.26223 -10.26070
 Alpha  occ. eigenvalues --  -10.26055 -10.25904 -10.25792 -10.25741 -10.25632
 Alpha  occ. eigenvalues --  -10.25597 -10.25547 -10.25440 -10.25240 -10.25212
 Alpha  occ. eigenvalues --  -10.25073 -10.24983 -10.24767 -10.24762 -10.24696
 Alpha  occ. eigenvalues --  -10.24616 -10.24441 -10.24310 -10.24207 -10.24109
 Alpha  occ. eigenvalues --  -10.24048 -10.24020 -10.23913 -10.23688 -10.23659
 Alpha  occ. eigenvalues --  -10.23527 -10.23489 -10.23481 -10.23331 -10.23210
 Alpha  occ. eigenvalues --  -10.23194 -10.23164 -10.23009 -10.23006 -10.22809
 Alpha  occ. eigenvalues --  -10.22791  -3.14861  -3.14278  -1.87647  -1.87241
 Alpha  occ. eigenvalues --   -1.87140  -1.87089  -1.86635  -1.86507  -1.11179
 Alpha  occ. eigenvalues --   -1.09989  -1.06381  -1.05702  -1.04981  -1.03589
 Alpha  occ. eigenvalues --   -1.02611  -1.01896  -0.99732  -0.99217  -0.98710
 Alpha  occ. eigenvalues --   -0.98172  -0.98050  -0.97353  -0.96176  -0.95589
 Alpha  occ. eigenvalues --   -0.87010  -0.86828  -0.83707  -0.83411  -0.83118
 Alpha  occ. eigenvalues --   -0.82765  -0.82571  -0.82008  -0.81879  -0.81502
 Alpha  occ. eigenvalues --   -0.81067  -0.80529  -0.80451  -0.79939  -0.78738
 Alpha  occ. eigenvalues --   -0.78256  -0.78241  -0.77824  -0.76744  -0.76573
 Alpha  occ. eigenvalues --   -0.76006  -0.75990  -0.75509  -0.74892  -0.74824
 Alpha  occ. eigenvalues --   -0.74493  -0.72748  -0.72475  -0.71846  -0.71772
 Alpha  occ. eigenvalues --   -0.71606  -0.71072  -0.70573  -0.70538  -0.69581
 Alpha  occ. eigenvalues --   -0.69236  -0.67084  -0.67057  -0.66206  -0.65973
 Alpha  occ. eigenvalues --   -0.63895  -0.63541  -0.63285  -0.62736  -0.62460
 Alpha  occ. eigenvalues --   -0.62323  -0.61355  -0.61115  -0.60382  -0.60252
 Alpha  occ. eigenvalues --   -0.59844  -0.59599  -0.59494  -0.59117  -0.58875
 Alpha  occ. eigenvalues --   -0.58819  -0.57306  -0.56848  -0.54386  -0.54332
 Alpha  occ. eigenvalues --   -0.54105  -0.53965  -0.53770  -0.53770  -0.53449
 Alpha  occ. eigenvalues --   -0.53211  -0.52978  -0.52898  -0.52223  -0.51857
 Alpha  occ. eigenvalues --   -0.51092  -0.50680  -0.50310  -0.50176  -0.50032
 Alpha  occ. eigenvalues --   -0.49907  -0.49262  -0.48777  -0.48511  -0.48417
 Alpha  occ. eigenvalues --   -0.48055  -0.47877  -0.47706  -0.47604  -0.47468
 Alpha  occ. eigenvalues --   -0.47357  -0.46927  -0.46866  -0.46599  -0.46311
 Alpha  occ. eigenvalues --   -0.46243  -0.46230  -0.46106  -0.45868  -0.45811
 Alpha  occ. eigenvalues --   -0.45721  -0.45548  -0.45450  -0.45062  -0.44857
 Alpha  occ. eigenvalues --   -0.44512  -0.44468  -0.44415  -0.44409  -0.44287
 Alpha  occ. eigenvalues --   -0.43918  -0.43914  -0.43768  -0.43544  -0.43300
 Alpha  occ. eigenvalues --   -0.43253  -0.43135  -0.43043  -0.42798  -0.42755
 Alpha  occ. eigenvalues --   -0.42584  -0.42365  -0.42111  -0.41850  -0.41820
 Alpha  occ. eigenvalues --   -0.41763  -0.41646  -0.41349  -0.41090  -0.41006
 Alpha  occ. eigenvalues --   -0.40947  -0.40853  -0.40798  -0.40669  -0.40643
 Alpha  occ. eigenvalues --   -0.40588  -0.40447  -0.40263  -0.39932  -0.39907
 Alpha  occ. eigenvalues --   -0.39734  -0.39636  -0.39360  -0.39311  -0.39127
 Alpha  occ. eigenvalues --   -0.38591  -0.38584  -0.38420  -0.38416  -0.38309
 Alpha  occ. eigenvalues --   -0.38241  -0.38103  -0.37974  -0.37822  -0.37776
 Alpha  occ. eigenvalues --   -0.37511  -0.37481  -0.37411  -0.37152  -0.36967
 Alpha  occ. eigenvalues --   -0.36790  -0.36594  -0.36377  -0.36337  -0.36008
 Alpha  occ. eigenvalues --   -0.35973  -0.35751  -0.35629  -0.35534  -0.35509
 Alpha  occ. eigenvalues --   -0.35260  -0.35189  -0.34852  -0.34506  -0.34215
 Alpha  occ. eigenvalues --   -0.33420  -0.33150  -0.32665  -0.32469  -0.32326
 Alpha  occ. eigenvalues --   -0.32182  -0.32016  -0.31715  -0.31651  -0.31542
 Alpha  occ. eigenvalues --   -0.31068  -0.30829  -0.29763  -0.29536  -0.29251
 Alpha  occ. eigenvalues --   -0.28908  -0.28811  -0.28485  -0.26830  -0.26682
 Alpha  occ. eigenvalues --   -0.26325  -0.25789  -0.25663  -0.25538  -0.25302
 Alpha  occ. eigenvalues --   -0.25217  -0.25115  -0.24383  -0.21185  -0.20803
 Alpha  occ. eigenvalues --   -0.18761  -0.18489
 Alpha virt. eigenvalues --   -0.11379  -0.10773  -0.05202  -0.05005  -0.03638
 Alpha virt. eigenvalues --   -0.03527  -0.01942  -0.01811  -0.01532  -0.00223
 Alpha virt. eigenvalues --   -0.00186   0.00269   0.00359   0.01268   0.01330

 Mulliken charges:
               1
     1  Mg  11.999992
     2  C    6.000004
     3  C    5.999919
     4  C    5.999976
     5  C    6.000072
     6  N    7.000054
     7  C    5.999877
     8  C    6.000050
     9  C    5.999976
    10  C    6.000149
    11  C    5.999989
    12  C    6.000049
    13  C    6.000006
    14  H    1.000010
    15  N    7.000007
    16  C    6.000174
    17  C    6.000048
    18  C    6.000108
    19  C    6.000088
    20  C    5.999982
    21  C    6.000079
    22  O    8.000117
    23  C    5.999977
    24  N    6.999960
    25  C    6.000144
    26  C    5.999967
    27  C    6.000032
    28  C    5.999856
    29  C    5.999977
    30  C    6.000013
    31  C    6.000008
    32  N    7.000017
    33  C    5.999819
    34  C    5.999939
    35  C    5.999876
    36  C    5.999943
    37  C    6.000063
    38  C    5.999931
    39  O    7.999806
    40  C    5.999978
    41  C    5.999988
    42  O    8.000037
    43  O    7.999956
    44  C    6.000021
    45  H    1.000037
    46  H    1.000037
    47  H    0.999987
    48  H    0.999992
    49  H    0.999961
    50  H    1.000046
    51  H    1.000027
    52  H    0.999999
    53  H    0.999937
    54  H    0.999974
    55  H    0.999905
    56  H    0.999969
    57  H    1.000052
    58  H    1.000116
    59  H    1.000063
    60  H    1.000083
    61  H    1.000011
    62  H    1.000054
    63  H    0.999997
    64  H    1.000048
    65  H    1.000048
    66  H    0.999994
    67  H    1.000076
    68  H    0.999968
    69  H    0.999953
    70  H    1.000032
    71  H    1.000009
    72  H    0.999977
    73  H    0.999894
    74  H    0.999935
    75  H    0.999985
    76  H    0.999887
    77  H    1.000010
    78  H    1.000013
    79  H    0.999891
    80  Mg  11.999740
    81  C    5.977623
    82  C    5.999276
    83  C    6.032497
    84  C    5.999557
    85  N    6.985243
    86  C    6.028773
    87  C    5.991209
    88  C    6.007975
    89  C    5.974170
    90  C    6.005830
    91  C    5.995877
    92  C    5.999633
    93  H    1.007205
    94  N    7.003425
    95  C    5.962702
    96  C    5.975946
    97  C    5.993156
    98  C    5.960991
    99  C    6.004864
   100  C    5.988875
   101  O    7.982477
   102  C    6.002218
   103  N    7.009635
   104  C    5.962799
   105  C    6.008492
   106  C    5.989087
   107  C    6.029373
   108  C    6.000511
   109  C    5.995827
   110  C    5.998778
   111  N    6.999958
   112  C    6.031445
   113  C    6.032425
   114  C    6.001725
   115  C    6.030487
   116  C    6.000215
   117  C    6.017737
   118  O    8.024828
   119  C    6.000235
   120  C    6.005004
   121  O    8.002644
   122  O    8.001995
   123  C    5.998318
   124  H    0.987415
   125  H    0.996452
   126  H    1.013142
   127  H    1.000879
   128  H    0.999068
   129  H    0.994859
   130  H    1.001220
   131  H    0.984511
   132  H    1.010071
   133  H    0.994196
   134  H    0.997026
   135  H    0.997541
   136  H    0.980896
   137  H    0.985089
   138  H    0.981816
   139  H    0.988707
   140  H    0.989850
   141  H    0.988812
   142  H    1.000146
   143  H    1.003984
   144  H    1.003251
   145  H    0.992190
   146  H    1.003384
   147  H    0.996580
   148  H    1.011469
   149  H    0.996294
   150  H    1.006311
   151  H    1.004242
   152  H    1.015038
   153  H    1.020227
   154  H    1.015774
   155  H    1.007787
   156  H    1.000706
   157  H    1.005527
   158  H    1.004757
 Sum of Mulliken charges = 624.00000

 Dipole moment (field-independent basis, Debye):
    X=             -4.6062    Y=             -7.8211    Z=              5.2924  Tot=             10.5070
 Quadrupole moment (field-independent basis, Debye-Ang):
   XX=           -171.2787   YY=             -1.6864   ZZ=              1.0997
   XY=           -151.9936   XZ=            102.4219   YZ=             -0.0709

 Normal termination of Gaussian 16 at Fri Oct 15 02:18:12 2021.
