 Gaussian 16, Revision A.03,
 Gaussian 16:  ES64L-G16RevA.03 25-Dec-2016

 --------------------------------------------------------
 #p PBE1PBE/Def2SVP td=(nstates=5) density=(transition=1)
 --------------------------------------------------------

 --------------------------------
 TDDFT excited states in gaussian
 --------------------------------
 Symbolic Z-matrix:
 Charge =  0 Multiplicity = 1

                         Standard orientation:
 ---------------------------------------------------------------------
 Center     Atomic      Atomic             Coordinates (Angstroms)
 Number     Number       Type             X           Y           Z
 ---------------------------------------------------------------------
      1         12           0       33.225982   -0.182100    0.144052
      2          6           0       29.862180    0.693216    0.638965
      3          6           0       32.208325   -3.355032   -0.518672
      4          6           0       36.333184   -0.739542   -0.710900
      5          6           0       33.836218    3.365574    0.054450
      6          7           0       31.284259   -1.183144    0.143897
      7          6           0       30.046374   -0.643042    0.350693
      8          6           0       28.994297   -1.671539   -0.090526
      9          6           0       29.739485   -2.986586    0.109567
     10          6           0       31.160788   -2.480011   -0.202232
     11          6           0       29.628185   -3.527841    1.553621
     12          6           0       28.564801   -1.448138   -1.587690
     13          6           0       27.057814   -0.977099   -1.888198
     14          1           0       26.822390    0.369350   -2.593691
     15          7           0       34.137028   -1.803178   -0.577677
     16          6           0       33.554677   -3.035924   -0.763473
     17          6           0       34.583999   -3.967878   -1.103170
     18          6           0       35.853793   -3.302444   -1.063141
     19          6           0       35.501895   -1.880379   -0.782117
     20          6           0       34.308201   -5.478588   -1.415575
     21          6           0       37.245052   -4.007234   -1.258741
     22          8           0       37.304506   -5.193693   -1.363039
     23          6           0       38.453545   -3.225064   -1.028384
     24          7           0       34.787546    1.152386   -0.581042
     25          6           0       36.026974    0.615503   -0.483260
     26          6           0       37.101113    1.642131   -0.165161
     27          6           0       36.364013    2.966318   -0.294899
     28          6           0       34.873065    2.480195   -0.280764
     29          6           0       37.730347    1.449481    1.264111
     30          6           0       36.679445    3.928114   -1.535304
     31          6           0       37.442996    5.215008   -1.372612
     32          7           0       32.181548    1.638967    0.502913
     33          6           0       32.546791    2.989532    0.433382
     34          6           0       31.416334    3.861302    0.669394
     35          6           0       30.357238    2.994372    0.781315
     36          6           0       30.824957    1.644983    0.654077
     37          6           0       31.457976    5.332719    0.680051
     38          6           0       28.918735    2.927520    0.988530
     39          8           0       28.115115    3.834779    1.237151
     40          6           0       28.562246    1.456108    1.014495
     41          6           0       27.994098    1.152781    2.396611
     42          8           0       28.656968    1.360532    3.410329
     43          8           0       26.647641    0.762543    2.327938
     44          6           0       26.036994    0.493143    3.602241
     45          1           0       31.866020   -4.390381   -0.570690
     46          1           0       37.386320   -1.023277   -0.681272
     47          1           0       34.051332    4.433262    0.135906
     48          1           0       28.097398   -1.472562    0.496592
     49          1           0       29.348478   -3.707898   -0.606931
     50          1           0       29.328296   -4.548918    1.320490
     51          1           0       28.840463   -2.929163    2.011846
     52          1           0       30.529301   -3.487933    2.165702
     53          1           0       28.668124   -2.405601   -2.098120
     54          1           0       29.298258   -0.784817   -2.045422
     55          1           0       26.598126   -0.849469   -0.907856
     56          1           0       26.446376   -1.713741   -2.407984
     57          1           0       34.738199   -5.900008   -2.323678
     58          1           0       33.223416   -5.569871   -1.479374
     59          1           0       34.631221   -6.140005   -0.611455
     60          1           0       38.546955   -2.343430   -1.662868
     61          1           0       39.316179   -3.870722   -1.192755
     62          1           0       38.575040   -3.027557    0.035783
     63          1           0       37.960724    1.569794   -0.832285
     64          1           0       36.484388    3.555983    0.613910
     65          1           0       38.681381    0.917407    1.248650
     66          1           0       36.982985    1.029585    1.937323
     67          1           0       37.946911    2.445643    1.652604
     68          1           0       35.880097    4.121997   -2.249721
     69          1           0       37.341440    3.224386   -2.040616
     70          1           0       38.418025    5.206462   -1.858766
     71          1           0       37.614735    5.405495   -0.312940
     72          1           0       36.788990    5.971818   -1.805150
     73          1           0       32.304459    5.644627    0.067662
     74          1           0       31.673389    5.609683    1.712424
     75          1           0       30.500391    5.760935    0.387356
     76          1           0       27.772263    1.394010    0.267273
     77          1           0       26.309942   -0.466124    4.042832
     78          1           0       24.949454    0.506753    3.536047
     79          1           0       26.251391    1.236508    4.369579
     80         12           0      -32.979991    0.346570    0.516568
     81          6           0      -30.479717   -1.878276   -0.776839
     82          6           0      -31.435510    2.826375   -1.538916
     83          6           0      -35.693525    2.317329    0.720771
     84          6           0      -34.638052   -2.365229    1.778824
     85          7           0      -31.212464    0.402032   -0.977169
     86          6           0      -30.342669   -0.593457   -1.314719
     87          6           0      -29.256492   -0.099899   -2.333127
     88          6           0      -29.405910    1.490187   -2.191371
     89          6           0      -30.805113    1.574214   -1.602499
     90          6           0      -28.402678    2.139756   -1.266036
     91          6           0      -29.392559   -0.723689   -3.712257
     92          6           0      -28.096185   -1.215113   -4.407196
     93          1           0      -27.387206   -0.336314   -5.539857
     94          7           0      -33.490447    2.403924   -0.226853
     95          6           0      -32.649507    3.254638   -0.974284
     96          6           0      -33.325511    4.545427   -1.153141
     97          6           0      -34.579697    4.410794   -0.437148
     98          6           0      -34.679398    3.025987   -0.029109
     99          6           0      -32.842270    5.707927   -1.935760
    100          6           0      -35.557443    5.531002   -0.184919
    101          8           0      -35.217414    6.658845   -0.463447
    102          6           0      -36.935543    5.344823    0.406883
    103          7           0      -34.853320   -0.053118    1.039238
    104          6           0      -35.754329    0.997233    1.190011
    105          6           0      -37.048568    0.410503    1.758332
    106          6           0      -36.625159   -1.010549    2.282043
    107          6           0      -35.258803   -1.138422    1.697924
    108          6           0      -37.870569    1.275284    2.783156
    109          6           0      -37.573227   -2.213861    1.989689
    110          6           0      -38.041168   -3.034553    3.147042
    111          7           0      -32.629705   -1.669049    0.639976
    112          6           0      -33.358904   -2.669976    1.257884
    113          6           0      -32.577485   -3.919861    1.327363
    114          6           0      -31.454201   -3.627742    0.460158
    115          6           0      -31.570435   -2.284573    0.089431
    116          6           0      -32.882030   -5.221162    2.021637
    117          6           0      -30.209991   -4.225928   -0.107405
    118          8           0      -29.792938   -5.348015   -0.060072
    119          6           0      -29.633236   -3.134230   -1.002910
    120          6           0      -28.212744   -2.900935   -0.582787
    121          8           0      -27.996672   -2.438896    0.516971
    122          8           0      -27.216714   -3.156704   -1.572507
    123          6           0      -25.822293   -2.734230   -1.240256
    124          1           0      -30.963470    3.626688   -2.112896
    125          1           0      -36.643405    2.827864    0.888023
    126          1           0      -35.111890   -3.156313    2.363225
    127          1           0      -28.246292   -0.271152   -1.962391
    128          1           0      -29.448449    1.974628   -3.166803
    129          1           0      -28.744611    2.004561   -0.240184
    130          1           0      -28.316828    3.182976   -1.569731
    131          1           0      -27.382956    1.754095   -1.241157
    132          1           0      -29.794841    0.058237   -4.355615
    133          1           0      -30.195287   -1.459590   -3.666360
    134          1           0      -28.398315   -2.170076   -4.837825
    135          1           0      -27.287008   -1.431218   -3.709499
    136          1           0      -32.395151    6.392771   -1.215858
    137          1           0      -33.699408    6.251829   -2.332850
    138          1           0      -32.148851    5.563513   -2.765130
    139          1           0      -37.562171    6.236393    0.419461
    140          1           0      -36.767979    5.040938    1.440241
    141          1           0      -37.581308    4.557658    0.019472
    142          1           0      -37.689030    0.409019    0.875865
    143          1           0      -36.394309   -0.923379    3.343325
    144          1           0      -37.239638    2.043607    3.230849
    145          1           0      -38.341931    0.636210    3.529596
    146          1           0      -38.711920    1.752667    2.281305
    147          1           0      -37.085244   -2.878094    1.276485
    148          1           0      -38.412497   -1.824357    1.413636
    149          1           0      -37.526282   -3.994954    3.133525
    150          1           0      -39.109074   -3.228919    3.048473
    151          1           0      -37.891314   -2.628578    4.147222
    152          1           0      -31.972311   -5.797000    2.190469
    153          1           0      -33.579369   -5.757250    1.377266
    154          1           0      -33.447619   -4.991093    2.924748
    155          1           0      -29.787589   -3.445893   -2.036046
    156          1           0      -25.373793   -3.474614   -0.577632
    157          1           0      -25.821779   -1.795276   -0.687068
    158          1           0      -25.231953   -2.601032   -2.146616
 ---------------------------------------------------------------------

 SCF Done:  E(RPBE1PBE) =  -4067.38096466     A.U. after   16 cycles

 Excitation energies and oscillator strengths:

 Excited State   1:      Singlet-A      1.8362 eV  675.21 nm  f=0.3810  <S**2>=0.000
     310 -> 316        0.16416
     311 -> 313        0.69671
     311 <- 313       -0.11953
 This state for optimization and/or second-order correction.
 Total Energy, E(TD-HF/TD-DFT) =  -4067.31348417
 Copying the excited state density for this state as the 1-particle RhoCI density.

 Excited State   2:      Singlet-A      1.8786 eV  660.00 nm  f=0.3554  <S**2>=0.000
     309 -> 315       -0.18345
     312 -> 314        0.69005
     312 <- 314       -0.10095

 Excited State   3:      Singlet-A      1.9246 eV  644.21 nm  f=0.0000  <S**2>=0.000
     312 -> 313        0.70711

 Excited State   4:      Singlet-A      2.0948 eV  591.85 nm  f=0.0000  <S**2>=0.000
     311 -> 314        0.70711

 Excited State   5:      Singlet-A      2.2360 eV  554.48 nm  f=0.1177  <S**2>=0.000
     308 -> 313        0.10064
     310 -> 313        0.64817
     311 -> 316       -0.25656

 The electronic state is 1-A.
 Alpha  occ. eigenvalues --  -46.92729 -46.92075 -19.26660 -19.25852 -19.20853
 Alpha  occ. eigenvalues --  -19.20770 -19.19825 -19.19309 -19.18919 -19.18229
 Alpha  occ. eigenvalues --  -14.42119 -14.41638 -14.41590 -14.41349 -14.39073
 Alpha  occ. eigenvalues --  -14.38996 -14.38994 -14.38816 -10.37258 -10.37173
 Alpha  occ. eigenvalues --  -10.32467 -10.32215 -10.31681 -10.31644 -10.29448
 Alpha  occ. eigenvalues --  -10.29120 -10.29014 -10.28876 -10.28864 -10.28709
 Alpha  occ. eigenvalues --  -10.28528 -10.28478 -10.28396 -10.28335 -10.28178
 Alpha  occ. eigenvalues --  -10.27937 -10.27913 -10.27435 -10.27285 -10.27273
 Alpha  occ. eigenvalues --  -10.26809 -10.26781 -10.26697 -10.26382 -10.26360
 Alpha  occ. eigenvalues --  -10.26344 -10.26237 -10.26226 -10.25986 -10.25978
 Alpha  occ. eigenvalues --  -10.25935 -10.25916 -10.25759 -10.25711 -10.25684
 Alpha  occ. eigenvalues --  -10.25594 -10.25565 -10.25452 -10.25377 -10.25282
 Alpha  occ. eigenvalues --  -10.24881 -10.24776 -10.24746 -10.24711 -10.24549
 Alpha  occ. eigenvalues --  -10.24517 -10.24505 -10.24462 -10.24376 -10.24324
 Alpha  occ. eigenvalues --  -10.24218 -10.24079 -10.24062 -10.24031 -10.23926
 Alpha  occ. eigenvalues --  -10.23735 -10.23608 -10.23499 -10.23348 -10.23222
 Alpha  occ. eigenvalues --  -10.23209 -10.23174 -10.23117 -10.23001 -10.22823
 Alpha  occ. eigenvalues --  -10.22772  -3.14875  -3.14264  -1.87661  -1.87256
 Alpha  occ. eigenvalues --   -1.87104  -1.87078  -1.86653  -1.86487  -1.10701
 Alpha  occ. eigenvalues --   -1.10009  -1.06702  -1.06397  -1.04994  -1.03778
 Alpha  occ. eigenvalues --   -1.02993  -1.02631  -0.99375  -0.99231  -0.98887
 Alpha  occ. eigenvalues --   -0.98187  -0.97487  -0.97368  -0.96778  -0.96191
 Alpha  occ. eigenvalues --   -0.87371  -0.87026  -0.83719  -0.83446  -0.83263
 Alpha  occ. eigenvalues --   -0.83135  -0.82858  -0.82779  -0.81915  -0.81895
 Alpha  occ. eigenvalues --   -0.81448  -0.80543  -0.79953  -0.79323  -0.78849
 Alpha  occ. eigenvalues --   -0.78754  -0.78514  -0.78269  -0.76813  -0.76760
 Alpha  occ. eigenvalues --   -0.76755  -0.76020  -0.75374  -0.75180  -0.74841
 Alpha  occ. eigenvalues --   -0.74509  -0.72489  -0.72340  -0.71787  -0.71525
 Alpha  occ. eigenvalues --   -0.71088  -0.70704  -0.70591  -0.70581  -0.69596
 Alpha  occ. eigenvalues --   -0.69448  -0.67308  -0.67099  -0.66593  -0.66221
 Alpha  occ. eigenvalues --   -0.63907  -0.63404  -0.63302  -0.63024  -0.62491
 Alpha  occ. eigenvalues --   -0.62340  -0.61226  -0.61131  -0.60395  -0.60258
 Alpha  occ. eigenvalues --   -0.60081  -0.59511  -0.59403  -0.59133  -0.59025
 Alpha  occ. eigenvalues --   -0.58834  -0.57272  -0.56866  -0.54752  -0.54609
 Alpha  occ. eigenvalues --   -0.54347  -0.53982  -0.53786  -0.53733  -0.53478
 Alpha  occ. eigenvalues --   -0.53466  -0.52993  -0.52955  -0.52282  -0.52237
 Alpha  occ. eigenvalues --   -0.51105  -0.50845  -0.50671  -0.50191  -0.50047
 Alpha  occ. eigenvalues --   -0.49796  -0.49388  -0.48793  -0.48574  -0.48435
 Alpha  occ. eigenvalues --   -0.48135  -0.47895  -0.47722  -0.47687  -0.47607
 Alpha  occ. eigenvalues --   -0.47482  -0.47437  -0.47165  -0.46882  -0.46744
 Alpha  occ. eigenvalues --   -0.46326  -0.46312  -0.46246  -0.45887  -0.45606
 Alpha  occ. eigenvalues --   -0.45563  -0.45489  -0.45465  -0.45120  -0.45075
 Alpha  occ. eigenvalues --   -0.44744  -0.44484  -0.44456  -0.44431  -0.44303
 Alpha  occ. eigenvalues --   -0.44149  -0.43927  -0.43896  -0.43781  -0.43667
 Alpha  occ. eigenvalues --   -0.43315  -0.43297  -0.43267  -0.43001  -0.42815
 Alpha  occ. eigenvalues --   -0.42739  -0.42378  -0.42236  -0.41838  -0.41834
 Alpha  occ. eigenvalues --   -0.41660  -0.41298  -0.41104  -0.41024  -0.41023
 Alpha  occ. eigenvalues --   -0.40998  -0.40868  -0.40852  -0.40812  -0.40707
 Alpha  occ. eigenvalues --   -0.40686  -0.40604  -0.40125  -0.40003  -0.39949
 Alpha  occ. eigenvalues --   -0.39652  -0.39377  -0.39213  -0.39068  -0.38995
 Alpha  occ. eigenvalues --   -0.38638  -0.38600  -0.38435  -0.38378  -0.38256
 Alpha  occ. eigenvalues --   -0.38133  -0.38118  -0.37895  -0.37790  -0.37495
 Alpha  occ. eigenvalues --   -0.37424  -0.37389  -0.37233  -0.37172  -0.37024
 Alpha  occ. eigenvalues --   -0.36829  -0.36804  -0.36550  -0.36446  -0.36390
 Alpha  occ. eigenvalues --   -0.36022  -0.36007  -0.35801  -0.35648  -0.35590
 Alpha  occ. eigenvalues --   -0.35523  -0.35276  -0.35204  -0.34931  -0.34229
 Alpha  occ. eigenvalues --   -0.33891  -0.33440  -0.32978  -0.32681  -0.32466
 Alpha  occ. eigenvalues --   -0.32341  -0.32061  -0.32035  -0.31712  -0.31593
 Alpha  occ. eigenvalues --   -0.31559  -0.30848  -0.29908  -0.29781  -0.29701
 Alpha  occ. eigenvalues --   -0.29552  -0.29007  -0.28825  -0.26954  -0.26844
 Alpha  occ. eigenvalues --   -0.26341  -0.26113  -0.25848  -0.25576  -0.25316
 Alpha  occ. eigenvalues --   -0.25260  -0.25231  -0.24398  -0.21282  -0.21199
 Alpha  occ. eigenvalues --   -0.18776  -0.18667
 Alpha virt. eigenvalues --   -0.11393  -0.10877  -0.05640  -0.05019  -0.03701
 Alpha virt. eigenvalues --   -0.03542  -0.01956  -0.01875  -0.01545  -0.00871
 Alpha virt. eigenvalues --   -0.00349  -0.00205   0.00245   0.00758   0.01252

 Mulliken charges:
               1
     1  Mg  12.000004
     2  C    5.999935
     3  C    5.999980
     4  C    6.000059
     5  C    6.000042
     6  N    6.999993
     7  C    6.000065
     8  C    5.999986
     9  C    6.000017
    10  C    5.999991
    11  C    6.000009
    12  C    6.000006
    13  C    6.000000
    14  H    1.000005
    15  N    6.999995
    16  C    5.999948
    17  C    5.999941
    18  C    5.999981
    19  C    5.999939
    20  C    6.000027
    21  C    5.999966
    22  O    7.999961
    23  C    6.000019
    24  N    6.999968
    25  C    5.999951
    26  C    6.000021
    27  C    5.999993
    28  C    6.000002
    29  C    6.000004
    30  C    5.999990
    31  C    6.000004
    32  N    7.000033
    33  C    6.000049
    34  C    6.000056
    35  C    6.000017
    36  C    6.000061
    37  C    5.999959
    38  C    6.000058
    39  O    8.000049
    40  C    5.999964
    41  C    6.000009
    42  O    8.000006
    43  O    8.000001
    44  C    5.999998
    45  H    0.999973
    46  H    0.999986
    47  H    1.000021
    48  H    0.999986
    49  H    0.999984
    50  H    0.999984
    51  H    0.999968
    52  H    1.000000
    53  H    1.000013
    54  H    1.000002
    55  H    0.999991
    56  H    0.999997
    57  H    0.999964
    58  H    0.999972
    59  H    0.999956
    60  H    0.999988
    61  H    0.999977
    62  H    0.999984
    63  H    1.000004
    64  H    1.000003
    65  H    1.000006
    66  H    0.999994
    67  H    0.999988
    68  H    1.000001
    69  H    1.000022
    70  H    1.000015
    71  H    1.000005
    72  H    1.000005
    73  H    1.000039
    74  H    1.000045
    75  H    1.000035
    76  H    1.000019
    77  H    1.000002
    78  H    1.000004
    79  H    1.000007
    80  Mg  11.999732
    81  C    5.977671
    82  C    5.999486
    83  C    6.032531
    84  C    5.999591
    85  N    6.985061
    86  C    6.028909
    87  C    5.991222
    88  C    6.007928
    89  C    5.974143
    90  C    6.005840
    91  C    5.995888
    92  C    5.999610
    93  H    1.007171
    94  N    7.003445
    95  C    5.962612
    96  C    5.975897
    97  C    5.993330
    98  C    5.960826
    99  C    6.004854
   100  C    5.989251
   101  O    7.982206
   102  C    6.002225
   103  N    7.009693
   104  C    5.962577
   105  C    6.008473
   106  C    5.989142
   107  C    6.029412
   108  C    6.000463
   109  C    5.995805
   110  C    5.998762
   111  N    7.000238
   112  C    6.031402
   113  C    6.032435
   114  C    6.001523
   115  C    6.030343
   116  C    6.000200
   117  C    6.017901
   118  O    8.024756
   119  C    6.000208
   120  C    6.004981
   121  O    8.002720
   122  O    8.001962
   123  C    5.998348
   124  H    0.987340
   125  H    0.996504
   126  H    1.013138
   127  H    1.000838
   128  H    0.999077
   129  H    0.994877
   130  H    1.001229
   131  H    0.984495
   132  H    1.010068
   133  H    0.994195
   134  H    0.997041
   135  H    0.997554
   136  H    0.980880
   137  H    0.985111
   138  H    0.981784
   139  H    0.988674
   140  H    0.989834
   141  H    0.988782
   142  H    1.000205
   143  H    1.003959
   144  H    1.003291
   145  H    0.992210
   146  H    1.003401
   147  H    0.996554
   148  H    1.011478
   149  H    0.996282
   150  H    1.006306
   151  H    1.004252
   152  H    1.015039
   153  H    1.020239
   154  H    1.015807
   155  H    1.007810
   156  H    1.000701
   157  H    1.005524
   158  H    1.004751
 Sum of Mulliken charges = 624.00000

 Dipole moment (field-independent basis, Debye):
    X=              1.1783    Y=            -10.0939    Z=              2.4782  Tot=             10.4602
 Quadrupole moment (field-independent basis, Debye-Ang):
   XX=            -76.6491   YY=             -7.2840   ZZ=              1.5787
   XY=            334.6659   XZ=            -82.8596   YZ=             -0.0775

 Normal termination of Gaussian 16 at Fri Oct 15 16:23:59 2021.
