 Gaussian 16, Revision A.03,
 Gaussian 16:  ES64L-G16RevA.03 25-Dec-2016

 --------------------------------------------------------
 #p PBE1PBE/Def2SVP td=(nstates=5) density=(transition=1)
 --------------------------------------------------------

 --------------------------------
 TDDFT excited states in gaussian
 --------------------------------
 Symbolic Z-matrix:
 Charge =  0 Multiplicity = 1

                         Standard orientation:
 ---------------------------------------------------------------------
 Center     Atomic      Atomic             Coordinates (Angstroms)
 Number     Number       Type             X           Y           Z
 ---------------------------------------------------------------------
      1         12           0       27.138702   -0.557896    0.068356
      2          6           0       25.750913    2.424018    1.331341
      3          6           0       28.128584    1.130792   -2.706381
      4          6           0       28.349556   -3.472501   -1.147728
      5          6           0       25.700154   -2.274854    2.721877
      6          7           0       26.881066    1.477801   -0.648501
      7          6           0       26.382070    2.558798    0.083356
      8          6           0       26.644884    3.830293   -0.666179
      9          6           0       26.935567    3.319448   -2.097372
     10          6           0       27.351119    1.855810   -1.798926
     11          6           0       25.756697    3.331658   -3.121044
     12          6           0       27.794169    4.741785   -0.092348
     13          6           0       27.434772    6.188498    0.028740
     14          1           0       28.484512    7.201753   -0.464563
     15          7           0       28.170588   -1.040956   -1.598563
     16          6           0       28.583873   -0.174263   -2.624030
     17          6           0       29.344794   -0.880722   -3.575801
     18          6           0       29.446224   -2.285845   -3.142594
     19          6           0       28.668982   -2.313054   -1.936484
     20          6           0       29.839596   -0.335580   -4.883591
     21          6           0       30.111598   -3.570500   -3.802767
     22          8           0       30.086502   -4.639979   -3.241265
     23          6           0       30.886540   -3.468080   -5.108732
     24          7           0       26.940139   -2.604536    0.649131
     25          6           0       27.529992   -3.610494   -0.047017
     26          6           0       27.192852   -5.023532    0.631230
     27          6           0       26.594609   -4.604482    2.044954
     28          6           0       26.384041   -3.048376    1.808737
     29          6           0       26.225106   -5.951280   -0.154179
     30          6           0       27.539528   -4.909053    3.261513
     31          6           0       26.845744   -5.689541    4.297465
     32          7           0       25.926753   -0.067626    1.672538
     33          6           0       25.507566   -0.861386    2.739125
     34          6           0       24.793147   -0.058519    3.693938
     35          6           0       24.841397    1.217356    3.170310
     36          6           0       25.534519    1.187936    2.001428
     37          6           0       24.239722   -0.636965    5.022349
     38          6           0       24.417132    2.590704    3.371409
     39          8           0       23.673978    3.024515    4.223937
     40          6           0       24.988381    3.449606    2.136734
     41          6           0       23.857641    4.069362    1.421756
     42          8           0       22.901010    3.430422    0.910179
     43          8           0       24.018500    5.423556    1.454965
     44          6           0       22.791826    6.194463    1.120314
     45          1           0       28.377262    1.728481   -3.585759
     46          1           0       28.691148   -4.456480   -1.475172
     47          1           0       25.195761   -2.838030    3.509194
     48          1           0       25.762919    4.458301   -0.797742
     49          1           0       27.732078    3.866996   -2.601513
     50          1           0       25.061036    4.160671   -2.984640
     51          1           0       25.246623    2.372655   -3.026671
     52          1           0       26.042013    3.308124   -4.172467
     53          1           0       28.642178    4.575168   -0.756320
     54          1           0       28.151172    4.377881    0.871538
     55          1           0       27.245574    6.265539    1.099543
     56          1           0       26.564943    6.401746   -0.592430
     57          1           0       30.911584   -0.145546   -4.941153
     58          1           0       29.409778    0.652515   -5.042974
     59          1           0       29.620932   -0.894181   -5.793279
     60          1           0       31.348305   -4.444318   -5.251331
     61          1           0       31.556709   -2.607955   -5.112454
     62          1           0       30.222292   -3.129878   -5.904566
     63          1           0       28.095293   -5.632558    0.686488
     64          1           0       25.631595   -5.101956    2.169228
     65          1           0       25.790415   -5.540038   -1.065829
     66          1           0       25.369757   -6.276912    0.438327
     67          1           0       26.795082   -6.842200   -0.419128
     68          1           0       27.821777   -3.963337    3.725674
     69          1           0       28.430585   -5.484600    3.011632
     70          1           0       27.129422   -6.736788    4.189786
     71          1           0       25.763868   -5.603062    4.391882
     72          1           0       27.137878   -5.321940    5.281207
     73          1           0       24.723707   -1.593869    5.219230
     74          1           0       23.148828   -0.639996    5.034155
     75          1           0       24.603595    0.053515    5.782316
     76          1           0       25.683016    4.220708    2.470842
     77          1           0       22.953613    7.257596    1.297512
     78          1           0       22.061903    5.899048    1.874314
     79          1           0       22.511402    5.911980    0.105204
     80         12           0      -27.245423   -0.581384   -0.319822
     81          6           0      -25.232579    2.155424   -1.144735
     82          6           0      -28.993035    1.488901    1.817116
     83          6           0      -28.763484   -3.321372    1.036284
     84          6           0      -25.004885   -2.634289   -1.980711
     85          7           0      -27.141413    1.552411    0.152328
     86          6           0      -26.397915    2.483737   -0.458538
     87          6           0      -26.819598    3.932004   -0.170276
     88          6           0      -27.919693    3.719901    0.939323
     89          6           0      -28.136918    2.104990    0.940686
     90          6           0      -27.613756    4.264590    2.351205
     91          6           0      -27.304037    4.710600   -1.393564
     92          6           0      -27.109552    6.232128   -1.262395
     93          1           0      -26.503240    6.803425    0.027141
     94          7           0      -28.749385   -0.891730    1.122361
     95          6           0      -29.407994    0.114883    1.865552
     96          6           0      -30.417843   -0.516501    2.691134
     97          6           0      -30.323519   -1.948660    2.525785
     98          6           0      -29.283056   -2.115640    1.512278
     99          6           0      -31.405388    0.306027    3.472207
    100          6           0      -31.226539   -3.120994    3.119534
    101          8           0      -31.128314   -4.277647    2.788476
    102          6           0      -32.241440   -2.719743    4.167880
    103          7           0      -26.873924   -2.654315   -0.376485
    104          6           0      -27.649554   -3.601834    0.224928
    105          6           0      -27.185116   -5.063374   -0.125631
    106          6           0      -26.058320   -4.786520   -1.119538
    107          6           0      -25.976676   -3.271935   -1.150840
    108          6           0      -26.840575   -6.115036    1.004638
    109          6           0      -26.376964   -5.386308   -2.509155
    110          6           0      -27.287858   -4.594165   -3.473098
    111          7           0      -25.532939   -0.362053   -1.506045
    112          6           0      -24.721866   -1.281314   -2.119469
    113          6           0      -23.656909   -0.644903   -2.819596
    114          6           0      -23.802506    0.769420   -2.458079
    115          6           0      -24.891960    0.847656   -1.681000
    116          6           0      -22.597023   -1.181070   -3.676340
    117          6           0      -23.187461    2.088121   -2.519151
    118          8           0      -22.217058    2.482261   -3.174730
    119          6           0      -24.070737    3.063197   -1.686290
    120          6           0      -23.302756    3.709409   -0.626932
    121          8           0      -22.980377    3.203463    0.442803
    122          8           0      -22.796853    4.895057   -1.097693
    123          6           0      -21.665921    5.536482   -0.399377
    124          1           0      -29.471604    2.211272    2.481964
    125          1           0      -29.359523   -4.190981    1.320733
    126          1           0      -24.352663   -3.268325   -2.584849
    127          1           0      -26.034135    4.483166    0.346308
    128          1           0      -28.912028    4.049138    0.633222
    129          1           0      -28.506454    4.865456    2.523935
    130          1           0      -26.719804    4.887666    2.338576
    131          1           0      -27.476960    3.444343    3.055997
    132          1           0      -28.347809    4.501731   -1.624985
    133          1           0      -26.757245    4.392479   -2.281616
    134          1           0      -28.135091    6.575196   -1.400608
    135          1           0      -26.585468    6.651063   -2.122614
    136          1           0      -31.039862    1.331255    3.412777
    137          1           0      -31.435713   -0.056812    4.499817
    138          1           0      -32.421672    0.238053    3.081180
    139          1           0      -31.863410   -2.497443    5.166296
    140          1           0      -33.005089   -3.496736    4.202661
    141          1           0      -32.677506   -1.825510    3.722713
    142          1           0      -28.082243   -5.448138   -0.610091
    143          1           0      -25.161274   -5.239005   -0.698393
    144          1           0      -25.897224   -6.641471    0.864409
    145          1           0      -27.605717   -6.890497    0.987071
    146          1           0      -26.905623   -5.600860    1.964002
    147          1           0      -26.804997   -6.367135   -2.305685
    148          1           0      -25.401072   -5.552426   -2.966325
    149          1           0      -27.935215   -5.350265   -3.916599
    150          1           0      -26.744515   -4.123858   -4.292343
    151          1           0      -27.829253   -3.771939   -3.006521
    152          1           0      -22.488126   -0.507479   -4.525632
    153          1           0      -22.753610   -2.196433   -4.040639
    154          1           0      -21.630892   -1.071898   -3.183287
    155          1           0      -24.446877    3.771322   -2.424500
    156          1           0      -21.376492    4.993642    0.501103
    157          1           0      -21.989270    6.531170   -0.091567
    158          1           0      -20.904701    5.511138   -1.178327
 ---------------------------------------------------------------------

 SCF Done:  E(RPBE1PBE) =  -4067.41206086     A.U. after   16 cycles

 Excitation energies and oscillator strengths:

 Excited State   1:      Singlet-A      1.8755 eV  661.08 nm  f=0.3939  <S**2>=0.000
     310 -> 315       -0.17473
     312 -> 314        0.69087
     312 <- 314       -0.10932
 This state for optimization and/or second-order correction.
 Total Energy, E(TD-HF/TD-DFT) =  -4067.34313858
 Copying the excited state density for this state as the 1-particle RhoCI density.

 Excited State   2:      Singlet-A      1.8995 eV  652.73 nm  f=0.3756  <S**2>=0.000
     309 -> 316       -0.17459
     311 -> 313        0.69187
     311 <- 313       -0.10895

 Excited State   3:      Singlet-A      1.9679 eV  630.04 nm  f=0.0000  <S**2>=0.000
     312 -> 313        0.70711

 Excited State   4:      Singlet-A      2.0658 eV  600.19 nm  f=0.0000  <S**2>=0.000
     311 -> 314        0.70711

 Excited State   5:      Singlet-A      2.1488 eV  577.00 nm  f=0.1393  <S**2>=0.000
     310 -> 314        0.66655
     312 -> 315        0.21033

 The electronic state is 1-A.
 Alpha  occ. eigenvalues --  -46.91656 -46.90604 -19.26305 -19.24546 -19.20062
 Alpha  occ. eigenvalues --  -19.19974 -19.19772 -19.19362 -19.19198 -19.18994
 Alpha  occ. eigenvalues --  -14.41691 -14.41486 -14.41463 -14.41056 -14.39079
 Alpha  occ. eigenvalues --  -14.38945 -14.38312 -14.37911 -10.36443 -10.35646
 Alpha  occ. eigenvalues --  -10.33379 -10.33258 -10.32290 -10.32278 -10.29379
 Alpha  occ. eigenvalues --  -10.28870 -10.28591 -10.28588 -10.28439 -10.28431
 Alpha  occ. eigenvalues --  -10.28384 -10.28292 -10.28263 -10.28181 -10.28158
 Alpha  occ. eigenvalues --  -10.27971 -10.27507 -10.27410 -10.27009 -10.26590
 Alpha  occ. eigenvalues --  -10.26413 -10.26371 -10.26217 -10.26136 -10.25969
 Alpha  occ. eigenvalues --  -10.25863 -10.25838 -10.25770 -10.25768 -10.25718
 Alpha  occ. eigenvalues --  -10.25583 -10.25574 -10.25514 -10.25513 -10.25490
 Alpha  occ. eigenvalues --  -10.25466 -10.25464 -10.25436 -10.25318 -10.25238
 Alpha  occ. eigenvalues --  -10.25222 -10.24796 -10.24712 -10.24578 -10.24511
 Alpha  occ. eigenvalues --  -10.24440 -10.24337 -10.24131 -10.24086 -10.24077
 Alpha  occ. eigenvalues --  -10.23977 -10.23921 -10.23680 -10.23550 -10.23511
 Alpha  occ. eigenvalues --  -10.23454 -10.23446 -10.23441 -10.23349 -10.23313
 Alpha  occ. eigenvalues --  -10.23239 -10.22871 -10.22799 -10.22552 -10.22185
 Alpha  occ. eigenvalues --  -10.22091  -3.13761  -3.12906  -1.86603  -1.86132
 Alpha  occ. eigenvalues --   -1.85990  -1.85753  -1.85269  -1.85156  -1.10523
 Alpha  occ. eigenvalues --   -1.09839  -1.06341  -1.06251  -1.05174  -1.03646
 Alpha  occ. eigenvalues --   -1.01450  -1.01124  -0.99511  -0.99033  -0.98107
 Alpha  occ. eigenvalues --   -0.97967  -0.97195  -0.97138  -0.95976  -0.95621
 Alpha  occ. eigenvalues --   -0.86984  -0.86462  -0.83450  -0.83444  -0.83037
 Alpha  occ. eigenvalues --   -0.82930  -0.82438  -0.82294  -0.81389  -0.81365
 Alpha  occ. eigenvalues --   -0.80706  -0.80646  -0.80403  -0.80216  -0.78546
 Alpha  occ. eigenvalues --   -0.78473  -0.78113  -0.77681  -0.77180  -0.76580
 Alpha  occ. eigenvalues --   -0.76215  -0.76081  -0.75496  -0.75316  -0.74999
 Alpha  occ. eigenvalues --   -0.74531  -0.72473  -0.72438  -0.71636  -0.71411
 Alpha  occ. eigenvalues --   -0.71128  -0.71097  -0.70203  -0.70041  -0.69376
 Alpha  occ. eigenvalues --   -0.69203  -0.67353  -0.66889  -0.65530  -0.65388
 Alpha  occ. eigenvalues --   -0.64154  -0.63044  -0.62841  -0.62478  -0.62112
 Alpha  occ. eigenvalues --   -0.61959  -0.60891  -0.60446  -0.59941  -0.59595
 Alpha  occ. eigenvalues --   -0.59247  -0.59112  -0.59081  -0.58936  -0.58592
 Alpha  occ. eigenvalues --   -0.58279  -0.56536  -0.55977  -0.54827  -0.54600
 Alpha  occ. eigenvalues --   -0.54279  -0.53842  -0.53658  -0.53593  -0.52839
 Alpha  occ. eigenvalues --   -0.52717  -0.52405  -0.52297  -0.52091  -0.51970
 Alpha  occ. eigenvalues --   -0.50678  -0.50399  -0.50265  -0.50032  -0.49981
 Alpha  occ. eigenvalues --   -0.49682  -0.49479  -0.49184  -0.48404  -0.48243
 Alpha  occ. eigenvalues --   -0.48046  -0.47977  -0.47810  -0.47448  -0.47299
 Alpha  occ. eigenvalues --   -0.47250  -0.47171  -0.46773  -0.46684  -0.46436
 Alpha  occ. eigenvalues --   -0.46435  -0.46396  -0.46246  -0.45852  -0.45760
 Alpha  occ. eigenvalues --   -0.45502  -0.45458  -0.45136  -0.44992  -0.44756
 Alpha  occ. eigenvalues --   -0.44661  -0.44346  -0.44198  -0.44088  -0.44037
 Alpha  occ. eigenvalues --   -0.43991  -0.43932  -0.43654  -0.43599  -0.43550
 Alpha  occ. eigenvalues --   -0.43353  -0.43158  -0.42890  -0.42754  -0.42652
 Alpha  occ. eigenvalues --   -0.42399  -0.42310  -0.41934  -0.41775  -0.41423
 Alpha  occ. eigenvalues --   -0.41419  -0.41322  -0.41162  -0.40987  -0.40861
 Alpha  occ. eigenvalues --   -0.40793  -0.40562  -0.40514  -0.40500  -0.40378
 Alpha  occ. eigenvalues --   -0.40091  -0.39991  -0.39839  -0.39773  -0.39490
 Alpha  occ. eigenvalues --   -0.39445  -0.39393  -0.39212  -0.39133  -0.39051
 Alpha  occ. eigenvalues --   -0.38630  -0.38440  -0.38261  -0.38228  -0.38158
 Alpha  occ. eigenvalues --   -0.37991  -0.37873  -0.37850  -0.37635  -0.37631
 Alpha  occ. eigenvalues --   -0.37453  -0.37446  -0.37237  -0.37020  -0.36837
 Alpha  occ. eigenvalues --   -0.36756  -0.36715  -0.36330  -0.36103  -0.35927
 Alpha  occ. eigenvalues --   -0.35848  -0.35722  -0.35536  -0.35333  -0.35091
 Alpha  occ. eigenvalues --   -0.34885  -0.34814  -0.34073  -0.33771  -0.33473
 Alpha  occ. eigenvalues --   -0.33339  -0.33317  -0.32833  -0.32828  -0.32793
 Alpha  occ. eigenvalues --   -0.32678  -0.31732  -0.31721  -0.31389  -0.31188
 Alpha  occ. eigenvalues --   -0.31049  -0.30594  -0.29540  -0.29476  -0.29119
 Alpha  occ. eigenvalues --   -0.28958  -0.28574  -0.28472  -0.26929  -0.26595
 Alpha  occ. eigenvalues --   -0.26463  -0.26327  -0.25885  -0.25722  -0.25622
 Alpha  occ. eigenvalues --   -0.25176  -0.25132  -0.24376  -0.20914  -0.20493
 Alpha  occ. eigenvalues --   -0.19108  -0.18877
 Alpha virt. eigenvalues --   -0.11401  -0.11271  -0.04862  -0.04826  -0.03616
 Alpha virt. eigenvalues --   -0.03538  -0.01913  -0.01675  -0.00176  -0.00161
 Alpha virt. eigenvalues --    0.00683   0.00709   0.01102   0.01455   0.01717

 Mulliken charges:
               1
     1  Mg  11.999990
     2  C    5.999853
     3  C    5.999875
     4  C    6.000142
     5  C    6.000028
     6  N    7.000016
     7  C    6.000017
     8  C    5.999966
     9  C    6.000009
    10  C    5.999947
    11  C    6.000010
    12  C    6.000016
    13  C    6.000010
    14  H    0.999990
    15  N    7.000066
    16  C    5.999948
    17  C    5.999929
    18  C    5.999942
    19  C    5.999849
    20  C    6.000033
    21  C    5.999988
    22  O    7.999921
    23  C    5.999995
    24  N    6.999937
    25  C    5.999931
    26  C    6.000028
    27  C    5.999996
    28  C    6.000114
    29  C    5.999998
    30  C    5.999988
    31  C    6.000001
    32  N    7.000049
    33  C    6.000089
    34  C    6.000047
    35  C    6.000020
    36  C    6.000175
    37  C    5.999989
    38  C    6.000074
    39  O    8.000056
    40  C    6.000000
    41  C    6.000043
    42  O    8.000024
    43  O    7.999963
    44  C    6.000001
    45  H    0.999991
    46  H    0.999961
    47  H    1.000016
    48  H    1.000026
    49  H    0.999992
    50  H    0.999991
    51  H    1.000012
    52  H    1.000014
    53  H    1.000013
    54  H    0.999976
    55  H    0.999983
    56  H    1.000027
    57  H    0.999926
    58  H    0.999966
    59  H    0.999962
    60  H    0.999953
    61  H    0.999975
    62  H    0.999999
    63  H    0.999978
    64  H    1.000015
    65  H    1.000027
    66  H    0.999987
    67  H    0.999988
    68  H    0.999979
    69  H    1.000002
    70  H    1.000002
    71  H    1.000012
    72  H    0.999977
    73  H    1.000025
    74  H    1.000073
    75  H    1.000021
    76  H    1.000010
    77  H    1.000007
    78  H    1.000016
    79  H    1.000038
    80  Mg  11.997291
    81  C    6.015340
    82  C    5.986765
    83  C    5.983754
    84  C    6.001246
    85  N    7.006242
    86  C    5.969111
    87  C    6.012884
    88  C    5.997448
    89  C    6.026020
    90  C    5.997361
    91  C    6.002013
    92  C    6.000987
    93  H    0.995881
    94  N    6.998624
    95  C    6.037569
    96  C    6.019748
    97  C    6.018093
    98  C    6.027629
    99  C    5.995730
   100  C    6.014267
   101  O    8.025139
   102  C    5.996111
   103  N    6.993147
   104  C    6.034674
   105  C    5.992227
   106  C    6.009914
   107  C    5.969789
   108  C    6.001167
   109  C    6.004469
   110  C    6.005523
   111  N    6.998316
   112  C    5.976353
   113  C    5.961656
   114  C    5.999610
   115  C    5.979636
   116  C    6.004830
   117  C    5.985813
   118  O    7.975216
   119  C    5.998170
   120  C    5.994956
   121  O    7.993238
   122  O    7.999428
   123  C    6.001424
   124  H    1.009802
   125  H    1.006219
   126  H    0.989700
   127  H    0.999111
   128  H    0.999064
   129  H    1.001149
   130  H    1.011661
   131  H    0.997125
   132  H    0.992210
   133  H    1.007494
   134  H    0.995881
   135  H    1.002335
   136  H    1.016392
   137  H    1.017639
   138  H    1.019835
   139  H    1.009719
   140  H    1.013921
   141  H    1.002043
   142  H    0.998283
   143  H    0.996594
   144  H    1.009087
   145  H    0.999577
   146  H    0.996142
   147  H    0.988853
   148  H    1.003006
   149  H    0.992097
   150  H    1.005166
   151  H    0.993338
   152  H    0.980813
   153  H    0.981034
   154  H    0.976584
   155  H    0.992908
   156  H    0.996650
   157  H    0.994039
   158  H    0.999720
 Sum of Mulliken charges = 624.00000

 Dipole moment (field-independent basis, Debye):
    X=             -8.1976    Y=             -1.2337    Z=              6.4839  Tot=             10.5244
 Quadrupole moment (field-independent basis, Debye-Ang):
   XX=            440.7770   YY=             -0.0319   ZZ=             -0.1525
   XY=             38.1395   XZ=           -174.9078   YZ=             -5.4229

 Normal termination of Gaussian 16 at Thu Oct 14 02:11:44 2021.
