 Gaussian 16, Revision A.03,
 Gaussian 16:  ES64L-G16RevA.03 25-Dec-2016

 --------------------------------------------------------
 #p PBE1PBE/Def2SVP td=(nstates=5) density=(transition=1)
 --------------------------------------------------------

 --------------------------------
 TDDFT excited states in gaussian
 --------------------------------
 Symbolic Z-matrix:
 Charge =  0 Multiplicity = 1

                         Standard orientation:
 ---------------------------------------------------------------------
 Center     Atomic      Atomic             Coordinates (Angstroms)
 Number     Number       Type             X           Y           Z
 ---------------------------------------------------------------------
      1         12           0      -29.921314    0.245889   -0.508669
      2          6           0      -26.375373    0.520207    0.276187
      3          6           0      -29.086988   -2.246882   -2.717643
      4          6           0      -33.000350   -1.005564   -0.140139
      5          6           0      -30.545257    2.823380    1.615849
      6          7           0      -27.930192   -0.873706   -0.987158
      7          6           0      -26.589498   -0.522399   -0.590861
      8          6           0      -25.586778   -1.329259   -1.420505
      9          6           0      -26.430704   -1.905276   -2.595596
     10          6           0      -27.936913   -1.679399   -2.132770
     11          6           0      -26.161679   -1.177118   -3.996704
     12          6           0      -24.700410   -2.290006   -0.683156
     13          6           0      -25.123400   -2.697763    0.747893
     14          1           0      -24.417004   -3.713658    1.664090
     15          7           0      -30.966287   -1.343833   -1.437217
     16          6           0      -30.426295   -2.266413   -2.305799
     17          6           0      -31.532864   -3.147299   -2.793919
     18          6           0      -32.600859   -2.840467   -1.954628
     19          6           0      -32.241491   -1.730982   -1.074586
     20          6           0      -31.291746   -4.160672   -3.856041
     21          6           0      -33.965011   -3.589974   -1.956243
     22          8           0      -34.078130   -4.563297   -2.680072
     23          6           0      -35.095713   -3.295848   -1.027032
     24          7           0      -31.463901    0.788296    0.732797
     25          6           0      -32.698481    0.163333    0.560656
     26          6           0      -33.789607    0.876268    1.359439
     27          6           0      -33.123798    2.261499    1.688223
     28          6           0      -31.671148    1.977882    1.299250
     29          6           0      -35.188381    1.046532    0.712806
     30          6           0      -33.297949    2.778451    3.152292
     31          6           0      -34.309980    3.998411    3.346743
     32          7           0      -28.737800    1.517590    0.661314
     33          6           0      -29.156654    2.596738    1.425886
     34          6           0      -28.000155    3.331055    1.876946
     35          6           0      -26.942508    2.490561    1.503956
     36          6           0      -27.467439    1.415514    0.745009
     37          6           0      -28.079075    4.610952    2.727036
     38          6           0      -25.520687    2.330491    1.500780
     39          8           0      -24.705564    3.139690    1.987795
     40          6           0      -25.038809    1.119946    0.584522
     41          6           0      -24.132544    0.342197    1.452808
     42          8           0      -24.357261   -0.031371    2.608860
     43          8           0      -23.061074    0.010312    0.691704
     44          6           0      -21.909426   -0.622705    1.407721
     45          1           0      -28.821421   -3.050869   -3.406547
     46          1           0      -34.006824   -1.418065   -0.040989
     47          1           0      -30.774826    3.721609    2.192215
     48          1           0      -25.001204   -0.485393   -1.785406
     49          1           0      -26.371038   -2.991226   -2.670203
     50          1           0      -25.683455   -1.954679   -4.591036
     51          1           0      -25.550516   -0.289343   -3.832348
     52          1           0      -27.148745   -0.952253   -4.402292
     53          1           0      -23.695921   -1.870129   -0.732903
     54          1           0      -24.723726   -3.145393   -1.359168
     55          1           0      -26.154176   -3.037647    0.642646
     56          1           0      -25.119064   -1.819002    1.393076
     57          1           0      -31.370153   -5.130297   -3.365196
     58          1           0      -30.300214   -3.986004   -4.272629
     59          1           0      -32.008041   -4.013104   -4.665037
     60          1           0      -34.946059   -3.470441    0.037756
     61          1           0      -35.955137   -3.944889   -1.192492
     62          1           0      -35.329931   -2.272708   -1.320685
     63          1           0      -33.818877    0.177238    2.196065
     64          1           0      -33.544858    2.946094    0.951587
     65          1           0      -35.920370    0.316911    1.060620
     66          1           0      -35.115329    0.879001   -0.361244
     67          1           0      -35.502225    2.077050    0.882599
     68          1           0      -32.365860    3.064602    3.640360
     69          1           0      -33.625510    1.896228    3.702423
     70          1           0      -34.863346    3.689745    4.233300
     71          1           0      -34.987567    4.172574    2.510758
     72          1           0      -33.702631    4.900141    3.416338
     73          1           0      -27.248866    5.306172    2.600498
     74          1           0      -28.034590    4.189046    3.730501
     75          1           0      -28.930856    5.216245    2.417666
     76          1           0      -24.548180    1.516864   -0.305424
     77          1           0      -21.119808   -0.846841    0.689690
     78          1           0      -22.204244   -1.561882    1.876219
     79          1           0      -21.633434    0.154431    2.119067
     80         12           0       29.731127   -0.392259    0.323434
     81          6           0       27.004480    1.804744   -0.637065
     82          6           0       31.259380    0.664600   -2.489463
     83          6           0       32.091846   -2.376338    1.156033
     84          6           0       27.745167   -1.551990    3.015619
     85          7           0       29.141140    1.169319   -1.413500
     86          6           0       28.062944    1.966204   -1.510038
     87          6           0       28.237760    2.960530   -2.673795
     88          6           0       29.401577    2.176130   -3.441114
     89          6           0       30.004007    1.341036   -2.390753
     90          6           0       29.088851    1.568068   -4.798108
     91          6           0       28.598623    4.339797   -2.095595
     92          6           0       28.193077    5.514344   -3.034001
     93          1           0       27.235720    5.331029   -4.300799
     94          7           0       31.515303   -0.796288   -0.525187
     95          6           0       31.965984   -0.335786   -1.747465
     96          6           0       33.249900   -0.973901   -2.021690
     97          6           0       33.546179   -1.814114   -0.920113
     98          6           0       32.347126   -1.679759   -0.045175
     99          6           0       34.039593   -0.752534   -3.234262
    100          6           0       34.863555   -2.700765   -0.612824
    101          8           0       35.033616   -3.224041    0.454258
    102          6           0       36.088789   -2.670027   -1.544009
    103          7           0       29.759797   -1.961658    1.725060
    104          6           0       30.940833   -2.526566    1.962805
    105          6           0       30.967873   -3.426369    3.168996
    106          6           0       29.754924   -2.843113    3.934273
    107          6           0       28.967668   -2.196586    2.742890
    108          6           0       30.767414   -4.978148    2.837456
    109          6           0       30.090533   -1.847673    5.122860
    110          6           0       31.422378   -2.003232    5.913121
    111          7           0       27.768349   -0.082833    1.005088
    112          6           0       27.111529   -0.536678    2.101156
    113          6           0       25.897554    0.119528    2.287621
    114          6           0       25.818541    0.976071    1.226885
    115          6           0       26.963463    0.866725    0.462651
    116          6           0       24.947499   -0.066071    3.467582
    117          6           0       24.935679    2.008080    0.662751
    118          8           0       23.781086    2.334877    0.893312
    119          6           0       25.763028    2.627890   -0.546564
    120          6           0       24.904448    2.606369   -1.717869
    121          8           0       24.645030    1.632165   -2.431413
    122          8           0       24.233295    3.776904   -1.732860
    123          6           0       23.079451    3.745553   -2.613624
    124          1           0       31.662521    0.869779   -3.483438
    125          1           0       32.900868   -3.071545    1.387359
    126          1           0       27.211862   -1.872064    3.912963
    127          1           0       27.367742    2.966865   -3.330520
    128          1           0       30.146998    2.930511   -3.689095
    129          1           0       29.624648    2.067558   -5.604717
    130          1           0       28.019021    1.624188   -4.998256
    131          1           0       29.293337    0.499452   -4.864425
    132          1           0       29.686447    4.395485   -2.049365
    133          1           0       28.238548    4.504201   -1.080175
    134          1           0       29.059118    6.098602   -3.346650
    135          1           0       27.802199    6.239730   -2.320604
    136          1           0       33.808203    0.206021   -3.698249
    137          1           0       33.784178   -1.582623   -3.893133
    138          1           0       35.116972   -0.741986   -3.067751
    139          1           0       36.590621   -1.703112   -1.579857
    140          1           0       35.723725   -3.079762   -2.486042
    141          1           0       36.808909   -3.426798   -1.231744
    142          1           0       31.960605   -3.245606    3.580503
    143          1           0       29.116488   -3.610297    4.371691
    144          1           0       31.552516   -5.431821    3.441917
    145          1           0       30.923249   -5.239204    1.790127
    146          1           0       29.817723   -5.410736    3.149869
    147          1           0       29.252964   -1.844480    5.818958
    148          1           0       30.222835   -0.917783    4.569488
    149          1           0       32.225055   -1.460039    5.414959
    150          1           0       31.539542   -3.084519    5.993195
    151          1           0       31.334294   -1.655007    6.941656
    152          1           0       25.596379   -0.347360    4.297337
    153          1           0       24.253870   -0.895837    3.334853
    154          1           0       24.435218    0.879489    3.644395
    155          1           0       26.006242    3.651299   -0.258179
    156          1           0       22.513825    4.676855   -2.619000
    157          1           0       22.439791    2.865137   -2.549793
    158          1           0       23.399085    3.692094   -3.654905
 ---------------------------------------------------------------------

 SCF Done:  E(RPBE1PBE) =  -4067.31647038     A.U. after   16 cycles

 Excitation energies and oscillator strengths:

 Excited State   1:      Singlet-A      1.8047 eV  686.99 nm  f=0.3455  <S**2>=0.000
     309 -> 315        0.15294
     312 -> 313        0.69767
     312 <- 313       -0.11784
 This state for optimization and/or second-order correction.
 Total Energy, E(TD-HF/TD-DFT) =  -4067.25014763
 Copying the excited state density for this state as the 1-particle RhoCI density.

 Excited State   2:      Singlet-A      1.9474 eV  636.66 nm  f=0.3569  <S**2>=0.000
     310 -> 316        0.18523
     311 -> 314        0.68730

 Excited State   3:      Singlet-A      2.0302 eV  610.69 nm  f=0.0000  <S**2>=0.000
     312 -> 314        0.70711

 Excited State   4:      Singlet-A      2.0586 eV  602.29 nm  f=0.0000  <S**2>=0.000
     311 -> 313        0.70711

 Excited State   5:      Singlet-A      2.2406 eV  553.36 nm  f=0.1512  <S**2>=0.000
     310 -> 314        0.66539
     311 -> 316       -0.23007

 The electronic state is 1-A.
 Alpha  occ. eigenvalues --  -46.92747 -46.92666 -19.26047 -19.25558 -19.20495
 Alpha  occ. eigenvalues --  -19.19723 -19.19304 -19.19068 -19.19023 -19.17585
 Alpha  occ. eigenvalues --  -14.41951 -14.41134 -14.40768 -14.40730 -14.39427
 Alpha  occ. eigenvalues --  -14.39245 -14.38482 -14.38463 -10.36207 -10.35214
 Alpha  occ. eigenvalues --  -10.33935 -10.32476 -10.32174 -10.30943 -10.29446
 Alpha  occ. eigenvalues --  -10.29350 -10.29245 -10.28998 -10.28578 -10.28375
 Alpha  occ. eigenvalues --  -10.28267 -10.28226 -10.28158 -10.28109 -10.28027
 Alpha  occ. eigenvalues --  -10.27776 -10.27531 -10.27490 -10.27091 -10.26729
 Alpha  occ. eigenvalues --  -10.26657 -10.26507 -10.26466 -10.26425 -10.26372
 Alpha  occ. eigenvalues --  -10.26201 -10.26197 -10.25916 -10.25811 -10.25793
 Alpha  occ. eigenvalues --  -10.25730 -10.25595 -10.25552 -10.25448 -10.25277
 Alpha  occ. eigenvalues --  -10.25224 -10.25182 -10.25167 -10.25164 -10.25113
 Alpha  occ. eigenvalues --  -10.25090 -10.25056 -10.24934 -10.24881 -10.24821
 Alpha  occ. eigenvalues --  -10.24811 -10.24726 -10.24430 -10.24421 -10.24366
 Alpha  occ. eigenvalues --  -10.24311 -10.24232 -10.23969 -10.23908 -10.23889
 Alpha  occ. eigenvalues --  -10.23628 -10.23575 -10.23519 -10.23493 -10.23454
 Alpha  occ. eigenvalues --  -10.23448 -10.23104 -10.23012 -10.22896 -10.22003
 Alpha  occ. eigenvalues --  -10.21729  -3.14829  -3.14735  -1.87671  -1.87546
 Alpha  occ. eigenvalues --   -1.87221  -1.87132  -1.87037  -1.86939  -1.11287
 Alpha  occ. eigenvalues --   -1.10877  -1.07152  -1.05226  -1.04394  -1.02354
 Alpha  occ. eigenvalues --   -1.01601  -1.01452  -1.00433  -0.99754  -0.99666
 Alpha  occ. eigenvalues --   -0.99151  -0.98761  -0.98366  -0.97254  -0.94850
 Alpha  occ. eigenvalues --   -0.86791  -0.86385  -0.83635  -0.83212  -0.83207
 Alpha  occ. eigenvalues --   -0.82953  -0.82869  -0.82402  -0.81717  -0.81239
 Alpha  occ. eigenvalues --   -0.81076  -0.80887  -0.80494  -0.80164  -0.78581
 Alpha  occ. eigenvalues --   -0.78581  -0.78060  -0.77458  -0.76750  -0.76616
 Alpha  occ. eigenvalues --   -0.76577  -0.75891  -0.75327  -0.75071  -0.74513
 Alpha  occ. eigenvalues --   -0.74448  -0.72678  -0.72268  -0.72065  -0.71139
 Alpha  occ. eigenvalues --   -0.70971  -0.70830  -0.70336  -0.70101  -0.69581
 Alpha  occ. eigenvalues --   -0.69520  -0.67526  -0.67301  -0.66068  -0.66052
 Alpha  occ. eigenvalues --   -0.64013  -0.63961  -0.63313  -0.63150  -0.62183
 Alpha  occ. eigenvalues --   -0.62142  -0.61306  -0.61062  -0.60549  -0.59910
 Alpha  occ. eigenvalues --   -0.59783  -0.59527  -0.59245  -0.59124  -0.58245
 Alpha  occ. eigenvalues --   -0.58115  -0.56741  -0.56432  -0.55175  -0.54091
 Alpha  occ. eigenvalues --   -0.53992  -0.53829  -0.53744  -0.53666  -0.52956
 Alpha  occ. eigenvalues --   -0.52502  -0.52501  -0.52120  -0.52024  -0.51789
 Alpha  occ. eigenvalues --   -0.51344  -0.50993  -0.50708  -0.50007  -0.49800
 Alpha  occ. eigenvalues --   -0.49721  -0.49166  -0.49131  -0.48770  -0.48541
 Alpha  occ. eigenvalues --   -0.48294  -0.48207  -0.48024  -0.47755  -0.47550
 Alpha  occ. eigenvalues --   -0.47438  -0.47229  -0.47122  -0.46957  -0.46814
 Alpha  occ. eigenvalues --   -0.46464  -0.46066  -0.45923  -0.45905  -0.45788
 Alpha  occ. eigenvalues --   -0.45736  -0.45488  -0.45310  -0.45238  -0.44988
 Alpha  occ. eigenvalues --   -0.44738  -0.44580  -0.44319  -0.44268  -0.43972
 Alpha  occ. eigenvalues --   -0.43626  -0.43552  -0.43442  -0.43338  -0.43330
 Alpha  occ. eigenvalues --   -0.43293  -0.42976  -0.42867  -0.42792  -0.42641
 Alpha  occ. eigenvalues --   -0.42450  -0.42261  -0.42215  -0.42076  -0.41852
 Alpha  occ. eigenvalues --   -0.41720  -0.41546  -0.41444  -0.41354  -0.41223
 Alpha  occ. eigenvalues --   -0.40984  -0.40772  -0.40558  -0.40475  -0.40265
 Alpha  occ. eigenvalues --   -0.40207  -0.39922  -0.39825  -0.39690  -0.39424
 Alpha  occ. eigenvalues --   -0.39292  -0.39110  -0.38955  -0.38816  -0.38801
 Alpha  occ. eigenvalues --   -0.38714  -0.38660  -0.38405  -0.38331  -0.38212
 Alpha  occ. eigenvalues --   -0.38060  -0.37997  -0.37817  -0.37648  -0.37553
 Alpha  occ. eigenvalues --   -0.37551  -0.37388  -0.37353  -0.37144  -0.37057
 Alpha  occ. eigenvalues --   -0.37050  -0.37024  -0.36775  -0.36647  -0.36281
 Alpha  occ. eigenvalues --   -0.36158  -0.35944  -0.35732  -0.35338  -0.34885
 Alpha  occ. eigenvalues --   -0.34626  -0.34312  -0.34207  -0.34022  -0.33600
 Alpha  occ. eigenvalues --   -0.33367  -0.33164  -0.32981  -0.32422  -0.32397
 Alpha  occ. eigenvalues --   -0.32139  -0.31662  -0.31572  -0.31373  -0.30848
 Alpha  occ. eigenvalues --   -0.30847  -0.30689  -0.29409  -0.29255  -0.29031
 Alpha  occ. eigenvalues --   -0.28657  -0.28287  -0.27974  -0.27080  -0.26945
 Alpha  occ. eigenvalues --   -0.26564  -0.26148  -0.25820  -0.25517  -0.25387
 Alpha  occ. eigenvalues --   -0.25279  -0.25260  -0.24278  -0.21251  -0.20334
 Alpha  occ. eigenvalues --   -0.18871  -0.18441
 Alpha virt. eigenvalues --   -0.11081  -0.10758  -0.05285  -0.04631  -0.03609
 Alpha virt. eigenvalues --   -0.03110  -0.01996  -0.01816  -0.01383  -0.00432
 Alpha virt. eigenvalues --    0.00130   0.00179   0.01037   0.01113   0.02076

 Mulliken charges:
               1
     1  Mg  11.999718
     2  C    5.972532
     3  C    5.991121
     4  C    6.031085
     5  C    6.007907
     6  N    6.976382
     7  C    6.025631
     8  C    5.996445
     9  C    6.002141
    10  C    5.988185
    11  C    6.002019
    12  C    5.998640
    13  C    5.994109
    14  H    1.001990
    15  N    7.008201
    16  C    5.968303
    17  C    5.972827
    18  C    5.998124
    19  C    5.954950
    20  C    6.004481
    21  C    5.988110
    22  O    7.984174
    23  C    6.001761
    24  N    7.008536
    25  C    5.960684
    26  C    6.010191
    27  C    5.988576
    28  C    6.031853
    29  C    5.999925
    30  C    5.993538
    31  C    6.001983
    32  N    7.000336
    33  C    6.030576
    34  C    6.023756
    35  C    6.001474
    36  C    6.035700
    37  C    6.001255
    38  C    6.016200
    39  O    8.032275
    40  C    6.007033
    41  C    6.003907
    42  O    8.001079
    43  O    8.002268
    44  C    6.000103
    45  H    0.986700
    46  H    0.994874
    47  H    1.015713
    48  H    0.995136
    49  H    1.000781
    50  H    0.995000
    51  H    0.986091
    52  H    1.002783
    53  H    0.997204
    54  H    1.007785
    55  H    1.009913
    56  H    0.993163
    57  H    0.982592
    58  H    0.985760
    59  H    0.982055
    60  H    0.989719
    61  H    0.989068
    62  H    0.992465
    63  H    0.999513
    64  H    1.006655
    65  H    1.002832
    66  H    1.004888
    67  H    0.991225
    68  H    0.994588
    69  H    1.008893
    70  H    1.004832
    71  H    1.005614
    72  H    0.997485
    73  H    1.014886
    74  H    1.015492
    75  H    1.013016
    76  H    1.005756
    77  H    1.004559
    78  H    1.004047
    79  H    0.998836
    80  Mg  12.000008
    81  C    5.999974
    82  C    5.999989
    83  C    6.000033
    84  C    6.000022
    85  N    6.999997
    86  C    5.999992
    87  C    6.000015
    88  C    5.999979
    89  C    6.000043
    90  C    6.000000
    91  C    5.999999
    92  C    6.000003
    93  H    0.999997
    94  N    7.000008
    95  C    6.000044
    96  C    5.999996
    97  C    6.000042
    98  C    5.999995
    99  C    5.999987
   100  C    6.000031
   101  O    8.000031
   102  C    5.999992
   103  N    6.999995
   104  C    5.999995
   105  C    5.999989
   106  C    6.000009
   107  C    5.999966
   108  C    5.999999
   109  C    6.000003
   110  C    5.999999
   111  N    7.000004
   112  C    5.999963
   113  C    5.999993
   114  C    6.000011
   115  C    5.999993
   116  C    5.999997
   117  C    5.999922
   118  O    7.999955
   119  C    6.000016
   120  C    5.999991
   121  O    8.000000
   122  O    7.999995
   123  C    6.000007
   124  H    1.000024
   125  H    1.000008
   126  H    0.999974
   127  H    0.999995
   128  H    1.000005
   129  H    1.000009
   130  H    1.000009
   131  H    1.000005
   132  H    0.999993
   133  H    0.999997
   134  H    0.999999
   135  H    0.999986
   136  H    1.000020
   137  H    1.000035
   138  H    1.000030
   139  H    1.000013
   140  H    1.000017
   141  H    1.000033
   142  H    1.000002
   143  H    1.000001
   144  H    1.000015
   145  H    1.000008
   146  H    1.000013
   147  H    0.999995
   148  H    0.999993
   149  H    0.999995
   150  H    1.000004
   151  H    0.999995
   152  H    0.999980
   153  H    0.999966
   154  H    0.999962
   155  H    0.999980
   156  H    0.999969
   157  H    0.999991
   158  H    1.000001
 Sum of Mulliken charges = 624.00000

 Dipole moment (field-independent basis, Debye):
    X=              4.2375    Y=              7.2823    Z=              5.4764  Tot=             10.0489
 Quadrupole moment (field-independent basis, Debye-Ang):
   XX=           -247.5882   YY=              1.3811   ZZ=             -5.0857
   XY=           -219.6277   XZ=           -163.0177   YZ=             -2.3219

 Normal termination of Gaussian 16 at Thu Oct 14 00:06:26 2021.
