 Gaussian 16, Revision A.03,
 Gaussian 16:  ES64L-G16RevA.03 25-Dec-2016

 --------------------------------------------------------
 #p PBE1PBE/Def2SVP td=(nstates=5) density=(transition=1)
 --------------------------------------------------------

 --------------------------------
 TDDFT excited states in gaussian
 --------------------------------
 Symbolic Z-matrix:
 Charge =  0 Multiplicity = 1

                         Standard orientation:
 ---------------------------------------------------------------------
 Center     Atomic      Atomic             Coordinates (Angstroms)
 Number     Number       Type             X           Y           Z
 ---------------------------------------------------------------------
      1         12           0       28.856642   -0.175836   -0.095030
      2          6           0       25.572126   -0.319371    0.832988
      3          6           0       28.032567   -2.356677   -2.783424
      4          6           0       31.989133    0.250689   -1.274646
      5          6           0       29.284045    2.605707    1.958621
      6          7           0       26.835418   -0.949627   -1.118128
      7          6           0       25.694726   -1.053105   -0.380000
      8          6           0       24.650969   -1.805932   -1.157670
      9          6           0       25.451721   -2.453588   -2.369645
     10          6           0       26.899809   -1.926054   -2.118769
     11          6           0       25.103494   -3.854201   -2.719708
     12          6           0       23.283055   -1.079806   -1.566245
     13          6           0       23.316620    0.395491   -1.835205
     14          1           0       22.642160    0.881664   -3.110364
     15          7           0       29.913628   -1.129618   -1.641812
     16          6           0       29.437883   -1.981235   -2.590059
     17          6           0       30.457202   -2.384863   -3.512933
     18          6           0       31.680849   -1.705052   -3.003175
     19          6           0       31.225851   -0.812835   -1.914522
     20          6           0       30.349301   -3.284490   -4.650037
     21          6           0       33.120908   -1.854120   -3.472602
     22          8           0       33.373046   -2.464950   -4.449850
     23          6           0       34.331477   -1.201790   -2.864484
     24          7           0       30.335018    1.283847    0.190678
     25          6           0       31.580482    1.109236   -0.276955
     26          6           0       32.507603    2.387357    0.074957
     27          6           0       31.730616    2.885312    1.389411
     28          6           0       30.378231    2.266800    1.126583
     29          6           0       33.989950    2.089767    0.317386
     30          6           0       31.807364    4.410054    1.586669
     31          6           0       32.174785    5.007078    2.950266
     32          7           0       27.649773    1.006545    1.072768
     33          6           0       27.935441    2.087491    1.897526
     34          6           0       26.826622    2.438297    2.696926
     35          6           0       25.856028    1.501707    2.381796
     36          6           0       26.397018    0.628966    1.372358
     37          6           0       26.741473    3.524107    3.724666
     38          6           0       24.579833    0.971555    2.627042
     39          8           0       23.740858    1.391297    3.421532
     40          6           0       24.258796   -0.098497    1.545016
     41          6           0       23.774855   -1.284495    2.366306
     42          8           0       22.699167   -1.886259    2.162470
     43          8           0       24.786400   -1.626413    3.232595
     44          6           0       24.761401   -2.886614    4.014738
     45          1           0       27.690063   -2.921665   -3.652796
     46          1           0       32.915241    0.519384   -1.786838
     47          1           0       29.448516    3.433360    2.651207
     48          1           0       24.242504   -2.587436   -0.515916
     49          1           0       25.174331   -1.875983   -3.250948
     50          1           0       25.972698   -4.501760   -2.834213
     51          1           0       24.416109   -3.909894   -3.563819
     52          1           0       24.567533   -4.309391   -1.886799
     53          1           0       22.493270   -1.154705   -0.818671
     54          1           0       22.945196   -1.462620   -2.529771
     55          1           0       24.284928    0.867624   -1.672529
     56          1           0       22.646089    0.861097   -1.112165
     57          1           0       29.578562   -4.024787   -4.437794
     58          1           0       31.275645   -3.800861   -4.898891
     59          1           0       30.046821   -2.674715   -5.502141
     60          1           0       33.942550   -1.210725   -1.845992
     61          1           0       34.485912   -0.181903   -3.215350
     62          1           0       35.281491   -1.728056   -2.958768
     63          1           0       32.324913    3.110136   -0.720805
     64          1           0       32.012311    2.463668    2.353960
     65          1           0       34.155498    2.167855    1.392255
     66          1           0       34.610290    2.677259   -0.358842
     67          1           0       34.270973    1.070527    0.053964
     68          1           0       30.831586    4.807409    1.305992
     69          1           0       32.459959    4.812618    0.811822
     70          1           0       32.949012    5.773266    2.993400
     71          1           0       32.365390    4.247813    3.709874
     72          1           0       31.209339    5.372586    3.298692
     73          1           0       26.108625    3.292382    4.581690
     74          1           0       26.359036    4.424273    3.242919
     75          1           0       27.702259    3.758151    4.185020
     76          1           0       23.474256    0.380869    0.960787
     77          1           0       25.743841   -3.352331    4.090348
     78          1           0       24.075973   -3.576445    3.522110
     79          1           0       24.415282   -2.893651    5.047544
     80         12           0      -28.804449    0.321928   -0.453007
     81          6           0      -26.161432   -0.310833    1.918467
     82          6           0      -29.933377   -2.930654    0.212995
     83          6           0      -31.286800    0.918340   -2.517497
     84          6           0      -27.335672    3.405487   -1.198316
     85          7           0      -28.049060   -1.429467    0.939438
     86          6           0      -27.122424   -1.373753    1.932158
     87          6           0      -27.223350   -2.563598    2.872652
     88          6           0      -28.225563   -3.590415    2.100419
     89          6           0      -28.754938   -2.619289    1.005881
     90          6           0      -27.564833   -4.901020    1.604490
     91          6           0      -27.720876   -2.163696    4.302731
     92          6           0      -26.753526   -2.572336    5.443749
     93          1           0      -27.383816   -3.670742    6.479478
     94          7           0      -30.345242   -0.808313   -1.042718
     95          6           0      -30.687586   -2.163818   -0.714750
     96          6           0      -31.928054   -2.634182   -1.375444
     97          6           0      -32.319995   -1.469033   -2.112552
     98          6           0      -31.318587   -0.409326   -1.906183
     99          6           0      -32.518652   -4.038815   -1.236977
    100          6           0      -33.464355   -1.307672   -3.039176
    101          8           0      -33.895122   -0.240768   -3.463339
    102          6           0      -34.279278   -2.564264   -3.403300
    103          7           0      -29.312890    1.977514   -1.520978
    104          6           0      -30.387337    1.981046   -2.342611
    105          6           0      -30.417330    3.167942   -3.264948
    106          6           0      -29.192040    4.014628   -2.840923
    107          6           0      -28.576148    3.126336   -1.736527
    108          6           0      -30.500294    2.824747   -4.737520
    109          6           0      -29.670945    5.461629   -2.234371
    110          6           0      -28.998564    6.770699   -2.921764
    111          7           0      -26.952020    1.259352    0.006251
    112          6           0      -26.557249    2.575525   -0.334469
    113          6           0      -25.311729    2.867064    0.384437
    114          6           0      -25.237381    1.825132    1.345964
    115          6           0      -26.161960    0.839339    0.997626
    116          6           0      -24.341080    4.033914    0.229088
    117          6           0      -24.318715    1.278789    2.384392
    118          8           0      -23.220768    1.638408    2.892952
    119          6           0      -24.992290   -0.068447    2.853583
    120          6           0      -23.967130   -1.161561    2.782940
    121          8           0      -23.212125   -1.321557    1.866011
    122          8           0      -23.954927   -1.853509    3.962136
    123          6           0      -22.754985   -2.716684    4.102222
    124          1           0      -30.162273   -3.988934    0.353332
    125          1           0      -32.084336    1.177190   -3.217482
    126          1           0      -26.879596    4.379373   -1.386776
    127          1           0      -26.231596   -3.015543    2.890986
    128          1           0      -29.096144   -3.855065    2.701145
    129          1           0      -27.562490   -4.946728    0.515056
    130          1           0      -28.086684   -5.768322    2.011003
    131          1           0      -26.550035   -5.085366    1.957135
    132          1           0      -28.681011   -2.623093    4.539095
    133          1           0      -27.846938   -1.084814    4.397248
    134          1           0      -26.561439   -1.765530    6.151525
    135          1           0      -25.757855   -2.876279    5.122235
    136          1           0      -32.178702   -4.638956   -0.392368
    137          1           0      -32.447976   -4.667258   -2.124708
    138          1           0      -33.585977   -3.876797   -1.083073
    139          1           0      -33.648158   -3.290619   -3.915279
    140          1           0      -35.165870   -2.327478   -3.992477
    141          1           0      -34.636205   -3.009253   -2.474504
    142          1           0      -31.357390    3.696094   -3.099802
    143          1           0      -28.481956    4.121169   -3.660474
    144          1           0      -31.475137    3.034389   -5.178640
    145          1           0      -30.370618    1.768783   -4.974360
    146          1           0      -29.712303    3.373978   -5.253218
    147          1           0      -29.493661    5.574167   -1.165286
    148          1           0      -30.743692    5.622533   -2.337954
    149          1           0      -28.648923    6.436996   -3.898945
    150          1           0      -28.178578    7.168329   -2.322338
    151          1           0      -29.749853    7.521515   -3.165201
    152          1           0      -23.859422    4.296890    1.170667
    153          1           0      -24.934635    4.919905    0.000681
    154          1           0      -23.737820    3.746482   -0.632172
    155          1           0      -25.205316    0.065723    3.913808
    156          1           0      -22.708755   -3.352866    3.218554
    157          1           0      -23.008251   -3.365129    4.940814
    158          1           0      -21.772248   -2.253146    4.188164
 ---------------------------------------------------------------------

 SCF Done:  E(RPBE1PBE) =  -4067.31774323     A.U. after   16 cycles

 Excitation energies and oscillator strengths:

 Excited State   1:      Singlet-A      1.7944 eV  690.97 nm  f=0.3704  <S**2>=0.000
     309 -> 315        0.16554
     311 -> 313        0.69588
     311 <- 313       -0.11768
 This state for optimization and/or second-order correction.
 Total Energy, E(TD-HF/TD-DFT) =  -4067.25180177
 Copying the excited state density for this state as the 1-particle RhoCI density.

 Excited State   2:      Singlet-A      1.8059 eV  686.56 nm  f=0.0000  <S**2>=0.000
     312 -> 313        0.70711

 Excited State   3:      Singlet-A      1.8271 eV  678.59 nm  f=0.3554  <S**2>=0.000
     310 -> 316       -0.18279
     312 -> 314        0.69143
     312 <- 314       -0.10668

 Excited State   4:      Singlet-A      2.1022 eV  589.78 nm  f=0.0000  <S**2>=0.000
     311 -> 314        0.70711

 Excited State   5:      Singlet-A      2.1728 eV  570.63 nm  f=0.1321  <S**2>=0.000
     310 -> 314        0.65736
     312 -> 316        0.25560

 The electronic state is 1-A.
 Alpha  occ. eigenvalues --  -46.93343 -46.91960 -19.26757 -19.26284 -19.20493
 Alpha  occ. eigenvalues --  -19.19949 -19.19049 -19.19030 -19.18505 -19.17610
 Alpha  occ. eigenvalues --  -14.42106 -14.41947 -14.41583 -14.41498 -14.40300
 Alpha  occ. eigenvalues --  -14.39822 -14.39213 -14.39005 -10.37426 -10.35834
 Alpha  occ. eigenvalues --  -10.32421 -10.32106 -10.31243 -10.30905 -10.29930
 Alpha  occ. eigenvalues --  -10.29647 -10.29441 -10.29193 -10.29136 -10.29083
 Alpha  occ. eigenvalues --  -10.29076 -10.29034 -10.28883 -10.28773 -10.28684
 Alpha  occ. eigenvalues --  -10.28645 -10.28475 -10.28227 -10.28169 -10.28080
 Alpha  occ. eigenvalues --  -10.27933 -10.26865 -10.26852 -10.26839 -10.26790
 Alpha  occ. eigenvalues --  -10.26762 -10.26439 -10.26415 -10.26390 -10.26229
 Alpha  occ. eigenvalues --  -10.26224 -10.26111 -10.25948 -10.25909 -10.25888
 Alpha  occ. eigenvalues --  -10.25801 -10.25790 -10.25770 -10.25668 -10.25604
 Alpha  occ. eigenvalues --  -10.25455 -10.25386 -10.25241 -10.25133 -10.25001
 Alpha  occ. eigenvalues --  -10.24996 -10.24961 -10.24930 -10.24740 -10.24544
 Alpha  occ. eigenvalues --  -10.24390 -10.24297 -10.24037 -10.23991 -10.23905
 Alpha  occ. eigenvalues --  -10.23826 -10.23673 -10.23636 -10.23549 -10.23426
 Alpha  occ. eigenvalues --  -10.23211 -10.23078 -10.22987 -10.22969 -10.22698
 Alpha  occ. eigenvalues --  -10.22615  -3.15394  -3.14179  -1.88191  -1.87805
 Alpha  occ. eigenvalues --   -1.87592  -1.87018  -1.86553  -1.86424  -1.11716
 Alpha  occ. eigenvalues --   -1.10316  -1.06376  -1.04558  -1.03899  -1.03500
 Alpha  occ. eigenvalues --   -1.01971  -1.01885  -0.99744  -0.98931  -0.98651
 Alpha  occ. eigenvalues --   -0.97846  -0.97623  -0.97244  -0.96904  -0.96621
 Alpha  occ. eigenvalues --   -0.87927  -0.85938  -0.84103  -0.82997  -0.82891
 Alpha  occ. eigenvalues --   -0.82761  -0.82733  -0.82324  -0.82171  -0.81707
 Alpha  occ. eigenvalues --   -0.81570  -0.81233  -0.80351  -0.80075  -0.78862
 Alpha  occ. eigenvalues --   -0.78236  -0.78219  -0.77476  -0.77373  -0.76418
 Alpha  occ. eigenvalues --   -0.76070  -0.75486  -0.75306  -0.74998  -0.74867
 Alpha  occ. eigenvalues --   -0.73967  -0.73254  -0.72788  -0.72110  -0.71468
 Alpha  occ. eigenvalues --   -0.71379  -0.71104  -0.70949  -0.70318  -0.69866
 Alpha  occ. eigenvalues --   -0.69582  -0.68059  -0.67033  -0.66207  -0.65844
 Alpha  occ. eigenvalues --   -0.64365  -0.63822  -0.63483  -0.63153  -0.62712
 Alpha  occ. eigenvalues --   -0.61959  -0.61512  -0.61164  -0.60655  -0.60371
 Alpha  occ. eigenvalues --   -0.60086  -0.60013  -0.59230  -0.58987  -0.58830
 Alpha  occ. eigenvalues --   -0.58555  -0.58103  -0.56944  -0.55279  -0.54835
 Alpha  occ. eigenvalues --   -0.53999  -0.53857  -0.53514  -0.53314  -0.52948
 Alpha  occ. eigenvalues --   -0.52617  -0.52468  -0.51977  -0.51834  -0.51727
 Alpha  occ. eigenvalues --   -0.51135  -0.50687  -0.50360  -0.49869  -0.49865
 Alpha  occ. eigenvalues --   -0.49645  -0.49471  -0.49061  -0.48970  -0.48495
 Alpha  occ. eigenvalues --   -0.48388  -0.47956  -0.47949  -0.47722  -0.47271
 Alpha  occ. eigenvalues --   -0.47063  -0.46893  -0.46653  -0.46481  -0.46385
 Alpha  occ. eigenvalues --   -0.46372  -0.46271  -0.46042  -0.45995  -0.45992
 Alpha  occ. eigenvalues --   -0.45652  -0.45452  -0.45366  -0.45170  -0.45080
 Alpha  occ. eigenvalues --   -0.44697  -0.44626  -0.44530  -0.44354  -0.44310
 Alpha  occ. eigenvalues --   -0.44133  -0.43897  -0.43834  -0.43718  -0.43630
 Alpha  occ. eigenvalues --   -0.43269  -0.42946  -0.42945  -0.42792  -0.42633
 Alpha  occ. eigenvalues --   -0.42477  -0.42312  -0.42263  -0.42062  -0.41999
 Alpha  occ. eigenvalues --   -0.41923  -0.41828  -0.41693  -0.41666  -0.41572
 Alpha  occ. eigenvalues --   -0.41207  -0.41176  -0.40922  -0.40922  -0.40718
 Alpha  occ. eigenvalues --   -0.40324  -0.40283  -0.40139  -0.40131  -0.39750
 Alpha  occ. eigenvalues --   -0.39734  -0.39638  -0.39555  -0.39508  -0.39238
 Alpha  occ. eigenvalues --   -0.38968  -0.38892  -0.38790  -0.38741  -0.38453
 Alpha  occ. eigenvalues --   -0.38321  -0.38097  -0.37946  -0.37686  -0.37502
 Alpha  occ. eigenvalues --   -0.37459  -0.37444  -0.37093  -0.37089  -0.36890
 Alpha  occ. eigenvalues --   -0.36762  -0.36757  -0.36535  -0.36404  -0.36388
 Alpha  occ. eigenvalues --   -0.36195  -0.36141  -0.35675  -0.35589  -0.35468
 Alpha  occ. eigenvalues --   -0.35359  -0.35130  -0.35120  -0.34458  -0.33931
 Alpha  occ. eigenvalues --   -0.33670  -0.33559  -0.33240  -0.33043  -0.32504
 Alpha  occ. eigenvalues --   -0.32319  -0.32241  -0.31822  -0.31444  -0.31137
 Alpha  occ. eigenvalues --   -0.30657  -0.30635  -0.29801  -0.29746  -0.29356
 Alpha  occ. eigenvalues --   -0.28971  -0.28576  -0.28576  -0.27148  -0.27129
 Alpha  occ. eigenvalues --   -0.26321  -0.25989  -0.25685  -0.25559  -0.25261
 Alpha  occ. eigenvalues --   -0.25005  -0.24935  -0.23736  -0.21403  -0.20837
 Alpha  occ. eigenvalues --   -0.19348  -0.18914
 Alpha virt. eigenvalues --   -0.12045  -0.11391  -0.05474  -0.05309  -0.04064
 Alpha virt. eigenvalues --   -0.03878  -0.02369  -0.01880  -0.01782  -0.00038
 Alpha virt. eigenvalues --    0.00003   0.00623   0.00706   0.01018   0.01295

 Mulliken charges:
               1
     1  Mg  12.002477
     2  C    6.000951
     3  C    5.985827
     4  C    5.982842
     5  C    6.012754
     6  N    6.995188
     7  C    5.975080
     8  C    6.009444
     9  C    5.986658
    10  C    6.035080
    11  C    5.998722
    12  C    6.000496
    13  C    6.002696
    14  H    0.989878
    15  N    6.996182
    16  C    6.042158
    17  C    6.023159
    18  C    6.006573
    19  C    6.040098
    20  C    5.996291
    21  C    6.010210
    22  O    8.019100
    23  C    6.000883
    24  N    7.002594
    25  C    6.029128
    26  C    5.990454
    27  C    6.011081
    28  C    5.965135
    29  C    5.999632
    30  C    6.002078
    31  C    5.998691
    32  N    7.000552
    33  C    5.968131
    34  C    5.976011
    35  C    5.993131
    36  C    5.975961
    37  C    6.002156
    38  C    5.983193
    39  O    7.965872
    40  C    6.001892
    41  C    5.994200
    42  O    7.988890
    43  O    8.005074
    44  C    6.004802
    45  H    1.008923
    46  H    1.006462
    47  H    0.991906
    48  H    1.001989
    49  H    1.005643
    50  H    0.994856
    51  H    1.003956
    52  H    1.008910
    53  H    1.003116
    54  H    0.991138
    55  H    1.004002
    56  H    1.003865
    57  H    1.017704
    58  H    1.014791
    59  H    1.021072
    60  H    1.004500
    61  H    1.011368
    62  H    1.012206
    63  H    1.003757
    64  H    0.996840
    65  H    1.007437
    66  H    1.000908
    67  H    0.993553
    68  H    1.002777
    69  H    0.990595
    70  H    0.995490
    71  H    0.999047
    72  H    1.004782
    73  H    0.987298
    74  H    0.982620
    75  H    0.982860
    76  H    0.991934
    77  H    0.993016
    78  H    0.993340
    79  H    0.995934
    80  Mg  12.000024
    81  C    5.999810
    82  C    5.999919
    83  C    6.000227
    84  C    6.000072
    85  N    6.999894
    86  C    6.000265
    87  C    5.999939
    88  C    6.000063
    89  C    5.999857
    90  C    6.000034
    91  C    5.999998
    92  C    5.999973
    93  H    1.000042
    94  N    6.999987
    95  C    5.999870
    96  C    5.999748
    97  C    6.000020
    98  C    5.999742
    99  C    6.000055
   100  C    5.999888
   101  O    7.999786
   102  C    6.000035
   103  N    7.000046
   104  C    5.999744
   105  C    6.000069
   106  C    5.999944
   107  C    6.000113
   108  C    6.000010
   109  C    5.999958
   110  C    5.999988
   111  N    7.000019
   112  C    6.000176
   113  C    6.000247
   114  C    6.000038
   115  C    6.000168
   116  C    5.999983
   117  C    6.000111
   118  O    8.000228
   119  C    6.000032
   120  C    6.000042
   121  O    8.000009
   122  O    8.000008
   123  C    5.999982
   124  H    0.999919
   125  H    0.999956
   126  H    1.000076
   127  H    0.999992
   128  H    0.999990
   129  H    0.999993
   130  H    0.999963
   131  H    0.999922
   132  H    1.000043
   133  H    0.999968
   134  H    0.999997
   135  H    1.000001
   136  H    0.999892
   137  H    0.999851
   138  H    0.999880
   139  H    0.999934
   140  H    0.999879
   141  H    0.999956
   142  H    1.000002
   143  H    1.000024
   144  H    1.000000
   145  H    1.000030
   146  H    0.999938
   147  H    1.000007
   148  H    1.000066
   149  H    1.000019
   150  H    1.000004
   151  H    1.000033
   152  H    1.000123
   153  H    1.000110
   154  H    1.000126
   155  H    1.000049
   156  H    1.000024
   157  H    1.000035
   158  H    1.000036
 Sum of Mulliken charges = 624.00000

 Dipole moment (field-independent basis, Debye):
    X=              6.0690    Y=             -4.6281    Z=             -7.1148  Tot=             10.4342
 Quadrupole moment (field-independent basis, Debye-Ang):
   XX=            338.9858   YY=             -0.6546   ZZ=              4.8404
   XY=           -137.4233   XZ=           -206.3084   YZ=              3.7703

 Normal termination of Gaussian 16 at Thu Oct 14 06:26:31 2021.
