 Gaussian 16, Revision A.03,
 Gaussian 16:  ES64L-G16RevA.03 25-Dec-2016

 --------------------------------------------------------
 #p PBE1PBE/Def2SVP td=(nstates=5) density=(transition=1)
 --------------------------------------------------------

 --------------------------------
 TDDFT excited states in gaussian
 --------------------------------
 Symbolic Z-matrix:
 Charge =  0 Multiplicity = 1

                         Standard orientation:
 ---------------------------------------------------------------------
 Center     Atomic      Atomic             Coordinates (Angstroms)
 Number     Number       Type             X           Y           Z
 ---------------------------------------------------------------------
      1         12           0       17.937490   -0.660478    0.005107
      2          6           0       15.984587    2.106406    0.553107
      3          6           0       20.714782    1.342604    0.183262
      4          6           0       19.921632   -3.426149   -0.660024
      5          6           0       15.095110   -2.550000   -0.603946
      6          7           0       18.339450    1.529254    0.285230
      7          6           0       17.345042    2.418218    0.579034
      8          6           0       17.886132    3.741849    0.830023
      9          6           0       19.372441    3.637005    0.526849
     10          6           0       19.531879    2.074040    0.274879
     11          6           0       19.966110    4.495054   -0.643300
     12          6           0       17.569426    4.231432    2.284167
     13          6           0       17.347079    5.770259    2.485523
     14          1           0       18.072125    6.719970    1.511874
     15          7           0       20.050628   -0.983865   -0.089966
     16          6           0       21.016390    0.000338    0.032785
     17          6           0       22.349492   -0.618075   -0.115161
     18          6           0       22.131903   -2.042157   -0.361003
     19          6           0       20.669090   -2.217324   -0.356782
     20          6           0       23.665625    0.140126   -0.058209
     21          6           0       23.175519   -3.130321   -0.458860
     22          8           0       22.806477   -4.310383   -0.591915
     23          6           0       24.640453   -2.900555   -0.443628
     24          7           0       17.580024   -2.686128   -0.630088
     25          6           0       18.547149   -3.597543   -0.768456
     26          6           0       17.949944   -4.995149   -1.002478
     27          6           0       16.357597   -4.806207   -0.738921
     28          6           0       16.351361   -3.246421   -0.566299
     29          6           0       18.318898   -5.541575   -2.416077
     30          6           0       15.803021   -5.503553    0.533464
     31          6           0       14.850233   -6.682451    0.284907
     32          7           0       15.917428   -0.324803   -0.099507
     33          6           0       14.855399   -1.189180   -0.375145
     34          6           0       13.570529   -0.459616   -0.293983
     35          6           0       14.015643    0.837835    0.052882
     36          6           0       15.432710    0.867816    0.148087
     37          6           0       12.226944   -0.976157   -0.459723
     38          6           0       13.537857    2.176732    0.455652
     39          8           0       12.429839    2.613334    0.621234
     40          6           0       14.807236    3.052635    0.750861
     41          6           0       14.725022    4.278307   -0.059533
     42          8           0       14.894781    4.229411   -1.288484
     43          8           0       14.595407    5.430161    0.654328
     44          6           0       14.709953    6.705598   -0.045883
     45          1           0       21.578548    2.007692    0.246786
     46          1           0       20.562016   -4.276709   -0.903735
     47          1           0       14.228799   -3.210663   -0.676631
     48          1           0       17.424665    4.430709    0.121638
     49          1           0       19.971648    3.769462    1.428437
     50          1           0       19.349931    5.183303   -1.222776
     51          1           0       20.430848    3.812538   -1.354420
     52          1           0       20.827519    5.094729   -0.348215
     53          1           0       18.323662    3.847864    2.971371
     54          1           0       16.733659    3.651049    2.674549
     55          1           0       17.627299    6.057871    3.499256
     56          1           0       16.317144    6.077177    2.305909
     57          1           0       23.551004    1.182998    0.235381
     58          1           0       24.143981    0.169844   -1.037589
     59          1           0       24.275562   -0.232024    0.764750
     60          1           0       25.104426   -3.886409   -0.440419
     61          1           0       24.982021   -2.321073    0.415060
     62          1           0       24.917843   -2.273663   -1.291245
     63          1           0       18.295083   -5.625613   -0.182927
     64          1           0       15.756612   -5.062671   -1.611286
     65          1           0       18.717019   -6.556218   -2.399421
     66          1           0       19.077869   -4.916598   -2.887469
     67          1           0       17.393365   -5.444516   -2.984086
     68          1           0       15.265215   -4.826363    1.195947
     69          1           0       16.602756   -5.886946    1.167510
     70          1           0       15.089755   -7.146512   -0.671916
     71          1           0       13.836248   -6.287636    0.229546
     72          1           0       14.909934   -7.320454    1.165698
     73          1           0       11.468325   -0.328809   -0.020350
     74          1           0       12.094351   -1.974513   -0.043284
     75          1           0       11.970836   -0.892618   -1.516010
     76          1           0       14.689008    3.229615    1.820419
     77          1           0       13.908165    6.899442   -0.758909
     78          1           0       15.697868    6.818791   -0.492227
     79          1           0       14.616094    7.521618    0.670468
     80         12           0      -17.863755   -0.780852    0.071177
     81          6           0      -17.340179    2.756931   -0.556475
     82          6           0      -16.871939   -0.125792    3.225870
     83          6           0      -18.273214   -3.906646    0.585508
     84          6           0      -18.541457   -1.212840   -3.377153
     85          7           0      -17.186952    1.220429    1.228915
     86          6           0      -17.154738    2.489168    0.786065
     87          6           0      -16.880908    3.454728    1.954947
     88          6           0      -16.298658    2.374875    2.981315
     89          6           0      -16.856998    1.103394    2.496387
     90          6           0      -14.828551    2.455804    3.357084
     91          6           0      -18.200266    4.141249    2.348523
     92          6           0      -17.983126    5.526132    3.026449
     93          1           0      -16.577332    6.286814    3.030878
     94          7           0      -17.653454   -1.914000    1.725997
     95          6           0      -17.145354   -1.502755    2.943310
     96          6           0      -17.059000   -2.672815    3.811834
     97          6           0      -17.541585   -3.781571    3.073607
     98          6           0      -17.838314   -3.205766    1.731334
     99          6           0      -16.551655   -2.646281    5.184731
    100          6           0      -17.771332   -5.315705    3.531547
    101          8           0      -18.354408   -6.099060    2.833135
    102          6           0      -17.531562   -5.765952    4.983799
    103          7           0      -18.078326   -2.368431   -1.293353
    104          6           0      -18.381016   -3.558213   -0.780235
    105          6           0      -18.811981   -4.581758   -1.796058
    106          6           0      -19.265245   -3.625964   -2.926585
    107          6           0      -18.430307   -2.352086   -2.556080
    108          6           0      -17.643494   -5.560002   -2.281650
    109          6           0      -20.827429   -3.379894   -3.050283
    110          6           0      -21.825338   -4.492974   -2.616978
    111          7           0      -17.831295    0.429652   -1.645367
    112          6           0      -18.172514    0.178426   -2.933470
    113          6           0      -18.227938    1.344457   -3.692687
    114          6           0      -17.864328    2.326896   -2.816519
    115          6           0      -17.645093    1.772605   -1.570904
    116          6           0      -18.671645    1.448315   -5.149293
    117          6           0      -17.678196    3.784464   -2.756640
    118          8           0      -17.609216    4.652371   -3.613973
    119          6           0      -17.404001    4.092086   -1.219988
    120          6           0      -16.194456    4.892708   -1.145246
    121          8           0      -15.030430    4.491637   -1.243735
    122          8           0      -16.575740    6.185303   -1.213397
    123          6           0      -15.472613    7.074986   -1.529083
    124          1           0      -16.379917    0.057835    4.183368
    125          1           0      -18.364433   -4.975144    0.788811
    126          1           0      -18.850461   -1.381827   -4.410618
    127          1           0      -16.071032    4.146480    1.722912
    128          1           0      -16.793974    2.577757    3.929861
    129          1           0      -14.686684    2.736135    4.400384
    130          1           0      -14.317774    3.181759    2.724754
    131          1           0      -14.271160    1.537389    3.172743
    132          1           0      -18.662228    3.530978    3.124899
    133          1           0      -18.925434    4.208659    1.537753
    134          1           0      -18.380951    5.545344    4.041584
    135          1           0      -18.774400    6.120198    2.569418
    136          1           0      -16.638756   -1.654985    5.629026
    137          1           0      -15.508856   -2.954249    5.106494
    138          1           0      -17.076080   -3.316848    5.865834
    139          1           0      -18.213997   -5.313849    5.703473
    140          1           0      -16.463785   -5.613198    5.142229
    141          1           0      -17.617973   -6.850626    5.053088
    142          1           0      -19.583270   -5.137729   -1.263573
    143          1           0      -18.945060   -3.951994   -3.915874
    144          1           0      -18.139345   -6.529302   -2.235109
    145          1           0      -16.767111   -5.572447   -1.632704
    146          1           0      -17.297570   -5.414134   -3.304248
    147          1           0      -21.049488   -3.069466   -4.070287
    148          1           0      -20.964044   -2.600834   -2.300068
    149          1           0      -22.037574   -4.418457   -1.550715
    150          1           0      -21.339775   -5.408585   -2.956396
    151          1           0      -22.759699   -4.448884   -3.175485
    152          1           0      -19.381850    0.630873   -5.276018
    153          1           0      -17.866613    1.258659   -5.858661
    154          1           0      -19.133239    2.424635   -5.295950
    155          1           0      -18.267780    4.653338   -0.861427
    156          1           0      -15.769378    8.120290   -1.610056
    157          1           0      -14.808149    6.762614   -2.334865
    158          1           0      -14.773574    7.122948   -0.693420
 ---------------------------------------------------------------------

 SCF Done:  E(RPBE1PBE) =  -4067.39034317     A.U. after   16 cycles

 Excitation energies and oscillator strengths:

 Excited State   1:      Singlet-A      1.8897 eV  656.09 nm  f=0.3744  <S**2>=0.000
     309 -> 315       -0.18009
     312 -> 313        0.68959
     312 <- 313       -0.10436
 This state for optimization and/or second-order correction.
 Total Energy, E(TD-HF/TD-DFT) =  -4067.32089657
 Copying the excited state density for this state as the 1-particle RhoCI density.

 Excited State   2:      Singlet-A      1.9474 eV  636.66 nm  f=0.3552  <S**2>=0.000
     310 -> 316        0.18520
     311 -> 314        0.68731

 Excited State   3:      Singlet-A      2.0067 eV  617.85 nm  f=0.0000  <S**2>=0.000
     312 -> 314        0.70711

 Excited State   4:      Singlet-A      2.0986 eV  590.81 nm  f=0.0000  <S**2>=0.000
     311 -> 313        0.70710

 Excited State   5:      Singlet-A      2.2406 eV  553.36 nm  f=0.1479  <S**2>=0.000
     310 -> 314        0.66531
     311 -> 316       -0.23006

 The electronic state is 1-A.
 Alpha  occ. eigenvalues --  -46.92726 -46.92267 -19.26563 -19.25534 -19.20477
 Alpha  occ. eigenvalues --  -19.19510 -19.19283 -19.19246 -19.18999 -19.18552
 Alpha  occ. eigenvalues --  -14.41303 -14.41209 -14.40747 -14.40710 -14.39407
 Alpha  occ. eigenvalues --  -14.39171 -14.38884 -14.38443 -10.36536 -10.35190
 Alpha  occ. eigenvalues --  -10.33916 -10.32153 -10.32040 -10.32008 -10.29513
 Alpha  occ. eigenvalues --  -10.28729 -10.28558 -10.28314 -10.28313 -10.28205
 Alpha  occ. eigenvalues --  -10.28110 -10.28089 -10.28007 -10.27814 -10.27751
 Alpha  occ. eigenvalues --  -10.27693 -10.27661 -10.27512 -10.27469 -10.26805
 Alpha  occ. eigenvalues --  -10.26795 -10.26709 -10.26637 -10.26487 -10.26363
 Alpha  occ. eigenvalues --  -10.26065 -10.26052 -10.25897 -10.25788 -10.25771
 Alpha  occ. eigenvalues --  -10.25710 -10.25628 -10.25593 -10.25257 -10.25237
 Alpha  occ. eigenvalues --  -10.25209 -10.25204 -10.25164 -10.25146 -10.25144
 Alpha  occ. eigenvalues --  -10.25093 -10.25072 -10.24980 -10.24790 -10.24764
 Alpha  occ. eigenvalues --  -10.24611 -10.24410 -10.24401 -10.24215 -10.24106
 Alpha  occ. eigenvalues --  -10.23891 -10.23684 -10.23657 -10.23555 -10.23523
 Alpha  occ. eigenvalues --  -10.23481 -10.23435 -10.23423 -10.23329 -10.23084
 Alpha  occ. eigenvalues --  -10.23004 -10.23001 -10.22997 -10.22877 -10.22789
 Alpha  occ. eigenvalues --  -10.21708  -3.14809  -3.14274  -1.87651  -1.87201
 Alpha  occ. eigenvalues --   -1.87136  -1.87017  -1.86631  -1.86503  -1.11264
 Alpha  occ. eigenvalues --   -1.11173  -1.07134  -1.05696  -1.04373  -1.03586
 Alpha  occ. eigenvalues --   -1.01889  -1.01428  -1.00414  -0.99733  -0.99728
 Alpha  occ. eigenvalues --   -0.99131  -0.98706  -0.98346  -0.98045  -0.95585
 Alpha  occ. eigenvalues --   -0.86824  -0.86770  -0.83408  -0.83192  -0.82932
 Alpha  occ. eigenvalues --   -0.82568  -0.82384  -0.82004  -0.81696  -0.81498
 Alpha  occ. eigenvalues --   -0.81219  -0.81063  -0.80448  -0.80144  -0.78560
 Alpha  occ. eigenvalues --   -0.78237  -0.77821  -0.77437  -0.76597  -0.76569
 Alpha  occ. eigenvalues --   -0.75987  -0.75873  -0.75505  -0.75051  -0.74888
 Alpha  occ. eigenvalues --   -0.74428  -0.72744  -0.72658  -0.71842  -0.71602
 Alpha  occ. eigenvalues --   -0.71118  -0.70951  -0.70534  -0.70079  -0.69560
 Alpha  occ. eigenvalues --   -0.69232  -0.67281  -0.67052  -0.66031  -0.65969
 Alpha  occ. eigenvalues --   -0.63942  -0.63539  -0.63129  -0.62733  -0.62456
 Alpha  occ. eigenvalues --   -0.62163  -0.61351  -0.61043  -0.60249  -0.59889
 Alpha  occ. eigenvalues --   -0.59840  -0.59595  -0.59506  -0.59105  -0.58871
 Alpha  occ. eigenvalues --   -0.58225  -0.57301  -0.56409  -0.55155  -0.54382
 Alpha  occ. eigenvalues --   -0.54102  -0.53971  -0.53808  -0.53765  -0.53206
 Alpha  occ. eigenvalues --   -0.52936  -0.52894  -0.52480  -0.52099  -0.51854
 Alpha  occ. eigenvalues --   -0.50973  -0.50676  -0.50304  -0.49985  -0.49904
 Alpha  occ. eigenvalues --   -0.49778  -0.49256  -0.49113  -0.48519  -0.48508
 Alpha  occ. eigenvalues --   -0.48184  -0.48050  -0.48005  -0.47600  -0.47530
 Alpha  occ. eigenvalues --   -0.47352  -0.47209  -0.46924  -0.46794  -0.46596
 Alpha  occ. eigenvalues --   -0.46240  -0.46102  -0.46046  -0.45903  -0.45805
 Alpha  occ. eigenvalues --   -0.45719  -0.45718  -0.45217  -0.44968  -0.44854
 Alpha  occ. eigenvalues --   -0.44718  -0.44508  -0.44405  -0.44247  -0.43913
 Alpha  occ. eigenvalues --   -0.43540  -0.43533  -0.43420  -0.43310  -0.43272
 Alpha  occ. eigenvalues --   -0.43132  -0.43039  -0.42846  -0.42752  -0.42621
 Alpha  occ. eigenvalues --   -0.42579  -0.42194  -0.42107  -0.42054  -0.41846
 Alpha  occ. eigenvalues --   -0.41759  -0.41700  -0.41422  -0.41345  -0.40943
 Alpha  occ. eigenvalues --   -0.40752  -0.40639  -0.40538  -0.40442  -0.40259
 Alpha  occ. eigenvalues --   -0.40245  -0.39902  -0.39805  -0.39730  -0.39403
 Alpha  occ. eigenvalues --   -0.39307  -0.39123  -0.39092  -0.38935  -0.38795
 Alpha  occ. eigenvalues --   -0.38639  -0.38586  -0.38412  -0.38385  -0.38305
 Alpha  occ. eigenvalues --   -0.38040  -0.37977  -0.37971  -0.37817  -0.37798
 Alpha  occ. eigenvalues --   -0.37533  -0.37507  -0.37367  -0.37123  -0.37028
 Alpha  occ. eigenvalues --   -0.36963  -0.36588  -0.36335  -0.36259  -0.36138
 Alpha  occ. eigenvalues --   -0.35971  -0.35748  -0.35532  -0.35320  -0.35257
 Alpha  occ. eigenvalues --   -0.34848  -0.34607  -0.34503  -0.34187  -0.33579
 Alpha  occ. eigenvalues --   -0.33147  -0.33144  -0.32960  -0.32465  -0.32404
 Alpha  occ. eigenvalues --   -0.32179  -0.31712  -0.31645  -0.31642  -0.31065
 Alpha  occ. eigenvalues --   -0.30822  -0.30669  -0.29389  -0.29247  -0.28903
 Alpha  occ. eigenvalues --   -0.28634  -0.28479  -0.27952  -0.26925  -0.26679
 Alpha  occ. eigenvalues --   -0.26545  -0.26128  -0.25784  -0.25660  -0.25533
 Alpha  occ. eigenvalues --   -0.25496  -0.25259  -0.25112  -0.20799  -0.20313
 Alpha  occ. eigenvalues --   -0.18851  -0.18485
 Alpha virt. eigenvalues --   -0.10768  -0.10738  -0.05198  -0.04611  -0.03634
 Alpha virt. eigenvalues --   -0.03589  -0.01807  -0.01796  -0.00411  -0.00217
 Alpha virt. eigenvalues --    0.00152   0.00359   0.01136   0.01332   0.01957

 Mulliken charges:
               1
     1  Mg  12.000561
     2  C    6.025541
     3  C    5.999223
     4  C    5.970599
     5  C    5.996349
     6  N    7.011295
     7  C    5.968476
     8  C    6.011970
     9  C    5.996439
    10  C    6.026879
    11  C    5.999353
    12  C    6.003854
    13  C    6.000843
    14  H    0.993485
    15  N    6.993328
    16  C    6.032320
    17  C    6.026141
    18  C    6.011793
    19  C    6.033816
    20  C    5.996579
    21  C    6.010495
    22  O    8.029232
    23  C    5.996360
    24  N    6.986087
    25  C    6.035173
    26  C    5.990744
    27  C    6.010401
    28  C    5.971562
    29  C    5.997316
    30  C    6.006910
    31  C    5.998945
    32  N    7.004603
    33  C    5.969194
    34  C    5.970582
    35  C    6.000342
    36  C    5.968648
    37  C    6.003646
    38  C    5.981687
    39  O    7.973256
    40  C    5.995705
    41  C    5.998293
    42  O    7.996621
    43  O    7.998607
    44  C    6.002354
    45  H    1.012538
    46  H    1.001891
    47  H    0.986126
    48  H    0.999444
    49  H    0.999582
    50  H    1.012049
    51  H    0.996057
    52  H    1.002927
    53  H    0.990941
    54  H    1.005706
    55  H    0.997913
    56  H    1.004223
    57  H    1.015915
    58  H    1.018760
    59  H    1.017573
    60  H    1.013156
    61  H    1.005645
    62  H    1.006358
    63  H    0.998147
    64  H    0.998367
    65  H    1.000212
    66  H    0.993491
    67  H    1.009371
    68  H    1.002707
    69  H    0.987705
    70  H    0.994591
    71  H    1.002960
    72  H    0.994810
    73  H    0.985380
    74  H    0.984537
    75  H    0.980346
    76  H    0.995086
    77  H    0.999218
    78  H    0.994218
    79  H    0.996446
    80  Mg  12.000026
    81  C    6.000194
    82  C    6.000043
    83  C    5.999817
    84  C    5.999871
    85  N    6.999972
    86  C    5.999940
    87  C    6.000027
    88  C    5.999995
    89  C    6.000088
    90  C    5.999939
    91  C    6.000017
    92  C    5.999996
    93  H    1.000117
    94  N    6.999951
    95  C    6.000105
    96  C    6.000071
    97  C    5.999998
    98  C    6.000158
    99  C    5.999976
   100  C    6.000021
   101  O    8.000006
   102  C    5.999962
   103  N    7.000005
   104  C    6.000100
   105  C    5.999958
   106  C    5.999984
   107  C    6.000037
   108  C    6.000033
   109  C    6.000046
   110  C    5.999986
   111  N    6.999963
   112  C    6.000040
   113  C    5.999869
   114  C    6.000117
   115  C    5.999868
   116  C    6.000025
   117  C    5.999942
   118  O    7.999952
   119  C    5.999964
   120  C    5.999969
   121  O    8.000133
   122  O    7.999960
   123  C    5.999958
   124  H    1.000082
   125  H    0.999974
   126  H    0.999954
   127  H    1.000070
   128  H    0.999957
   129  H    1.000028
   130  H    1.000130
   131  H    1.000117
   132  H    0.999921
   133  H    0.999959
   134  H    0.999937
   135  H    0.999926
   136  H    1.000009
   137  H    1.000160
   138  H    0.999975
   139  H    0.999946
   140  H    1.000108
   141  H    0.999984
   142  H    0.999926
   143  H    0.999991
   144  H    0.999929
   145  H    1.000083
   146  H    1.000044
   147  H    0.999959
   148  H    0.999982
   149  H    0.999962
   150  H    0.999989
   151  H    0.999900
   152  H    0.999896
   153  H    0.999997
   154  H    0.999906
   155  H    0.999921
   156  H    0.999928
   157  H    1.000079
   158  H    1.000071
 Sum of Mulliken charges = 624.00000

 Dipole moment (field-independent basis, Debye):
    X=             10.2095    Y=             -0.4831    Z=             -0.1090  Tot=             10.2215
 Quadrupole moment (field-independent basis, Debye-Ang):
   XX=            368.1217   YY=             -2.7121   ZZ=             -0.2899
   XY=            -15.1825   XZ=             -4.7207   YZ=             -0.1707

 Normal termination of Gaussian 16 at Fri Oct 15 02:27:13 2021.
