 Gaussian 16, Revision A.03,
 Gaussian 16:  ES64L-G16RevA.03 25-Dec-2016

 --------------------------------------------------------
 #p PBE1PBE/Def2SVP td=(nstates=5) density=(transition=1)
 --------------------------------------------------------

 --------------------------------
 TDDFT excited states in gaussian
 --------------------------------
 Symbolic Z-matrix:
 Charge =  0 Multiplicity = 1

                         Standard orientation:
 ---------------------------------------------------------------------
 Center     Atomic      Atomic             Coordinates (Angstroms)
 Number     Number       Type             X           Y           Z
 ---------------------------------------------------------------------
      1         12           0       -9.548173   -0.805353    0.621438
      2          6           0       -9.650140    2.528473   -0.245301
      3          6           0       -7.577607    0.084096    3.273380
      4          6           0       -9.201332   -4.092630    1.312760
      5          6           0      -11.049072   -1.640541   -2.401622
      6          7           0       -8.619205    1.156098    1.292741
      7          6           0       -8.947053    2.337593    0.934849
      8          6           0       -8.326060    3.552456    1.799057
      9          6           0       -7.407818    2.693060    2.755029
     10          6           0       -7.806999    1.184115    2.394462
     11          6           0       -5.817458    2.855778    2.507309
     12          6           0       -9.385404    4.457697    2.564979
     13          6           0       -9.033693    5.972795    2.778037
     14          1           0       -7.625285    6.384909    2.472793
     15          7           0       -8.626053   -1.837229    2.086233
     16          6           0       -7.887725   -1.286360    3.206317
     17          6           0       -7.486283   -2.402902    4.055707
     18          6           0       -7.851370   -3.627797    3.443501
     19          6           0       -8.629629   -3.221496    2.251506
     20          6           0       -6.824650   -2.067190    5.343645
     21          6           0       -7.658127   -5.092536    3.901170
     22          8           0       -7.918220   -6.065017    3.257082
     23          6           0       -6.904639   -5.261464    5.236007
     24          7           0       -9.939729   -2.670313   -0.412969
     25          6           0       -9.723608   -3.864746    0.039684
     26          6           0       -9.960773   -4.946231   -1.052277
     27          6           0      -10.657373   -4.170548   -2.195908
     28          6           0      -10.577204   -2.722067   -1.659030
     29          6           0       -8.633687   -5.617033   -1.466235
     30          6           0      -12.097031   -4.696170   -2.484487
     31          6           0      -12.161221   -6.072560   -3.166108
     32          7           0      -10.237780    0.211113   -1.036247
     33          6           0      -10.916981   -0.271749   -2.140680
     34          6           0      -11.301381    0.876037   -2.919299
     35          6           0      -10.806813    2.046705   -2.270107
     36          6           0      -10.197755    1.520926   -1.098186
     37          6           0      -11.991701    0.825477   -4.155565
     38          6           0      -10.737759    3.472941   -2.239974
     39          8           0      -11.122883    4.298910   -3.120334
     40          6           0       -9.871181    3.815737   -0.966646
     41          6           0       -8.697569    4.529289   -1.423005
     42          8           0       -7.689149    3.990325   -1.878370
     43          8           0       -9.000464    5.866734   -1.391096
     44          6           0       -7.992152    6.705847   -2.072504
     45          1           0       -6.926389    0.334341    4.112922
     46          1           0       -9.070367   -5.134791    1.613694
     47          1           0      -11.580130   -1.952412   -3.303892
     48          1           0       -7.713126    4.089340    1.074613
     49          1           0       -7.590556    2.965928    3.794190
     50          1           0       -5.673762    3.259523    1.504688
     51          1           0       -5.332445    1.883037    2.587297
     52          1           0       -5.282724    3.501423    3.204710
     53          1           0       -9.452752    3.992232    3.547934
     54          1           0      -10.430130    4.325237    2.281632
     55          1           0       -9.239276    6.334232    3.785536
     56          1           0       -9.616495    6.572568    2.078895
     57          1           0       -5.754437   -1.917362    5.198326
     58          1           0       -7.098827   -2.744083    6.152930
     59          1           0       -7.248932   -1.120053    5.675990
     60          1           0       -7.489059   -5.013673    6.122645
     61          1           0       -6.058558   -4.591066    5.088378
     62          1           0       -6.462612   -6.241821    5.411296
     63          1           0      -10.655555   -5.625808   -0.559343
     64          1           0      -10.039646   -4.211131   -3.093022
     65          1           0       -7.732511   -5.026433   -1.299946
     66          1           0       -8.488905   -5.859902   -2.519449
     67          1           0       -8.580260   -6.532502   -0.877100
     68          1           0      -12.590307   -4.006529   -3.168050
     69          1           0      -12.672266   -4.721440   -1.558359
     70          1           0      -11.143274   -6.457931   -3.224360
     71          1           0      -12.381452   -5.929782   -4.224144
     72          1           0      -12.873246   -6.811274   -2.798898
     73          1           0      -12.782719    0.092872   -3.994849
     74          1           0      -11.418723    0.479097   -5.015537
     75          1           0      -12.299755    1.837396   -4.420682
     76          1           0      -10.513329    4.503348   -0.415620
     77          1           0       -8.047631    6.444061   -3.129521
     78          1           0       -7.011615    6.625439   -1.604440
     79          1           0       -8.310233    7.742899   -1.964378
     80         12           0        9.436681   -0.649104   -0.238891
     81          6           0        7.602791    2.327356   -0.136568
     82          6           0       11.982522    1.095939    1.345885
     83          6           0       11.303921   -3.269129   -0.708096
     84          6           0        6.770541   -2.117132   -2.050042
     85          7           0        9.913938    1.625640    0.171749
     86          6           0        8.959377    2.556236    0.272863
     87          6           0        9.574751    3.774767    0.875481
     88          6           0       11.093103    3.475629    0.927375
     89          6           0       11.027271    1.963628    0.841791
     90          6           0       12.028799    4.100117   -0.109181
     91          6           0        8.994434    4.081664    2.292487
     92          6           0        8.507180    5.531363    2.614258
     93          1           0        9.189244    6.739497    1.899693
     94          7           0       11.371274   -1.093597    0.396352
     95          6           0       12.154394   -0.275229    1.199570
     96          6           0       13.330002   -1.020242    1.513387
     97          6           0       13.231415   -2.287075    0.809853
     98          6           0       11.944885   -2.291214    0.129626
     99          6           0       14.519804   -0.477587    2.334967
    100          6           0       14.267181   -3.441409    0.686461
    101          8           0       14.092612   -4.439797    0.062635
    102          6           0       15.546887   -3.272517    1.481580
    103          7           0        9.048792   -2.415816   -1.227319
    104          6           0       10.031052   -3.337935   -1.337969
    105          6           0        9.613943   -4.612410   -2.122385
    106          6           0        8.062495   -4.322574   -2.306572
    107          6           0        7.907211   -2.886587   -1.820084
    108          6           0       10.487017   -4.754473   -3.498682
    109          6           0        7.140130   -5.396230   -1.648307
    110          6           0        6.562061   -5.091649   -0.277901
    111          7           0        7.511629   -0.092573   -0.954351
    112          6           0        6.530540   -0.812426   -1.581114
    113          6           0        5.336512    0.085290   -1.764763
    114          6           0        5.735436    1.319505   -1.203706
    115          6           0        7.090342    1.200290   -0.748705
    116          6           0        4.080995   -0.198655   -2.543768
    117          6           0        5.315226    2.691015   -0.927218
    118          8           0        4.234629    3.223042   -1.197088
    119          6           0        6.438823    3.306587   -0.098572
    120          6           0        6.759239    4.617215   -0.758313
    121          8           0        7.420392    4.749203   -1.771953
    122          8           0        6.028782    5.524255   -0.130824
    123          6           0        5.804893    6.802194   -0.788302
    124          1           0       12.834418    1.672281    1.711428
    125          1           0       11.842689   -4.218568   -0.719292
    126          1           0        5.942954   -2.576041   -2.595550
    127          1           0        9.353443    4.628059    0.235160
    128          1           0       11.443692    3.873070    1.879950
    129          1           0       11.570960    4.780164   -0.827747
    130          1           0       12.541055    3.319861   -0.672810
    131          1           0       12.776292    4.654689    0.457665
    132          1           0        9.634178    3.743237    3.107263
    133          1           0        8.141474    3.403329    2.277283
    134          1           0        8.682031    5.622542    3.687015
    135          1           0        7.437367    5.589362    2.415296
    136          1           0       15.477830   -0.580293    1.825227
    137          1           0       14.692289   -1.054161    3.243897
    138          1           0       14.413381    0.560416    2.652888
    139          1           0       15.365272   -3.029408    2.528692
    140          1           0       16.159738   -2.526260    0.975844
    141          1           0       16.175468   -4.157125    1.379498
    142          1           0        9.769080   -5.526047   -1.548801
    143          1           0        7.740612   -4.367418   -3.346899
    144          1           0        9.776389   -4.523255   -4.292298
    145          1           0       10.783867   -5.779666   -3.721061
    146          1           0       11.286156   -4.018868   -3.596860
    147          1           0        7.811572   -6.234978   -1.464015
    148          1           0        6.347879   -5.733000   -2.316594
    149          1           0        7.401965   -4.665453    0.272102
    150          1           0        6.275477   -6.088691    0.055760
    151          1           0        5.777133   -4.345772   -0.155432
    152          1           0        4.015695   -1.127358   -3.110725
    153          1           0        3.924512    0.597555   -3.271687
    154          1           0        3.272144   -0.095836   -1.821068
    155          1           0        6.146330    3.627332    0.901458
    156          1           0        6.150247    6.959265   -1.809642
    157          1           0        6.403765    7.485191   -0.185050
    158          1           0        4.847387    7.195472   -0.446586
 ---------------------------------------------------------------------

 SCF Done:  E(RPBE1PBE) =  -4067.38920919     A.U. after   16 cycles

 Excitation energies and oscillator strengths:

 Excited State   1:      Singlet-A      1.8765 eV  660.73 nm  f=0.4046  <S**2>=0.000
     309 -> 316        0.18227
     312 -> 313        0.69056
     312 <- 313       -0.10318
 This state for optimization and/or second-order correction.
 Total Energy, E(TD-HF/TD-DFT) =  -4067.32024981
 Copying the excited state density for this state as the 1-particle RhoCI density.

 Excited State   2:      Singlet-A      1.9094 eV  649.35 nm  f=0.3582  <S**2>=0.000
     310 -> 315        0.19433
     311 -> 314        0.68519

 Excited State   3:      Singlet-A      1.9305 eV  642.24 nm  f=0.0000  <S**2>=0.000
     311 -> 313        0.70706

 Excited State   4:      Singlet-A      1.9390 eV  639.43 nm  f=0.0000  <S**2>=0.000
     312 -> 314        0.70709

 Excited State   5:      Singlet-A      2.2070 eV  561.77 nm  f=0.0019  <S**2>=0.000
     309 -> 313        0.44994
     310 -> 314        0.47760
     311 -> 315       -0.18192
     312 -> 316       -0.17290

 The electronic state is 1-A.
 Alpha  occ. eigenvalues --  -46.92168 -46.91758 -19.26800 -19.25372 -19.20154
 Alpha  occ. eigenvalues --  -19.19741 -19.19452 -19.19370 -19.18979 -19.18605
 Alpha  occ. eigenvalues --  -14.41541 -14.41376 -14.41024 -14.40973 -14.39272
 Alpha  occ. eigenvalues --  -14.38864 -14.38608 -14.38523 -10.36018 -10.35460
 Alpha  occ. eigenvalues --  -10.33207 -10.32377 -10.31985 -10.31787 -10.29395
 Alpha  occ. eigenvalues --  -10.29205 -10.28830 -10.28665 -10.28653 -10.28390
 Alpha  occ. eigenvalues --  -10.28346 -10.28146 -10.28123 -10.28091 -10.28058
 Alpha  occ. eigenvalues --  -10.27935 -10.27606 -10.27440 -10.26960 -10.26937
 Alpha  occ. eigenvalues --  -10.26833 -10.26810 -10.26787 -10.26744 -10.26678
 Alpha  occ. eigenvalues --  -10.26665 -10.26628 -10.26297 -10.25988 -10.25952
 Alpha  occ. eigenvalues --  -10.25859 -10.25745 -10.25555 -10.25401 -10.25386
 Alpha  occ. eigenvalues --  -10.25353 -10.25314 -10.25234 -10.24915 -10.24880
 Alpha  occ. eigenvalues --  -10.24835 -10.24724 -10.24720 -10.24645 -10.24387
 Alpha  occ. eigenvalues --  -10.24341 -10.24315 -10.24301 -10.24284 -10.24223
 Alpha  occ. eigenvalues --  -10.24198 -10.23933 -10.23763 -10.23702 -10.23517
 Alpha  occ. eigenvalues --  -10.23482 -10.23396 -10.23269 -10.23092 -10.22927
 Alpha  occ. eigenvalues --  -10.22894 -10.22815 -10.22633 -10.22448 -10.22344
 Alpha  occ. eigenvalues --  -10.22160  -3.14208  -3.13948  -1.87057  -1.86782
 Alpha  occ. eigenvalues --   -1.86617  -1.86391  -1.86327  -1.86175  -1.13015
 Alpha  occ. eigenvalues --   -1.10193  -1.07074  -1.06286  -1.04098  -1.03340
 Alpha  occ. eigenvalues --   -1.01950  -1.01530  -0.99949  -0.99591  -0.98929
 Alpha  occ. eigenvalues --   -0.98383  -0.98216  -0.97165  -0.96676  -0.95284
 Alpha  occ. eigenvalues --   -0.87557  -0.86887  -0.83564  -0.83006  -0.82862
 Alpha  occ. eigenvalues --   -0.82541  -0.82395  -0.81976  -0.81762  -0.81411
 Alpha  occ. eigenvalues --   -0.81257  -0.81049  -0.80409  -0.79846  -0.78738
 Alpha  occ. eigenvalues --   -0.78143  -0.77981  -0.77682  -0.76865  -0.76518
 Alpha  occ. eigenvalues --   -0.75763  -0.75734  -0.75305  -0.75103  -0.74531
 Alpha  occ. eigenvalues --   -0.74291  -0.72713  -0.72223  -0.71663  -0.71598
 Alpha  occ. eigenvalues --   -0.71329  -0.70602  -0.70585  -0.69970  -0.69490
 Alpha  occ. eigenvalues --   -0.69120  -0.67065  -0.66645  -0.66178  -0.65844
 Alpha  occ. eigenvalues --   -0.63855  -0.63710  -0.63300  -0.63080  -0.62607
 Alpha  occ. eigenvalues --   -0.62381  -0.61296  -0.60615  -0.60122  -0.59760
 Alpha  occ. eigenvalues --   -0.59716  -0.59434  -0.59244  -0.59167  -0.58863
 Alpha  occ. eigenvalues --   -0.58577  -0.57291  -0.56069  -0.54430  -0.54394
 Alpha  occ. eigenvalues --   -0.54184  -0.53915  -0.53754  -0.53629  -0.53091
 Alpha  occ. eigenvalues --   -0.52838  -0.52402  -0.52366  -0.52090  -0.51856
 Alpha  occ. eigenvalues --   -0.51380  -0.50563  -0.50491  -0.50101  -0.49717
 Alpha  occ. eigenvalues --   -0.49477  -0.49368  -0.49194  -0.49037  -0.48525
 Alpha  occ. eigenvalues --   -0.48138  -0.47832  -0.47796  -0.47578  -0.47459
 Alpha  occ. eigenvalues --   -0.47318  -0.47195  -0.47110  -0.46692  -0.46512
 Alpha  occ. eigenvalues --   -0.46431  -0.46268  -0.45909  -0.45895  -0.45730
 Alpha  occ. eigenvalues --   -0.45535  -0.45481  -0.45391  -0.45231  -0.44772
 Alpha  occ. eigenvalues --   -0.44639  -0.44270  -0.44041  -0.43949  -0.43763
 Alpha  occ. eigenvalues --   -0.43645  -0.43516  -0.43464  -0.43262  -0.43095
 Alpha  occ. eigenvalues --   -0.43063  -0.43049  -0.42816  -0.42729  -0.42648
 Alpha  occ. eigenvalues --   -0.42410  -0.42379  -0.41908  -0.41601  -0.41538
 Alpha  occ. eigenvalues --   -0.41219  -0.41130  -0.41085  -0.40960  -0.40843
 Alpha  occ. eigenvalues --   -0.40689  -0.40665  -0.40608  -0.40376  -0.40323
 Alpha  occ. eigenvalues --   -0.40249  -0.39909  -0.39848  -0.39676  -0.39628
 Alpha  occ. eigenvalues --   -0.39553  -0.39171  -0.39147  -0.39016  -0.38845
 Alpha  occ. eigenvalues --   -0.38465  -0.38447  -0.38153  -0.38122  -0.38033
 Alpha  occ. eigenvalues --   -0.37918  -0.37838  -0.37720  -0.37697  -0.37537
 Alpha  occ. eigenvalues --   -0.37532  -0.37448  -0.37042  -0.37021  -0.36678
 Alpha  occ. eigenvalues --   -0.36543  -0.36507  -0.36398  -0.36218  -0.36087
 Alpha  occ. eigenvalues --   -0.36012  -0.35979  -0.35552  -0.35433  -0.35137
 Alpha  occ. eigenvalues --   -0.35079  -0.34615  -0.34542  -0.34268  -0.34264
 Alpha  occ. eigenvalues --   -0.33260  -0.33123  -0.32883  -0.32551  -0.32177
 Alpha  occ. eigenvalues --   -0.32124  -0.31906  -0.31723  -0.31394  -0.31337
 Alpha  occ. eigenvalues --   -0.31309  -0.31180  -0.29505  -0.29438  -0.29089
 Alpha  occ. eigenvalues --   -0.29035  -0.28519  -0.28496  -0.26908  -0.26471
 Alpha  occ. eigenvalues --   -0.26206  -0.25996  -0.25719  -0.25395  -0.25361
 Alpha  occ. eigenvalues --   -0.25324  -0.24898  -0.24728  -0.20706  -0.20556
 Alpha  occ. eigenvalues --   -0.18778  -0.18695
 Alpha virt. eigenvalues --   -0.10969  -0.10873  -0.05081  -0.04997  -0.04164
 Alpha virt. eigenvalues --   -0.03929  -0.02221  -0.01607  -0.00065   0.00010
 Alpha virt. eigenvalues --    0.00955   0.01070   0.01230   0.01512   0.01574

 Mulliken charges:
               1
     1  Mg  11.999912
     2  C    5.999431
     3  C    6.000030
     4  C    6.000691
     5  C    5.999995
     6  N    6.999698
     7  C    6.000543
     8  C    5.999650
     9  C    6.000667
    10  C    5.998758
    11  C    6.000152
    12  C    5.999826
    13  C    6.000218
    14  H    0.999226
    15  N    7.000124
    16  C    5.999116
    17  C    5.999511
    18  C    5.999496
    19  C    5.999409
    20  C    6.000105
    21  C    5.999830
    22  O    7.999718
    23  C    6.000141
    24  N    7.000177
    25  C    5.999295
    26  C    6.000152
    27  C    5.999709
    28  C    6.000571
    29  C    6.000072
    30  C    5.999818
    31  C    6.000000
    32  N    6.999779
    33  C    6.000744
    34  C    6.000708
    35  C    5.999979
    36  C    6.000442
    37  C    5.999869
    38  C    6.000449
    39  O    8.000853
    40  C    5.999992
    41  C    6.000143
    42  O    7.999223
    43  O    8.000347
    44  C    6.000013
    45  H    0.999508
    46  H    1.000270
    47  H    1.000493
    48  H    0.999492
    49  H    1.000253
    50  H    0.998831
    51  H    0.999195
    52  H    0.999541
    53  H    1.000488
    54  H    1.000333
    55  H    1.000482
    56  H    1.000149
    57  H    0.998954
    58  H    1.000232
    59  H    1.000016
    60  H    1.000315
    61  H    0.999429
    62  H    1.000127
    63  H    1.000537
    64  H    0.999911
    65  H    0.999327
    66  H    0.999859
    67  H    1.000443
    68  H    1.000098
    69  H    1.000433
    70  H    0.999992
    71  H    1.000189
    72  H    1.000553
    73  H    1.000737
    74  H    1.000449
    75  H    1.000515
    76  H    1.000450
    77  H    0.999942
    78  H    0.999360
    79  H    1.000516
    80  Mg  11.998396
    81  C    5.992566
    82  C    6.016914
    83  C    6.008992
    84  C    5.980279
    85  N    7.003821
    86  C    6.025695
    87  C    5.994691
    88  C    6.009510
    89  C    5.961829
    90  C    6.000192
    91  C    5.998082
    92  C    5.998622
    93  H    1.004676
    94  N    7.007978
    95  C    5.957286
    96  C    5.985456
    97  C    5.982975
    98  C    5.972775
    99  C    6.002614
   100  C    5.986118
   101  O    7.975082
   102  C    6.005887
   103  N    6.994074
   104  C    5.969838
   105  C    6.009467
   106  C    5.990218
   107  C    6.033967
   108  C    6.005950
   109  C    5.998710
   110  C    5.993376
   111  N    6.998086
   112  C    6.038160
   113  C    6.030098
   114  C    6.002422
   115  C    6.026848
   116  C    5.997855
   117  C    6.018451
   118  O    8.028901
   119  C    5.996515
   120  C    6.005727
   121  O    8.007396
   122  O    8.000521
   123  C    5.995557
   124  H    0.990743
   125  H    0.993006
   126  H    1.005854
   127  H    1.000986
   128  H    0.997868
   129  H    0.987366
   130  H    1.004358
   131  H    0.998034
   132  H    1.013022
   133  H    0.993649
   134  H    1.004213
   135  H    0.994996
   136  H    0.984199
   137  H    0.982959
   138  H    0.983017
   139  H    0.993926
   140  H    0.991899
   141  H    0.985667
   142  H    0.999262
   143  H    1.000874
   144  H    0.988183
   145  H    0.996380
   146  H    1.003237
   147  H    1.009935
   148  H    0.999984
   149  H    1.009647
   150  H    1.004644
   151  H    0.992516
   152  H    1.018753
   153  H    1.016691
   154  H    1.017120
   155  H    1.010298
   156  H    1.003601
   157  H    1.007010
   158  H    1.003527
 Sum of Mulliken charges = 624.00000

 Dipole moment (field-independent basis, Debye):
    X=             -9.7012    Y=              3.3289    Z=             -2.9173  Tot=             10.6633
 Quadrupole moment (field-independent basis, Debye-Ang):
   XX=           -175.7896   YY=              1.0196   ZZ=              0.6251
   XY=             34.9886   XZ=            -22.6982   YZ=              0.5154

 Normal termination of Gaussian 16 at Fri Oct 15 11:57:44 2021.
