 Gaussian 16, Revision A.03,
 Gaussian 16:  ES64L-G16RevA.03 25-Dec-2016

 ---------------------------------------------------------
 #p PBE1PBE/Def2SVP td=(nstates=5, root=1) density=current
 ---------------------------------------------------------

 --------------------------------
 TDDFT excited states in gaussian
 --------------------------------
 Symbolic Z-matrix:
 Charge =  0 Multiplicity = 1

                         Standard orientation:
 ---------------------------------------------------------------------
 Center     Atomic      Atomic             Coordinates (Angstroms)
 Number     Number       Type             X           Y           Z
 ---------------------------------------------------------------------
      1         12           0       -0.794987    0.127734    0.032658
      2          6           0        2.834220    0.082357    0.136498
      3          6           0       -0.601590   -3.237839    0.052946
      4          6           0       -3.984922    0.190464   -0.119533
      5          6           0       -0.663618    3.649269   -0.311441
      6          7           0        1.031091   -1.440955    0.123216
      7          6           0        2.348394   -1.205822    0.250798
      8          6           0        3.103310   -2.525201    0.501627
      9          6           0        1.959492   -3.517502   -0.013688
     10          6           0        0.729654   -2.720842    0.114350
     11          6           0        2.211904   -4.311865   -1.284217
     12          6           0        3.470402   -2.608844    1.993325
     13          6           0        4.715627   -3.504663    2.260833
     14          1           0        5.685905   -4.022386    1.100904
     15          7           0       -2.173438   -1.344119    0.018457
     16          6           0       -1.924563   -2.701094   -0.057828
     17          6           0       -3.208378   -3.387336   -0.166088
     18          6           0       -4.219500   -2.395290   -0.139861
     19          6           0       -3.454514   -1.117448   -0.083168
     20          6           0       -3.361522   -4.838398   -0.284052
     21          6           0       -5.829429   -2.550714   -0.134411
     22          8           0       -6.550396   -1.611982    0.066566
     23          6           0       -6.503685   -3.933426   -0.082130
     24          7           0       -2.103835    1.700830   -0.457930
     25          6           0       -3.403622    1.466925   -0.295649
     26          6           0       -4.270353    2.695058   -0.371399
     27          6           0       -3.204862    3.765570   -0.031084
     28          6           0       -1.904363    2.996500   -0.448692
     29          6           0       -4.927128    2.949882   -1.807308
     30          6           0       -3.204954    4.302982    1.461384
     31          6           0       -4.531745    4.336209    2.274430
     32          7           0        0.710807    1.576789   -0.181154
     33          6           0        0.658232    2.930223   -0.246009
     34          6           0        1.922330    3.504533   -0.139544
     35          6           0        2.764863    2.433875   -0.045200
     36          6           0        2.026269    1.267119   -0.049219
     37          6           0        2.228307    4.998385   -0.075153
     38          6           0        4.193941    2.122242    0.107628
     39          8           0        5.209471    2.794356    0.007624
     40          6           0        4.242054    0.545191    0.311855
     41          6           0        5.204552    0.012448   -0.636492
     42          8           0        5.030737   -0.177473   -1.844479
     43          8           0        6.403622    0.009741   -0.017584
     44          6           0        7.509432   -0.134664   -0.947324
     45          1           0       -0.525576   -4.312778   -0.124071
     46          1           0       -5.072459    0.171707   -0.210383
     47          1           0       -0.680206    4.740907   -0.323291
     48          1           0        3.952510   -2.636278   -0.172748
     49          1           0        1.890382   -4.299556    0.741198
     50          1           0        2.306257   -5.379562   -1.088497
     51          1           0        3.120976   -3.961682   -1.772793
     52          1           0        1.452680   -4.172845   -2.053895
     53          1           0        2.653692   -3.125545    2.497907
     54          1           0        3.569860   -1.639633    2.481689
     55          1           0        4.472460   -4.352805    2.901659
     56          1           0        5.245278   -2.923724    3.015741
     57          1           0       -2.502966   -5.370324    0.125324
     58          1           0       -3.469519   -5.025075   -1.352642
     59          1           0       -4.228696   -5.238424    0.241849
     60          1           0       -6.319189   -4.478711    0.843435
     61          1           0       -6.207482   -4.414927   -1.014332
     62          1           0       -7.580305   -3.824462   -0.215563
     63          1           0       -5.039530    2.491733    0.373286
     64          1           0       -3.276350    4.654086   -0.657930
     65          1           0       -5.956431    3.183529   -1.536161
     66          1           0       -4.916999    2.082353   -2.468084
     67          1           0       -4.531601    3.797435   -2.365751
     68          1           0       -2.745990    5.290544    1.473961
     69          1           0       -2.618704    3.525039    1.950809
     70          1           0       -4.700158    3.378080    2.765488
     71          1           0       -5.270494    4.642558    1.532999
     72          1           0       -4.538371    5.130605    3.019947
     73          1           0        1.343216    5.437484    0.385788
     74          1           0        2.316147    5.462108   -1.057239
     75          1           0        3.123183    5.136934    0.531295
     76          1           0        4.571095    0.379505    1.338483
     77          1           0        8.486012   -0.115735   -0.464398
     78          1           0        7.473582    0.478123   -1.848201
     79          1           0        7.512370   -1.135744   -1.379899
 ---------------------------------------------------------------------

 SCF Done:  E(RPBE1PBE) =  -2033.66353254     A.U. after   15 cycles

 Excitation energies and oscillator strengths:

 Excited State   1:      Singlet-A      1.9474 eV  636.65 nm  f=0.3565  <S**2>=0.000
     155 ->158        -0.18521
     156 ->157         0.68731
 This state for optimization and/or second-order correction.
 Total Energy, E(TD-HF/TD-DFT) =  -2033.59196567
 Copying the excited state density for this state as the 1-particle RhoCI density.

 Excited State   2:      Singlet-A      2.2406 eV  553.36 nm  f=0.1514  <S**2>=0.000
     155 ->157         0.66536
     156 ->158         0.23012

 Excited State   3:      Singlet-A      3.1367 eV  395.27 nm  f=0.0001  <S**2>=0.000
     153 ->157         0.43368
     153 ->159        -0.11517
     154 ->157         0.52607

 Excited State   4:      Singlet-A      3.2103 eV  386.20 nm  f=0.0011  <S**2>=0.000
     153 ->157         0.52622
     154 ->157        -0.44963

 Excited State   5:      Singlet-A      3.3664 eV  368.30 nm  f=0.0001  <S**2>=0.000
     151 ->157         0.53239
     151 ->159         0.16476
     152 ->157        -0.40094

 The electronic state is 1-A.
 Alpha  occ. eigenvalues --  -46.92755 -19.25567 -19.20503 -19.19313 -19.19032
 Alpha  occ. eigenvalues --  -14.40776 -14.40738 -14.39436 -14.38472 -10.35223
 Alpha  occ. eigenvalues --  -10.33942 -10.32183 -10.28587 -10.28234 -10.28117
 Alpha  occ. eigenvalues --  -10.28036 -10.27785 -10.27540 -10.27498 -10.26737
 Alpha  occ. eigenvalues --  -10.26665 -10.26515 -10.25924 -10.25801 -10.25739
 Alpha  occ. eigenvalues --  -10.25286 -10.25233 -10.25191 -10.25175 -10.25173
 Alpha  occ. eigenvalues --  -10.25122 -10.24820 -10.24439 -10.24429 -10.24240
 Alpha  occ. eigenvalues --  -10.23917 -10.23583 -10.23463 -10.23455 -10.23112
 Alpha  occ. eigenvalues --  -10.23021 -10.22906 -10.21738  -3.14837  -1.87679
 Alpha  occ. eigenvalues --   -1.87229  -1.87046  -1.11296  -1.07160  -1.04403
 Alpha  occ. eigenvalues --   -1.01461  -1.00442  -0.99762  -0.99159  -0.98375
 Alpha  occ. eigenvalues --   -0.86800  -0.83220  -0.82961  -0.82411  -0.81725
 Alpha  occ. eigenvalues --   -0.81247  -0.80173  -0.78589  -0.77466  -0.76624
 Alpha  occ. eigenvalues --   -0.75899  -0.75079  -0.74457  -0.72686  -0.71147
 Alpha  occ. eigenvalues --   -0.70980  -0.70109  -0.69589  -0.67310  -0.66060
 Alpha  occ. eigenvalues --   -0.63969  -0.63158  -0.62192  -0.61070  -0.59919
 Alpha  occ. eigenvalues --   -0.59535  -0.59133  -0.58254  -0.56440  -0.55183
 Alpha  occ. eigenvalues --   -0.54000  -0.53837  -0.52964  -0.52510  -0.52128
 Alpha  occ. eigenvalues --   -0.51001  -0.50016  -0.49808  -0.49139  -0.48549
 Alpha  occ. eigenvalues --   -0.48215  -0.48032  -0.47559  -0.47236  -0.46823
 Alpha  occ. eigenvalues --   -0.46075  -0.45931  -0.45744  -0.45247  -0.44996
 Alpha  occ. eigenvalues --   -0.44746  -0.44276  -0.43560  -0.43450  -0.43338
 Alpha  occ. eigenvalues --   -0.43301  -0.42875  -0.42650  -0.42223  -0.42084
 Alpha  occ. eigenvalues --   -0.41728  -0.41452  -0.40780  -0.40567  -0.40274
 Alpha  occ. eigenvalues --   -0.39834  -0.39432  -0.39119  -0.38963  -0.38824
 Alpha  occ. eigenvalues --   -0.38669  -0.38412  -0.38069  -0.38005  -0.37826
 Alpha  occ. eigenvalues --   -0.37560  -0.37397  -0.37152  -0.37059  -0.36290
 Alpha  occ. eigenvalues --   -0.36167  -0.35347  -0.34634  -0.34216  -0.33608
 Alpha  occ. eigenvalues --   -0.33173  -0.32989  -0.32431  -0.31670  -0.30856
 Alpha  occ. eigenvalues --   -0.30697  -0.29417  -0.28665  -0.27983  -0.26953
 Alpha  occ. eigenvalues --   -0.26572  -0.26156  -0.25525  -0.25288  -0.20342
 Alpha  occ. eigenvalues --   -0.18880
 Alpha virt. eigenvalues --   -0.10766  -0.04639  -0.03617  -0.01824  -0.00439
 Alpha virt. eigenvalues --    0.00123   0.01105   0.02067   0.02782   0.03874
 Alpha virt. eigenvalues --    0.04758   0.05245   0.06053   0.06273   0.07359

 Mulliken charges:
               1
     1  Mg   0.962488
     2  C   -0.021576
     3  C   -0.064855
     4  C   -0.070322
     5  C   -0.073549
     6  N   -0.306200
     7  C   -0.004118
     8  C   -0.093657
     9  C   -0.121367
    10  C    0.032764
    11  C    0.033832
    12  C   -0.002894
    13  C   -0.108193
    14  H    0.057305
    15  N   -0.504721
    16  C    0.170708
    17  C   -0.186361
    18  C   -0.087100
    19  C    0.127101
    20  C    0.051074
    21  C    0.071065
    22  O   -0.210809
    23  C   -0.032678
    24  N   -0.363388
    25  C    0.082275
    26  C   -0.132113
    27  C   -0.144794
    28  C    0.095450
    29  C    0.024542
    30  C   -0.022097
    31  C   -0.070544
    32  N   -0.449847
    33  C    0.108124
    34  C   -0.214094
    35  C   -0.060340
    36  C    0.186690
    37  C    0.083235
    38  C    0.155310
    39  O   -0.208693
    40  C   -0.128804
    41  C    0.274868
    42  O   -0.278863
    43  O   -0.332143
    44  C    0.137447
    45  H   -0.004600
    46  H    0.018362
    47  H    0.009754
    48  H    0.058927
    49  H    0.033620
    50  H    0.045287
    51  H    0.047477
    52  H    0.044735
    53  H    0.042342
    54  H    0.057934
    55  H    0.045319
    56  H    0.043893
    57  H    0.044140
    58  H    0.065662
    59  H    0.043582
    60  H    0.086853
    61  H    0.048500
    62  H    0.048414
    63  H    0.058035
    64  H    0.030551
    65  H    0.049301
    66  H    0.054365
    67  H    0.046835
    68  H    0.045214
    69  H    0.041308
    70  H    0.058603
    71  H    0.044176
    72  H    0.046069
    73  H    0.034630
    74  H    0.060655
    75  H    0.063052
    76  H    0.080158
    77  H    0.052566
    78  H    0.064747
    79  H    0.029377
 Sum of Mulliken charges =  -0.00000

 Dipole moment (field-independent basis, Debye):
    X=             -2.3390    Y=             -3.2726    Z=              2.2640  Tot=              4.6159
 Quadrupole moment (field-independent basis, Debye-Ang):
   XX=           -270.3407   YY=           -223.6602   ZZ=           -254.9063
   XY=            -20.1075   XZ=              8.3755   YZ=              0.7747

 Normal termination of Gaussian 16 at Wed Oct 13 14:12:16 2021.
