 Gaussian 16, Revision A.03,
 Gaussian 16:  ES64L-G16RevA.03 25-Dec-2016

 --------------------------------------------------------
 #p PBE1PBE/Def2SVP td=(nstates=5) density=(transition=1)
 --------------------------------------------------------

 --------------------------------
 TDDFT excited states in gaussian
 --------------------------------
 Symbolic Z-matrix:
 Charge =  0 Multiplicity = 1

                         Standard orientation:
 ---------------------------------------------------------------------
 Center     Atomic      Atomic             Coordinates (Angstroms)
 Number     Number       Type             X           Y           Z
 ---------------------------------------------------------------------
      1         12           0      -24.174795    0.449813    0.300263
      2          6           0      -22.990467   -2.283694   -1.306605
      3          6           0      -22.488519    2.498263   -1.941404
      4          6           0      -25.354515    3.183638    1.911451
      5          6           0      -25.442952   -1.571813    2.807822
      6          7           0      -23.023957    0.085587   -1.424980
      7          6           0      -22.608509   -1.107287   -1.920806
      8          6           0      -21.934172   -0.970080   -3.260898
      9          6           0      -21.540942    0.555193   -3.310108
     10          6           0      -22.443490    1.094668   -2.152467
     11          6           0      -20.018621    0.993269   -3.236705
     12          6           0      -22.925916   -1.317625   -4.460653
     13          6           0      -22.171651   -1.766508   -5.746897
     14          1           0      -20.739935   -1.296797   -6.054640
     15          7           0      -23.909848    2.589537    0.100861
     16          6           0      -23.158575    3.203092   -0.935639
     17          6           0      -23.240828    4.626618   -0.804857
     18          6           0      -24.074541    4.867062    0.344953
     19          6           0      -24.485917    3.494520    0.810573
     20          6           0      -22.644589    5.601950   -1.758249
     21          6           0      -24.504920    6.191023    0.966471
     22          8           0      -25.147563    6.324138    2.049093
     23          6           0      -24.136836    7.492756    0.274946
     24          7           0      -25.178838    0.776306    2.123556
     25          6           0      -25.739215    1.998514    2.498203
     26          6           0      -26.805606    1.904008    3.627427
     27          6           0      -26.810136    0.286602    3.831770
     28          6           0      -25.796731   -0.224880    2.874642
     29          6           0      -26.316291    2.697216    4.845965
     30          6           0      -28.162944   -0.349355    3.703730
     31          6           0      -28.563591   -1.153218    4.907576
     32          7           0      -24.169310   -1.439196    0.812123
     33          6           0      -24.737941   -2.182672    1.838852
     34          6           0      -24.449734   -3.557859    1.663511
     35          6           0      -23.714904   -3.689925    0.454696
     36          6           0      -23.652987   -2.391894   -0.094685
     37          6           0      -24.845202   -4.709574    2.505576
     38          6           0      -22.966388   -4.605340   -0.378474
     39          8           0      -22.676790   -5.784245   -0.317015
     40          6           0      -22.535491   -3.675698   -1.609987
     41          6           0      -21.153704   -3.960408   -2.077747
     42          8           0      -20.183084   -4.139636   -1.387394
     43          8           0      -21.052391   -4.047724   -3.413157
     44          6           0      -19.673275   -4.318004   -3.910151
     45          1           0      -21.788634    3.038515   -2.582493
     46          1           0      -25.615206    4.069605    2.494022
     47          1           0      -25.905214   -2.285819    3.492524
     48          1           0      -20.978696   -1.492785   -3.301708
     49          1           0      -21.966939    0.987528   -4.214919
     50          1           0      -19.419652    0.082857   -3.261654
     51          1           0      -19.707121    1.599192   -2.387343
     52          1           0      -19.839421    1.631338   -4.102278
     53          1           0      -23.509379   -0.406806   -4.596254
     54          1           0      -23.573890   -2.124540   -4.118208
     55          1           0      -22.846616   -1.433899   -6.535713
     56          1           0      -22.243932   -2.853419   -5.775191
     57          1           0      -23.224704    5.800008   -2.659602
     58          1           0      -21.657355    5.205830   -1.992743
     59          1           0      -22.340555    6.534534   -1.283834
     60          1           0      -23.118833    7.719669    0.591253
     61          1           0      -24.818688    8.232620    0.693489
     62          1           0      -24.167060    7.442067   -0.813599
     63          1           0      -27.698216    2.393646    3.237882
     64          1           0      -26.467518    0.067328    4.843587
     65          1           0      -25.289783    3.061086    4.796795
     66          1           0      -26.542832    2.130687    5.748885
     67          1           0      -26.908216    3.612862    4.858384
     68          1           0      -28.224987   -1.067966    2.886403
     69          1           0      -28.976218    0.347417    3.500372
     70          1           0      -29.568164   -0.922910    5.261234
     71          1           0      -27.888311   -0.978165    5.744684
     72          1           0      -28.392735   -2.186590    4.604402
     73          1           0      -24.949490   -4.509720    3.572426
     74          1           0      -23.940274   -5.317289    2.532368
     75          1           0      -25.741911   -5.177758    2.099457
     76          1           0      -23.221068   -4.109008   -2.338802
     77          1           0      -19.392174   -5.365338   -3.791011
     78          1           0      -18.950465   -3.603259   -3.516366
     79          1           0      -19.659141   -4.133769   -4.984655
     80         12           0       24.209319    0.279679    0.066114
     81          6           0       21.693180   -2.066126    0.055723
     82          6           0       22.169941    2.628785   -1.365683
     83          6           0       26.728576    2.705357    0.268206
     84          6           0       26.049965   -1.673477    2.239456
     85          7           0       22.083630    0.264296   -0.361078
     86          6           0       21.239707   -0.843779   -0.475336
     87          6           0       19.844617   -0.437554   -0.956978
     88          6           0       20.171906    0.966789   -1.525064
     89          6           0       21.555331    1.387087   -0.987837
     90          6           0       20.000212    1.055868   -3.057275
     91          6           0       18.812271   -0.425469    0.187781
     92          6           0       17.395029   -1.014753   -0.131452
     93          1           0       16.258127   -0.411574    0.596940
     94          7           0       24.415172    2.309988   -0.515410
     95          6           0       23.504188    3.069064   -1.166359
     96          6           0       24.051302    4.296289   -1.662338
     97          6           0       25.414552    4.293139   -1.324177
     98          6           0       25.593887    3.030747   -0.494034
     99          6           0       23.287826    5.291487   -2.538530
    100          6           0       26.480432    5.395112   -1.670303
    101          8           0       26.090438    6.444509   -2.243342
    102          6           0       28.039793    5.226353   -1.414293
    103          7           0       25.989430    0.609723    1.350273
    104          6           0       26.895475    1.590961    1.120132
    105          6           0       28.196770    1.371683    1.848206
    106          6           0       27.990956    0.000914    2.528214
    107          6           0       26.619327   -0.413656    1.989556
    108          6           0       29.474509    1.486076    0.952249
    109          6           0       28.158311    0.052755    4.121316
    110          6           0       29.466977   -0.548360    4.647036
    111          7           0       23.991190   -1.526061    0.938131
    112          6           0       24.831938   -2.262778    1.801238
    113          6           0       24.312358   -3.630441    1.931923
    114          6           0       23.134277   -3.591488    1.199154
    115          6           0       22.952109   -2.274925    0.744882
    116          6           0       24.855250   -4.795325    2.679555
    117          6           0       21.978840   -4.401569    0.787786
    118          8           0       21.774496   -5.626307    0.817949
    119          6           0       21.006922   -3.448666   -0.017102
    120          6           0       20.821619   -3.927470   -1.450739
    121          8           0       21.693853   -4.310796   -2.236649
    122          8           0       19.469713   -3.895877   -1.623473
    123          6           0       18.959545   -4.471253   -2.856684
    124          1           0       21.531439    3.384681   -1.827427
    125          1           0       27.615943    3.338726    0.331357
    126          1           0       26.585912   -2.344601    2.913596
    127          1           0       19.496470   -1.147780   -1.707696
    128          1           0       19.408424    1.600971   -1.074605
    129          1           0       19.370625    0.329001   -3.570440
    130          1           0       20.994008    0.885290   -3.470976
    131          1           0       19.623779    2.028312   -3.373822
    132          1           0       18.694899    0.558148    0.641744
    133          1           0       19.300491   -0.951390    1.008592
    134          1           0       17.402976   -2.084921    0.075195
    135          1           0       17.176037   -0.832340   -1.184458
    136          1           0       23.878635    5.391234   -3.448796
    137          1           0       23.026223    6.172159   -1.951819
    138          1           0       22.381313    4.758004   -2.824278
    139          1           0       28.208225    5.523237   -0.379780
    140          1           0       28.533756    5.927152   -2.086928
    141          1           0       28.302145    4.233100   -1.779604
    142          1           0       28.290155    2.148276    2.607449
    143          1           0       28.588208   -0.825572    2.143810
    144          1           0       30.169988    0.668348    1.139266
    145          1           0       30.013794    2.420248    1.108012
    146          1           0       29.171415    1.538386   -0.092641
    147          1           0       27.389465   -0.519985    4.639755
    148          1           0       28.018602    1.073212    4.477868
    149          1           0       29.842127    0.055392    5.473571
    150          1           0       30.210494   -0.563742    3.850430
    151          1           0       29.371882   -1.575157    4.999749
    152          1           0       25.829877   -4.504674    3.071684
    153          1           0       24.747152   -5.702381    2.084527
    154          1           0       24.237865   -4.888200    3.573681
    155          1           0       20.038414   -3.334716    0.470564
    156          1           0       19.521085   -4.181113   -3.745620
    157          1           0       17.908176   -4.298808   -3.086794
    158          1           0       19.002508   -5.559157   -2.798578
 ---------------------------------------------------------------------

 SCF Done:  E(RPBE1PBE) =  -4067.39589064     A.U. after   16 cycles

 Excitation energies and oscillator strengths:

 Excited State   1:      Singlet-A      1.8023 eV  687.94 nm  f=0.3637  <S**2>=0.000
     309 -> 316       -0.16347
     312 -> 313        0.69741
     312 <- 313       -0.11962
 This state for optimization and/or second-order correction.
 Total Energy, E(TD-HF/TD-DFT) =  -4067.32965904
 Copying the excited state density for this state as the 1-particle RhoCI density.

 Excited State   2:      Singlet-A      1.8385 eV  674.37 nm  f=0.3571  <S**2>=0.000
     310 -> 315        0.16808
     311 -> 314        0.69268
     311 <- 314       -0.10468

 Excited State   3:      Singlet-A      1.9187 eV  646.19 nm  f=0.0000  <S**2>=0.000
     311 -> 313        0.70711

 Excited State   4:      Singlet-A      1.9878 eV  623.71 nm  f=0.0000  <S**2>=0.000
     312 -> 314        0.70711

 Excited State   5:      Singlet-A      2.2176 eV  559.08 nm  f=0.1178  <S**2>=0.000
     309 -> 313        0.65145
     312 -> 316        0.25928

 The electronic state is 1-A.
 Alpha  occ. eigenvalues --  -46.92579 -46.90567 -19.27077 -19.25780 -19.20579
 Alpha  occ. eigenvalues --  -19.19700 -19.19437 -19.18980 -19.18910 -19.18726
 Alpha  occ. eigenvalues --  -14.42292 -14.41998 -14.41640 -14.41302 -14.39721
 Alpha  occ. eigenvalues --  -14.39136 -14.38886 -14.38497 -10.37050 -10.35582
 Alpha  occ. eigenvalues --  -10.33699 -10.32341 -10.32268 -10.32115 -10.29721
 Alpha  occ. eigenvalues --  -10.29305 -10.29279 -10.29119 -10.29014 -10.29010
 Alpha  occ. eigenvalues --  -10.28728 -10.28673 -10.28477 -10.28460 -10.28247
 Alpha  occ. eigenvalues --  -10.27804 -10.27733 -10.27720 -10.27561 -10.26873
 Alpha  occ. eigenvalues --  -10.26681 -10.26519 -10.26377 -10.26349 -10.26328
 Alpha  occ. eigenvalues --  -10.26087 -10.26008 -10.25968 -10.25954 -10.25931
 Alpha  occ. eigenvalues --  -10.25869 -10.25864 -10.25810 -10.25753 -10.25723
 Alpha  occ. eigenvalues --  -10.25705 -10.25491 -10.25486 -10.25466 -10.25451
 Alpha  occ. eigenvalues --  -10.25366 -10.25359 -10.25253 -10.25221 -10.25075
 Alpha  occ. eigenvalues --  -10.24812 -10.24710 -10.24635 -10.24618 -10.24571
 Alpha  occ. eigenvalues --  -10.24309 -10.24218 -10.24188 -10.23651 -10.23586
 Alpha  occ. eigenvalues --  -10.23526 -10.23459 -10.23273 -10.23236 -10.23229
 Alpha  occ. eigenvalues --  -10.23107 -10.23007 -10.22997 -10.22988 -10.22608
 Alpha  occ. eigenvalues --  -10.22566  -3.14690  -3.12996  -1.87496  -1.87051
 Alpha  occ. eigenvalues --   -1.86943  -1.85831  -1.85351  -1.85267  -1.12082
 Alpha  occ. eigenvalues --   -1.11686  -1.04876  -1.03256  -1.03136  -1.02671
 Alpha  occ. eigenvalues --   -1.02089  -1.02080  -0.99425  -0.99101  -0.98735
 Alpha  occ. eigenvalues --   -0.98237  -0.98018  -0.97351  -0.96744  -0.96048
 Alpha  occ. eigenvalues --   -0.87733  -0.85876  -0.84021  -0.83177  -0.83102
 Alpha  occ. eigenvalues --   -0.83101  -0.82971  -0.82835  -0.82025  -0.81773
 Alpha  occ. eigenvalues --   -0.81531  -0.81255  -0.80716  -0.80583  -0.78660
 Alpha  occ. eigenvalues --   -0.78576  -0.78222  -0.78081  -0.76791  -0.76759
 Alpha  occ. eigenvalues --   -0.75886  -0.75792  -0.75392  -0.75320  -0.74757
 Alpha  occ. eigenvalues --   -0.74526  -0.72606  -0.72332  -0.72111  -0.71727
 Alpha  occ. eigenvalues --   -0.71646  -0.70985  -0.70842  -0.70244  -0.69617
 Alpha  occ. eigenvalues --   -0.69592  -0.67341  -0.67208  -0.66295  -0.66150
 Alpha  occ. eigenvalues --   -0.63543  -0.63505  -0.63371  -0.63054  -0.62578
 Alpha  occ. eigenvalues --   -0.62345  -0.61574  -0.61111  -0.60574  -0.60277
 Alpha  occ. eigenvalues --   -0.59792  -0.59674  -0.59433  -0.59321  -0.59132
 Alpha  occ. eigenvalues --   -0.58678  -0.57337  -0.56900  -0.54880  -0.54496
 Alpha  occ. eigenvalues --   -0.54445  -0.54188  -0.53552  -0.53546  -0.53202
 Alpha  occ. eigenvalues --   -0.53001  -0.52539  -0.52347  -0.52313  -0.51770
 Alpha  occ. eigenvalues --   -0.50684  -0.50507  -0.50421  -0.49871  -0.49812
 Alpha  occ. eigenvalues --   -0.49744  -0.49582  -0.49579  -0.48519  -0.48411
 Alpha  occ. eigenvalues --   -0.47963  -0.47954  -0.47850  -0.47610  -0.47477
 Alpha  occ. eigenvalues --   -0.47282  -0.47095  -0.46978  -0.46897  -0.46673
 Alpha  occ. eigenvalues --   -0.46605  -0.46604  -0.46145  -0.45904  -0.45893
 Alpha  occ. eigenvalues --   -0.45745  -0.45743  -0.45557  -0.45475  -0.44983
 Alpha  occ. eigenvalues --   -0.44651  -0.44589  -0.44426  -0.44240  -0.44113
 Alpha  occ. eigenvalues --   -0.43970  -0.43682  -0.43586  -0.43467  -0.43209
 Alpha  occ. eigenvalues --   -0.43078  -0.42857  -0.42851  -0.42770  -0.42692
 Alpha  occ. eigenvalues --   -0.42511  -0.42377  -0.42244  -0.42116  -0.42003
 Alpha  occ. eigenvalues --   -0.41989  -0.41832  -0.41510  -0.41398  -0.41337
 Alpha  occ. eigenvalues --   -0.41300  -0.41156  -0.41050  -0.40700  -0.40680
 Alpha  occ. eigenvalues --   -0.40387  -0.40070  -0.39984  -0.39740  -0.39560
 Alpha  occ. eigenvalues --   -0.39539  -0.39361  -0.39193  -0.38864  -0.38746
 Alpha  occ. eigenvalues --   -0.38707  -0.38687  -0.38572  -0.38399  -0.38296
 Alpha  occ. eigenvalues --   -0.38178  -0.38117  -0.37995  -0.37721  -0.37324
 Alpha  occ. eigenvalues --   -0.37240  -0.37145  -0.37135  -0.36991  -0.36804
 Alpha  occ. eigenvalues --   -0.36780  -0.36763  -0.36503  -0.36274  -0.36080
 Alpha  occ. eigenvalues --   -0.35915  -0.35756  -0.35741  -0.35548  -0.35338
 Alpha  occ. eigenvalues --   -0.35290  -0.35267  -0.34965  -0.34673  -0.34245
 Alpha  occ. eigenvalues --   -0.33654  -0.33371  -0.33240  -0.33115  -0.32988
 Alpha  occ. eigenvalues --   -0.32653  -0.32381  -0.32240  -0.32050  -0.31923
 Alpha  occ. eigenvalues --   -0.31599  -0.31472  -0.30053  -0.29830  -0.29756
 Alpha  occ. eigenvalues --   -0.29400  -0.28670  -0.28425  -0.27002  -0.26960
 Alpha  occ. eigenvalues --   -0.26261  -0.25943  -0.25772  -0.25616  -0.25525
 Alpha  occ. eigenvalues --   -0.25437  -0.25401  -0.25197  -0.21199  -0.21088
 Alpha  occ. eigenvalues --   -0.18730  -0.18705
 Alpha virt. eigenvalues --   -0.11406  -0.11126  -0.05537  -0.05136  -0.04090
 Alpha virt. eigenvalues --   -0.03997  -0.02497  -0.02137  -0.01121   0.00112
 Alpha virt. eigenvalues --    0.00233   0.00690   0.00840   0.01193   0.01247

 Mulliken charges:
               1
     1  Mg  12.004202
     2  C    5.978473
     3  C    5.999514
     4  C    6.030774
     5  C    6.015386
     6  N    6.985575
     7  C    6.031845
     8  C    5.988328
     9  C    6.009516
    10  C    5.968284
    11  C    6.004472
    12  C    5.997421
    13  C    5.999929
    14  H    1.005821
    15  N    7.003177
    16  C    5.962180
    17  C    5.986152
    18  C    5.978988
    19  C    5.970114
    20  C    6.003703
    21  C    5.986590
    22  O    7.962221
    23  C    6.004994
    24  N    7.020040
    25  C    5.967180
    26  C    6.009273
    27  C    5.988519
    28  C    6.018166
    29  C    5.999777
    30  C    5.993658
    31  C    5.999726
    32  N    6.997339
    33  C    6.019163
    34  C    6.035159
    35  C    6.000852
    36  C    6.029330
    37  C    5.997048
    38  C    6.013807
    39  O    8.023527
    40  C    6.003440
    41  C    6.003318
    42  O    8.002123
    43  O    8.001885
    44  C    5.998555
    45  H    0.985368
    46  H    1.001355
    47  H    1.014862
    48  H    0.999121
    49  H    0.996552
    50  H    0.985105
    51  H    1.000582
    52  H    0.996760
    53  H    1.011085
    54  H    0.992752
    55  H    1.002255
    56  H    0.995672
    57  H    0.981812
    58  H    0.987195
    59  H    0.986307
    60  H    0.989939
    61  H    0.985643
    62  H    0.993074
    63  H    1.003739
    64  H    1.004105
    65  H    1.004986
    66  H    0.992578
    67  H    1.005169
    68  H    0.998209
    69  H    1.012447
    70  H    1.007142
    71  H    1.003915
    72  H    0.995994
    73  H    1.016539
    74  H    1.015360
    75  H    1.021172
    76  H    1.003506
    77  H    1.000419
    78  H    1.005004
    79  H    1.004730
    80  Mg  11.999993
    81  C    6.000219
    82  C    5.999947
    83  C    5.999785
    84  C    5.999991
    85  N    7.000160
    86  C    5.999665
    87  C    6.000062
    88  C    5.999937
    89  C    6.000179
    90  C    5.999975
    91  C    5.999999
    92  C    6.000004
    93  H    0.999998
    94  N    6.999961
    95  C    6.000273
    96  C    6.000156
    97  C    6.000099
    98  C    6.000305
    99  C    5.999987
   100  C    6.000102
   101  O    8.000199
   102  C    5.999996
   103  N    6.999900
   104  C    6.000297
   105  C    5.999928
   106  C    6.000067
   107  C    5.999766
   108  C    5.999985
   109  C    6.000037
   110  C    6.000005
   111  N    7.000000
   112  C    5.999753
   113  C    5.999828
   114  C    5.999938
   115  C    5.999820
   116  C    6.000032
   117  C    5.999855
   118  O    7.999713
   119  C    6.000010
   120  C    5.999954
   121  O    7.999969
   122  O    7.999984
   123  C    6.000025
   124  H    1.000107
   125  H    1.000047
   126  H    0.999885
   127  H    1.000008
   128  H    1.000073
   129  H    1.000099
   130  H    0.999997
   131  H    1.000032
   132  H    0.999962
   133  H    1.000041
   134  H    1.000006
   135  H    0.999984
   136  H    1.000112
   137  H    1.000153
   138  H    1.000122
   139  H    1.000081
   140  H    1.000091
   141  H    1.000053
   142  H    1.000012
   143  H    1.000006
   144  H    1.000059
   145  H    0.999991
   146  H    0.999975
   147  H    1.000014
   148  H    0.999922
   149  H    0.999958
   150  H    0.999959
   151  H    0.999995
   152  H    0.999879
   153  H    0.999859
   154  H    0.999836
   155  H    0.999933
   156  H    0.999970
   157  H    0.999962
   158  H    0.999961
 Sum of Mulliken charges = 624.00000

 Dipole moment (field-independent basis, Debye):
    X=             -1.5170    Y=             -9.8339    Z=              2.7221  Tot=             10.3158
 Quadrupole moment (field-independent basis, Debye-Ang):
   XX=             74.7126   YY=            -14.8413   ZZ=              4.2695
   XY=            237.7699   XZ=            -68.8784   YZ=             -3.4382

 Normal termination of Gaussian 16 at Fri Oct 15 03:27:23 2021.
