 Gaussian 16, Revision A.03,
 Gaussian 16:  ES64L-G16RevA.03 25-Dec-2016

 --------------------------------------------------------
 #p PBE1PBE/Def2SVP td=(nstates=5) density=(transition=1)
 --------------------------------------------------------

 --------------------------------
 TDDFT excited states in gaussian
 --------------------------------
 Symbolic Z-matrix:
 Charge =  0 Multiplicity = 1

                         Standard orientation:
 ---------------------------------------------------------------------
 Center     Atomic      Atomic             Coordinates (Angstroms)
 Number     Number       Type             X           Y           Z
 ---------------------------------------------------------------------
      1         12           0       19.895711    0.364312    0.251349
      2          6           0       17.466742   -1.576699   -1.186757
      3          6           0       20.508929    1.811542   -2.703115
      4          6           0       22.414718    2.021271    1.758746
      5          6           0       19.537965   -1.605633    3.286247
      6          7           0       19.223320   -0.082317   -1.812700
      7          6           0       18.159059   -0.818307   -2.155085
      8          6           0       17.837795   -0.657950   -3.728860
      9          6           0       18.875434    0.465673   -4.102705
     10          6           0       19.647774    0.755132   -2.799825
     11          6           0       19.743063    0.124328   -5.329756
     12          6           0       16.362759   -0.269871   -4.032135
     13          6           0       16.014600    0.261919   -5.460736
     14          1           0       15.294627   -0.726744   -6.454453
     15          7           0       21.316687    1.707043   -0.406574
     16          6           0       21.348578    2.253800   -1.604076
     17          6           0       22.418053    3.239897   -1.636011
     18          6           0       23.091130    3.268111   -0.377662
     19          6           0       22.271482    2.308877    0.394872
     20          6           0       22.877883    4.003316   -2.867026
     21          6           0       24.338747    4.023702    0.067997
     22          8           0       24.940791    3.705328    1.089374
     23          6           0       24.822437    5.159775   -0.763577
     24          7           0       20.869167    0.186683    2.237596
     25          6           0       21.837970    1.015228    2.608745
     26          6           0       22.183669    0.869164    4.099939
     27          6           0       21.110061   -0.119811    4.546484
     28          6           0       20.497824   -0.557435    3.268445
     29          6           0       23.618311    0.465957    4.471810
     30          6           0       20.233130    0.385408    5.664114
     31          6           0       20.308325   -0.407594    7.017451
     32          7           0       18.750987   -1.180583    0.945935
     33          6           0       18.636952   -1.837617    2.216875
     34          6           0       17.535152   -2.774659    2.223638
     35          6           0       17.071025   -2.651333    0.884468
     36          6           0       17.832256   -1.708232    0.182567
     37          6           0       16.900320   -3.546027    3.326491
     38          6           0       15.942234   -3.063335    0.088854
     39          8           0       14.887080   -3.667913    0.331732
     40          6           0       16.163831   -2.532286   -1.305327
     41          6           0       16.537920   -3.716418   -2.223899
     42          8           0       17.308182   -4.655850   -1.972520
     43          8           0       15.867693   -3.551595   -3.399558
     44          6           0       16.038993   -4.602598   -4.452172
     45          1           0       20.721148    2.441917   -3.569180
     46          1           0       23.324118    2.355807    2.262271
     47          1           0       19.397764   -2.058088    4.269587
     48          1           0       18.123806   -1.621328   -4.149437
     49          1           0       18.310902    1.374169   -4.312443
     50          1           0       19.799215    1.027013   -5.937147
     51          1           0       19.284071   -0.643032   -5.953218
     52          1           0       20.739054   -0.197237   -5.025050
     53          1           0       16.171069    0.609560   -3.417374
     54          1           0       15.708736   -1.122778   -3.851095
     55          1           0       16.962836    0.448394   -5.965943
     56          1           0       15.363636    1.129694   -5.360112
     57          1           0       22.277391    3.748599   -3.740284
     58          1           0       23.918301    3.759321   -3.080353
     59          1           0       22.823489    5.081243   -2.720038
     60          1           0       23.941176    5.776959   -0.940631
     61          1           0       25.291044    5.025558   -1.738036
     62          1           0       25.582721    5.756945   -0.261286
     63          1           0       22.005110    1.833725    4.573936
     64          1           0       21.624854   -0.984983    4.963918
     65          1           0       23.839031    1.066529    5.353902
     66          1           0       24.290760    0.616016    3.627308
     67          1           0       23.755031   -0.601331    4.645605
     68          1           0       19.223162    0.210638    5.294640
     69          1           0       20.408116    1.430231    5.919054
     70          1           0       20.995010   -1.248725    6.918591
     71          1           0       19.312070   -0.805496    7.212888
     72          1           0       20.530580    0.192351    7.900046
     73          1           0       17.299485   -3.223671    4.287824
     74          1           0       17.260523   -4.566665    3.202707
     75          1           0       15.832102   -3.350446    3.222345
     76          1           0       15.204144   -2.092577   -1.577572
     77          1           0       17.068310   -4.911167   -4.636535
     78          1           0       15.573616   -4.362631   -5.407604
     79          1           0       15.559459   -5.494049   -4.048227
     80         12           0      -19.747576   -0.587592   -0.347861
     81          6           0      -19.704148    2.949916    0.250776
     82          6           0      -16.325734   -0.519151    0.674975
     83          6           0      -19.755358   -3.907246    0.170497
     84          6           0      -23.157268   -0.436717   -0.565906
     85          7           0      -18.267029    1.028870    0.396122
     86          6           0      -18.459907    2.372910    0.529677
     87          6           0      -17.161133    3.103783    1.019109
     88          6           0      -16.052896    1.981403    0.731244
     89          6           0      -16.935554    0.744760    0.674404
     90          6           0      -15.300246    2.154259   -0.568101
     91          6           0      -17.277857    3.667606    2.425561
     92          6           0      -16.733399    5.098814    2.670979
     93          1           0      -15.303624    5.328934    3.349689
     94          7           0      -18.189077   -2.090796    0.249974
     95          6           0      -16.832814   -1.822064    0.529048
     96          6           0      -16.140140   -3.094711    0.765007
     97          6           0      -17.154578   -4.112437    0.567771
     98          6           0      -18.414625   -3.418786    0.408849
     99          6           0      -14.724643   -3.282871    1.162984
    100          6           0      -16.896129   -5.597905    0.535145
    101          8           0      -15.746643   -5.977050    0.522535
    102          6           0      -17.978088   -6.652624    0.503762
    103          7           0      -21.241970   -1.873186   -0.110522
    104          6           0      -20.963638   -3.236441   -0.067446
    105          6           0      -22.303596   -3.975785   -0.054104
    106          6           0      -23.344910   -2.885728   -0.501743
    107          6           0      -22.515647   -1.648027   -0.431796
    108          6           0      -22.406290   -5.343965   -0.823087
    109          6           0      -24.700242   -2.805344    0.265640
    110          6           0      -25.961982   -2.893029   -0.529528
    111          7           0      -21.162110    0.895310   -0.320655
    112          6           0      -22.532905    0.830676   -0.499935
    113          6           0      -23.101591    2.180730   -0.677721
    114          6           0      -21.987500    3.032907   -0.314759
    115          6           0      -20.888925    2.193041   -0.107852
    116          6           0      -24.499602    2.608426   -1.039371
    117          6           0      -21.595031    4.464088   -0.154449
    118          8           0      -22.255143    5.462860   -0.198715
    119          6           0      -20.147621    4.413827    0.323943
    120          6           0      -19.330017    5.264126   -0.601931
    121          8           0      -19.206037    4.918124   -1.757157
    122          8           0      -18.671208    6.382228   -0.007911
    123          6           0      -17.692724    7.114176   -0.868206
    124          1           0      -15.264349   -0.535491    0.931818
    125          1           0      -19.927995   -4.978461    0.287061
    126          1           0      -24.215800   -0.429569   -0.832965
    127          1           0      -16.864530    3.901449    0.338644
    128          1           0      -15.387548    1.850726    1.584587
    129          1           0      -15.919209    1.767038   -1.377121
    130          1           0      -14.346365    1.639119   -0.455626
    131          1           0      -15.054245    3.162227   -0.903762
    132          1           0      -16.683059    3.011937    3.060749
    133          1           0      -18.299646    3.501136    2.766538
    134          1           0      -17.501051    5.545774    3.303130
    135          1           0      -16.685394    5.704155    1.765712
    136          1           0      -14.180656   -3.512503    0.247269
    137          1           0      -14.640374   -4.188323    1.764024
    138          1           0      -14.194936   -2.496403    1.701887
    139          1           0      -17.629895   -7.681039    0.597793
    140          1           0      -18.453923   -6.549997   -0.471584
    141          1           0      -18.815780   -6.579236    1.196304
    142          1           0      -22.369842   -4.280854    0.990638
    143          1           0      -23.491681   -2.981638   -1.577135
    144          1           0      -21.610578   -5.429393   -1.563604
    145          1           0      -23.397315   -5.461836   -1.260976
    146          1           0      -22.331568   -6.174934   -0.121995
    147          1           0      -24.722861   -1.878672    0.839016
    148          1           0      -24.668875   -3.565362    1.046226
    149          1           0      -26.423968   -1.906990   -0.573755
    150          1           0      -26.660938   -3.565160   -0.031916
    151          1           0      -25.885598   -3.234414   -1.561639
    152          1           0      -24.507059    3.620374   -1.443829
    153          1           0      -25.088061    2.540625   -0.123944
    154          1           0      -24.917027    1.851264   -1.703369
    155          1           0      -20.142663    4.700447    1.375681
    156          1           0      -18.236348    7.775444   -1.543179
    157          1           0      -17.140434    6.422563   -1.504052
    158          1           0      -16.978747    7.667013   -0.258010
 ---------------------------------------------------------------------

 SCF Done:  E(RPBE1PBE) =  -4067.37809619     A.U. after   16 cycles

 Excitation energies and oscillator strengths:

 Excited State   1:      Singlet-A      1.8362 eV  675.22 nm  f=0.3841  <S**2>=0.000
     309 -> 316        0.16418
     311 -> 313        0.69658
     311 <- 313       -0.11951
 This state for optimization and/or second-order correction.
 Total Energy, E(TD-HF/TD-DFT) =  -4067.31061650
 Copying the excited state density for this state as the 1-particle RhoCI density.

 Excited State   2:      Singlet-A      1.8791 eV  659.82 nm  f=0.3881  <S**2>=0.000
     310 -> 315        0.16665
     312 -> 314        0.69055
     312 <- 314       -0.10563

 Excited State   3:      Singlet-A      1.9102 eV  649.08 nm  f=0.0000  <S**2>=0.000
     312 -> 313        0.70711

 Excited State   4:      Singlet-A      2.0127 eV  616.02 nm  f=0.0000  <S**2>=0.000
     311 -> 314        0.70710

 Excited State   5:      Singlet-A      2.2360 eV  554.48 nm  f=0.1179  <S**2>=0.000
     308 -> 313        0.10049
     309 -> 313        0.64812
     311 -> 316       -0.25673

 The electronic state is 1-A.
 Alpha  occ. eigenvalues --  -46.92715 -46.92582 -19.26292 -19.25844 -19.20843
 Alpha  occ. eigenvalues --  -19.19813 -19.19726 -19.19664 -19.18211 -19.18000
 Alpha  occ. eigenvalues --  -14.42106 -14.41448 -14.41378 -14.41336 -14.39635
 Alpha  occ. eigenvalues --  -14.38982 -14.38961 -14.38802 -10.37163 -10.36630
 Alpha  occ. eigenvalues --  -10.33150 -10.32456 -10.31663 -10.30535 -10.29441
 Alpha  occ. eigenvalues --  -10.29409 -10.29407 -10.29106 -10.29001 -10.28648
 Alpha  occ. eigenvalues --  -10.28465 -10.28249 -10.28164 -10.28102 -10.27923
 Alpha  occ. eigenvalues --  -10.27912 -10.27899 -10.27804 -10.27797 -10.27259
 Alpha  occ. eigenvalues --  -10.26872 -10.26768 -10.26686 -10.26432 -10.26369
 Alpha  occ. eigenvalues --  -10.26348 -10.26332 -10.26281 -10.26222 -10.26201
 Alpha  occ. eigenvalues --  -10.26141 -10.25903 -10.25824 -10.25747 -10.25591
 Alpha  occ. eigenvalues --  -10.25580 -10.25552 -10.25439 -10.25186 -10.24951
 Alpha  occ. eigenvalues --  -10.24831 -10.24762 -10.24697 -10.24504 -10.24450
 Alpha  occ. eigenvalues --  -10.24446 -10.24359 -10.24309 -10.24206 -10.24049
 Alpha  occ. eigenvalues --  -10.24049 -10.24018 -10.23957 -10.23915 -10.23899
 Alpha  occ. eigenvalues --  -10.23773 -10.23648 -10.23628 -10.23486 -10.23204
 Alpha  occ. eigenvalues --  -10.23196 -10.23162 -10.23160 -10.23144 -10.22804
 Alpha  occ. eigenvalues --  -10.22200  -3.14862  -3.14688  -1.87648  -1.87519
 Alpha  occ. eigenvalues --   -1.87243  -1.87091  -1.87056  -1.86923  -1.10346
 Alpha  occ. eigenvalues --   -1.09999  -1.06386  -1.05038  -1.04976  -1.02750
 Alpha  occ. eigenvalues --   -1.02622  -1.01375  -1.00335  -0.99218  -0.99043
 Alpha  occ. eigenvalues --   -0.98567  -0.98174  -0.97675  -0.97355  -0.96177
 Alpha  occ. eigenvalues --   -0.87014  -0.85669  -0.84228  -0.83706  -0.83122
 Alpha  occ. eigenvalues --   -0.83000  -0.82766  -0.82484  -0.81882  -0.81781
 Alpha  occ. eigenvalues --   -0.81470  -0.81310  -0.80530  -0.79938  -0.78741
 Alpha  occ. eigenvalues --   -0.78467  -0.78257  -0.77600  -0.76748  -0.76503
 Alpha  occ. eigenvalues --   -0.76394  -0.76004  -0.75397  -0.74828  -0.74496
 Alpha  occ. eigenvalues --   -0.74421  -0.72863  -0.72477  -0.71838  -0.71773
 Alpha  occ. eigenvalues --   -0.71076  -0.71038  -0.70579  -0.70396  -0.69702
 Alpha  occ. eigenvalues --   -0.69582  -0.67105  -0.67086  -0.66208  -0.66145
 Alpha  occ. eigenvalues --   -0.63895  -0.63781  -0.63452  -0.63289  -0.62328
 Alpha  occ. eigenvalues --   -0.62212  -0.61989  -0.61117  -0.60382  -0.60295
 Alpha  occ. eigenvalues --   -0.59499  -0.59463  -0.59120  -0.58920  -0.58820
 Alpha  occ. eigenvalues --   -0.58433  -0.57210  -0.56856  -0.55236  -0.54334
 Alpha  occ. eigenvalues --   -0.54235  -0.53969  -0.53772  -0.53476  -0.53455
 Alpha  occ. eigenvalues --   -0.53263  -0.52980  -0.52618  -0.52223  -0.51878
 Alpha  occ. eigenvalues --   -0.51090  -0.50898  -0.50236  -0.50179  -0.50034
 Alpha  occ. eigenvalues --   -0.49664  -0.49115  -0.48781  -0.48643  -0.48424
 Alpha  occ. eigenvalues --   -0.48308  -0.48003  -0.47883  -0.47710  -0.47470
 Alpha  occ. eigenvalues --   -0.47147  -0.47089  -0.46870  -0.46774  -0.46378
 Alpha  occ. eigenvalues --   -0.46313  -0.46232  -0.45874  -0.45763  -0.45664
 Alpha  occ. eigenvalues --   -0.45550  -0.45449  -0.45332  -0.45062  -0.45022
 Alpha  occ. eigenvalues --   -0.44579  -0.44472  -0.44418  -0.44382  -0.44290
 Alpha  occ. eigenvalues --   -0.44217  -0.43966  -0.43912  -0.43768  -0.43610
 Alpha  occ. eigenvalues --   -0.43561  -0.43302  -0.43250  -0.43199  -0.42859
 Alpha  occ. eigenvalues --   -0.42803  -0.42461  -0.42365  -0.42291  -0.41949
 Alpha  occ. eigenvalues --   -0.41821  -0.41647  -0.41469  -0.41174  -0.41089
 Alpha  occ. eigenvalues --   -0.41009  -0.40904  -0.40854  -0.40799  -0.40673
 Alpha  occ. eigenvalues --   -0.40670  -0.40590  -0.39937  -0.39711  -0.39638
 Alpha  occ. eigenvalues --   -0.39558  -0.39364  -0.39274  -0.39138  -0.38857
 Alpha  occ. eigenvalues --   -0.38803  -0.38672  -0.38586  -0.38422  -0.38368
 Alpha  occ. eigenvalues --   -0.38244  -0.38102  -0.37775  -0.37760  -0.37678
 Alpha  occ. eigenvalues --   -0.37482  -0.37410  -0.37163  -0.37007  -0.36849
 Alpha  occ. eigenvalues --   -0.36799  -0.36790  -0.36740  -0.36381  -0.36373
 Alpha  occ. eigenvalues --   -0.36009  -0.35953  -0.35684  -0.35635  -0.35510
 Alpha  occ. eigenvalues --   -0.35395  -0.35191  -0.34225  -0.34216  -0.34009
 Alpha  occ. eigenvalues --   -0.33428  -0.33237  -0.32875  -0.32668  -0.32328
 Alpha  occ. eigenvalues --   -0.32090  -0.32025  -0.31667  -0.31546  -0.31206
 Alpha  occ. eigenvalues --   -0.31022  -0.30836  -0.29771  -0.29540  -0.29503
 Alpha  occ. eigenvalues --   -0.29138  -0.28812  -0.28676  -0.26831  -0.26781
 Alpha  occ. eigenvalues --   -0.26629  -0.26329  -0.26144  -0.25366  -0.25301
 Alpha  occ. eigenvalues --   -0.25214  -0.24795  -0.24382  -0.21186  -0.20862
 Alpha  occ. eigenvalues --   -0.18762  -0.18733
 Alpha virt. eigenvalues --   -0.11380  -0.11032  -0.05336  -0.05006  -0.03589
 Alpha virt. eigenvalues --   -0.03528  -0.01943  -0.01879  -0.01531  -0.00845
 Alpha virt. eigenvalues --   -0.00195   0.00256   0.00784   0.00948   0.01266

 Mulliken charges:
               1
     1  Mg  12.000005
     2  C    5.999833
     3  C    6.000391
     4  C    5.999895
     5  C    5.999826
     6  N    6.999990
     7  C    6.000504
     8  C    5.999881
     9  C    6.000185
    10  C    5.999418
    11  C    6.000038
    12  C    5.999897
    13  C    6.000008
    14  H    1.000080
    15  N    7.000072
    16  C    5.999244
    17  C    5.999578
    18  C    5.999628
    19  C    5.999543
    20  C    6.000028
    21  C    5.999749
    22  O    7.999466
    23  C    6.000119
    24  N    6.999947
    25  C    5.999458
    26  C    6.000226
    27  C    5.999780
    28  C    6.000611
    29  C    6.000042
    30  C    6.000002
    31  C    5.999982
    32  N    6.999935
    33  C    6.000689
    34  C    6.000531
    35  C    6.000144
    36  C    6.000473
    37  C    6.000040
    38  C    6.000335
    39  O    8.000851
    40  C    5.999956
    41  C    6.000127
    42  O    8.000033
    43  O    8.000057
    44  C    5.999970
    45  H    0.999886
    46  H    0.999803
    47  H    1.000208
    48  H    1.000003
    49  H    0.999981
    50  H    0.999987
    51  H    0.999829
    52  H    0.999998
    53  H    1.000076
    54  H    0.999967
    55  H    1.000056
    56  H    1.000060
    57  H    0.999628
    58  H    0.999620
    59  H    0.999610
    60  H    0.999894
    61  H    0.999778
    62  H    0.999663
    63  H    0.999965
    64  H    0.999978
    65  H    0.999868
    66  H    1.000084
    67  H    0.999794
    68  H    0.999950
    69  H    1.000173
    70  H    1.000013
    71  H    0.999995
    72  H    1.000062
    73  H    1.000303
    74  H    1.000324
    75  H    1.000319
    76  H    1.000276
    77  H    1.000035
    78  H    1.000137
    79  H    1.000108
    80  Mg  11.999767
    81  C    5.977846
    82  C    5.999532
    83  C    6.032418
    84  C    5.999530
    85  N    6.985161
    86  C    6.028550
    87  C    5.991205
    88  C    6.007950
    89  C    5.974300
    90  C    6.005821
    91  C    5.995857
    92  C    5.999608
    93  H    1.007238
    94  N    7.003497
    95  C    5.962378
    96  C    5.976311
    97  C    5.993006
    98  C    5.960812
    99  C    6.004800
   100  C    5.989152
   101  O    7.982316
   102  C    6.002269
   103  N    7.009678
   104  C    5.962891
   105  C    6.008533
   106  C    5.989113
   107  C    6.029270
   108  C    6.000457
   109  C    5.995801
   110  C    5.998765
   111  N    7.000194
   112  C    6.031298
   113  C    6.032464
   114  C    6.001775
   115  C    6.030126
   116  C    6.000329
   117  C    6.017868
   118  O    8.024720
   119  C    6.000287
   120  C    6.004945
   121  O    8.002733
   122  O    8.001938
   123  C    5.998369
   124  H    0.987299
   125  H    0.996554
   126  H    1.013197
   127  H    1.000893
   128  H    0.999049
   129  H    0.994856
   130  H    1.001216
   131  H    0.984509
   132  H    1.010067
   133  H    0.994251
   134  H    0.997056
   135  H    0.997552
   136  H    0.980823
   137  H    0.985049
   138  H    0.981771
   139  H    0.988676
   140  H    0.989836
   141  H    0.988815
   142  H    1.000151
   143  H    1.004020
   144  H    1.003207
   145  H    0.992226
   146  H    1.003369
   147  H    0.996602
   148  H    1.011483
   149  H    0.996289
   150  H    1.006300
   151  H    1.004232
   152  H    1.015027
   153  H    1.020239
   154  H    1.015768
   155  H    1.007808
   156  H    1.000715
   157  H    1.005483
   158  H    1.004731
 Sum of Mulliken charges = 624.00000

 Dipole moment (field-independent basis, Debye):
    X=             -8.1660    Y=              6.4703    Z=             -1.3257  Tot=             10.5027
 Quadrupole moment (field-independent basis, Debye-Ang):
   XX=            308.7854   YY=             -5.3360   ZZ=              0.2332
   XY=           -127.5405   XZ=             28.0407   YZ=              1.5687

 Normal termination of Gaussian 16 at Thu Oct 14 12:53:45 2021.
