 Gaussian 16, Revision A.03,
 Gaussian 16:  ES64L-G16RevA.03 25-Dec-2016

 --------------------------------------------------------
 #p PBE1PBE/Def2SVP td=(nstates=5) density=(transition=1)
 --------------------------------------------------------

 --------------------------------
 TDDFT excited states in gaussian
 --------------------------------
 Symbolic Z-matrix:
 Charge =  0 Multiplicity = 1

                         Standard orientation:
 ---------------------------------------------------------------------
 Center     Atomic      Atomic             Coordinates (Angstroms)
 Number     Number       Type             X           Y           Z
 ---------------------------------------------------------------------
      1         12           0       -4.915473    0.667434   -0.108062
      2          6           0       -2.933479   -2.177050   -0.804883
      3          6           0       -7.585093   -1.426773    0.357231
      4          6           0       -6.882921    3.331445   -0.104004
      5          6           0       -2.215451    2.667320   -1.088775
      6          7           0       -5.254269   -1.546739   -0.374150
      7          6           0       -4.247791   -2.499208   -0.554558
      8          6           0       -4.800488   -3.913971   -0.252541
      9          6           0       -6.308723   -3.643607    0.100401
     10          6           0       -6.433984   -2.094980    0.076945
     11          6           0       -7.351410   -4.463511   -0.639238
     12          6           0       -4.066055   -4.720920    0.829444
     13          6           0       -3.585221   -6.119694    0.354771
     14          1           0       -4.071693   -7.289595    1.180997
     15          7           0       -6.956365    0.894403    0.187681
     16          6           0       -7.915042   -0.065342    0.329978
     17          6           0       -9.152979    0.597788    0.663969
     18          6           0       -8.993841    2.022207    0.384057
     19          6           0       -7.564835    2.091875    0.120005
     20          6           0      -10.516843   -0.212646    0.969910
     21          6           0       -9.972612    3.080754    0.107091
     22          8           0       -9.753053    4.238415   -0.109398
     23          6           0      -11.434702    2.645343    0.080079
     24          7           0       -4.608340    2.707775   -0.751658
     25          6           0       -5.582977    3.622419   -0.582224
     26          6           0       -5.028971    5.039974   -0.743268
     27          6           0       -3.508736    4.818075   -0.694546
     28          6           0       -3.402588    3.314024   -0.812574
     29          6           0       -5.501791    5.698309   -2.119737
     30          6           0       -2.967062    5.304807    0.744624
     31          6           0       -3.329431    4.389443    1.945884
     32          7           0       -2.901067    0.408990   -0.704220
     33          6           0       -1.957696    1.301317   -1.046283
     34          6           0       -0.754940    0.581415   -1.368225
     35          6           0       -1.077425   -0.756473   -1.239042
     36          6           0       -2.428075   -0.845589   -0.891203
     37          6           0        0.597331    1.119144   -1.796000
     38          6           0       -0.482578   -2.082468   -1.426643
     39          8           0        0.539177   -2.558837   -1.834141
     40          6           0       -1.634474   -3.061582   -1.077548
     41          6           0       -1.827486   -3.896611   -2.289092
     42          8           0       -2.032403   -3.400782   -3.368497
     43          8           0       -1.659683   -5.252575   -2.058595
     44          6           0       -1.542196   -6.125645   -3.274198
     45          1           0       -8.367171   -2.105020    0.705133
     46          1           0       -7.460276    4.252710    0.001669
     47          1           0       -1.271691    3.205445   -1.199465
     48          1           0       -4.819708   -4.485367   -1.180802
     49          1           0       -6.481545   -3.995372    1.117690
     50          1           0       -6.927720   -4.931371   -1.526654
     51          1           0       -8.240280   -3.896490   -0.916970
     52          1           0       -7.606666   -5.287385    0.026753
     53          1           0       -4.611288   -4.972222    1.739223
     54          1           0       -3.198214   -4.173188    1.196090
     55          1           0       -2.506465   -6.140061    0.200293
     56          1           0       -4.018890   -6.297344   -0.628516
     57          1           0      -10.953401    0.202889    1.878054
     58          1           0      -10.409495   -1.276689    1.177183
     59          1           0      -11.284367   -0.257073    0.197267
     60          1           0      -11.606528    2.285776    1.094888
     61          1           0      -11.470551    1.844388   -0.657680
     62          1           0      -12.147424    3.451351   -0.097237
     63          1           0       -5.271348    5.700147    0.090192
     64          1           0       -2.867771    5.219435   -1.479828
     65          1           0       -5.538641    6.775780   -1.956974
     66          1           0       -6.478738    5.425910   -2.520511
     67          1           0       -4.697052    5.459470   -2.814872
     68          1           0       -3.271881    6.322373    0.988269
     69          1           0       -1.880848    5.217258    0.772265
     70          1           0       -3.114490    4.802433    2.930881
     71          1           0       -2.744133    3.475044    1.847612
     72          1           0       -4.387330    4.139342    1.859487
     73          1           0        1.091897    1.738545   -1.048115
     74          1           0        0.362274    1.740297   -2.659907
     75          1           0        1.263895    0.338729   -2.163035
     76          1           0       -1.208521   -3.670712   -0.280486
     77          1           0       -2.193802   -6.939083   -2.955098
     78          1           0       -0.532584   -6.504413   -3.432234
     79          1           0       -1.839238   -5.749023   -4.252666
     80         12           0        4.915021    0.704458    0.315951
     81          6           0        2.769872   -1.966438    1.144723
     82          6           0        7.335906   -1.671943   -0.344854
     83          6           0        7.140928    3.191402   -0.401709
     84          6           0        2.587442    2.906873    1.316456
     85          7           0        5.025236   -1.592230    0.359947
     86          6           0        3.993648   -2.493042    0.595673
     87          6           0        4.414607   -3.894557    0.201576
     88          6           0        5.978577   -3.789889    0.082456
     89          6           0        6.109078   -2.284913    0.013503
     90          6           0        6.802314   -4.497875    1.228522
     91          6           0        3.820108   -4.350873   -1.139135
     92          6           0        3.435280   -5.832109   -1.217978
     93          1           0        4.570520   -6.893343   -1.227076
     94          7           0        6.913544    0.764092   -0.371064
     95          6           0        7.684890   -0.337484   -0.519557
     96          6           0        9.009172    0.076515   -0.852391
     97          6           0        9.014606    1.502538   -1.035322
     98          6           0        7.694394    1.867790   -0.552924
     99          6           0       10.135205   -0.905075   -1.023026
    100          6           0       10.120273    2.474099   -1.448589
    101          8           0        9.877890    3.672381   -1.713015
    102          6           0       11.590942    2.074711   -1.489688
    103          7           0        4.836073    2.730618    0.354079
    104          6           0        5.895331    3.592047    0.084792
    105          6           0        5.462172    4.995802    0.358042
    106          6           0        3.971032    4.994609    0.852777
    107          6           0        3.728111    3.477192    0.812475
    108          6           0        6.453828    5.825836    1.227624
    109          6           0        2.973350    5.768770   -0.035737
    110          6           0        2.697937    7.203316    0.454855
    111          7           0        3.106665    0.574126    1.105768
    112          6           0        2.175477    1.558552    1.433660
    113          6           0        0.853986    0.982589    1.882783
    114          6           0        1.119715   -0.393578    1.795094
    115          6           0        2.441009   -0.594856    1.281177
    116          6           0       -0.381533    1.756865    2.304424
    117          6           0        0.488763   -1.685091    2.021510
    118          8           0       -0.624365   -1.974419    2.462289
    119          6           0        1.532745   -2.749588    1.476208
    120          6           0        1.701692   -3.771649    2.617537
    121          8           0        1.766532   -3.524139    3.804009
    122          8           0        1.599727   -5.054374    2.082511
    123          6           0        1.740526   -6.106110    3.089721
    124          1           0        8.050669   -2.449666   -0.621140
    125          1           0        7.764728    4.062709   -0.610754
    126          1           0        1.938068    3.678340    1.734682
    127          1           0        4.191215   -4.661202    0.943094
    128          1           0        6.397538   -4.239986   -0.817576
    129          1           0        6.215446   -5.084670    1.935762
    130          1           0        7.374715   -3.848373    1.890363
    131          1           0        7.494969   -5.228103    0.810042
    132          1           0        4.502105   -4.148380   -1.964633
    133          1           0        2.885375   -3.828529   -1.343911
    134          1           0        2.770027   -6.035419   -2.057032
    135          1           0        2.791199   -6.117545   -0.386500
    136          1           0       10.041281   -1.507734   -0.119529
    137          1           0       11.152917   -0.515007   -1.023732
    138          1           0       10.039348   -1.566385   -1.883875
    139          1           0       11.886223    1.584274   -0.561974
    140          1           0       12.080567    3.037391   -1.635988
    141          1           0       11.784050    1.369167   -2.297774
    142          1           0        5.594823    5.547145   -0.573327
    143          1           0        3.825842    5.305358    1.888208
    144          1           0        7.267002    5.163401    1.525116
    145          1           0        5.936199    6.161940    2.125667
    146          1           0        6.794984    6.614103    0.555711
    147          1           0        2.092868    5.138261   -0.157481
    148          1           0        3.398587    5.958657   -1.021484
    149          1           0        3.535207    7.553529    1.058855
    150          1           0        1.850422    7.335333    1.127711
    151          1           0        2.638524    7.850780   -0.420497
    152          1           0       -0.811981    2.190815    1.401755
    153          1           0       -0.207113    2.586387    2.989392
    154          1           0       -1.055122    1.019157    2.740215
    155          1           0        1.238060   -3.278573    0.570072
    156          1           0        2.763102   -6.445826    3.256874
    157          1           0        1.103024   -6.907315    2.716133
    158          1           0        1.425902   -5.907064    4.114156
 ---------------------------------------------------------------------

 SCF Done:  E(RPBE1PBE) =  -4067.42427053     A.U. after   16 cycles

 Excitation energies and oscillator strengths:

 Excited State   1:      Singlet-A      1.5306 eV  810.01 nm  f=0.0131  <S**2>=0.000
     312 -> 313        0.69955
 This state for optimization and/or second-order correction.
 Total Energy, E(TD-HF/TD-DFT) =  -4067.36802037
 Copying the excited state density for this state as the 1-particle RhoCI density.

 Excited State   2:      Singlet-A      1.7746 eV  698.65 nm  f=0.3393  <S**2>=0.000
     311 -> 313        0.47323
     311 -> 314        0.46222
     312 -> 314       -0.23644

 Excited State   3:      Singlet-A      1.8134 eV  683.73 nm  f=0.5497  <S**2>=0.000
     310 -> 315       -0.11485
     311 -> 313       -0.17576
     311 -> 314        0.45171
     312 -> 314        0.49838

 Excited State   4:      Singlet-A      1.8835 eV  658.27 nm  f=0.0248  <S**2>=0.000
     309 -> 316        0.10325
     311 -> 313        0.47918
     311 -> 314       -0.28260
     312 -> 314        0.40714

 Excited State   5:      Singlet-A      2.1153 eV  586.14 nm  f=0.0004  <S**2>=0.000
     310 -> 313        0.68930

 The electronic state is 1-A.
 Alpha  occ. eigenvalues --  -46.92684 -46.90915 -19.26252 -19.25804 -19.20454
 Alpha  occ. eigenvalues --  -19.20278 -19.19559 -19.19460 -19.19230 -19.18479
 Alpha  occ. eigenvalues --  -14.41808 -14.41427 -14.41200 -14.40867 -14.39476
 Alpha  occ. eigenvalues --  -14.39223 -14.38930 -14.38639 -10.36519 -10.35755
 Alpha  occ. eigenvalues --  -10.32792 -10.32552 -10.32310 -10.31342 -10.29143
 Alpha  occ. eigenvalues --  -10.29028 -10.28940 -10.28575 -10.28378 -10.28327
 Alpha  occ. eigenvalues --  -10.28290 -10.28265 -10.28250 -10.28171 -10.28119
 Alpha  occ. eigenvalues --  -10.28104 -10.27785 -10.27508 -10.27244 -10.26940
 Alpha  occ. eigenvalues --  -10.26915 -10.26826 -10.26573 -10.26554 -10.26268
 Alpha  occ. eigenvalues --  -10.26215 -10.26023 -10.25994 -10.25841 -10.25811
 Alpha  occ. eigenvalues --  -10.25789 -10.25788 -10.25662 -10.25649 -10.25620
 Alpha  occ. eigenvalues --  -10.25454 -10.25230 -10.25145 -10.25039 -10.24997
 Alpha  occ. eigenvalues --  -10.24995 -10.24739 -10.24708 -10.24575 -10.24341
 Alpha  occ. eigenvalues --  -10.24195 -10.24185 -10.24068 -10.23993 -10.23961
 Alpha  occ. eigenvalues --  -10.23815 -10.23785 -10.23753 -10.23751 -10.23623
 Alpha  occ. eigenvalues --  -10.23510 -10.23430 -10.23413 -10.23405 -10.23205
 Alpha  occ. eigenvalues --  -10.23175 -10.23165 -10.23162 -10.22999 -10.22547
 Alpha  occ. eigenvalues --  -10.22222  -3.14668  -3.13272  -1.87489  -1.87056
 Alpha  occ. eigenvalues --   -1.86885  -1.86112  -1.85624  -1.85542  -1.10889
 Alpha  occ. eigenvalues --   -1.10429  -1.06864  -1.05690  -1.04107  -1.03438
 Alpha  occ. eigenvalues --   -1.02863  -1.02444  -0.99626  -0.99022  -0.98768
 Alpha  occ. eigenvalues --   -0.98342  -0.98094  -0.97673  -0.96326  -0.96030
 Alpha  occ. eigenvalues --   -0.86714  -0.86506  -0.83325  -0.83087  -0.83061
 Alpha  occ. eigenvalues --   -0.82673  -0.82517  -0.82407  -0.81909  -0.81706
 Alpha  occ. eigenvalues --   -0.81108  -0.80654  -0.80430  -0.80365  -0.78462
 Alpha  occ. eigenvalues --   -0.78289  -0.77888  -0.77649  -0.76572  -0.76335
 Alpha  occ. eigenvalues --   -0.75640  -0.75272  -0.75117  -0.75074  -0.74255
 Alpha  occ. eigenvalues --   -0.74220  -0.72610  -0.72510  -0.71765  -0.71611
 Alpha  occ. eigenvalues --   -0.71215  -0.70824  -0.70253  -0.70244  -0.69392
 Alpha  occ. eigenvalues --   -0.69305  -0.67329  -0.67039  -0.66052  -0.65918
 Alpha  occ. eigenvalues --   -0.63626  -0.63527  -0.63511  -0.63268  -0.62333
 Alpha  occ. eigenvalues --   -0.62295  -0.61385  -0.61230  -0.59945  -0.59739
 Alpha  occ. eigenvalues --   -0.59621  -0.59608  -0.59450  -0.58877  -0.58874
 Alpha  occ. eigenvalues --   -0.58621  -0.57035  -0.56822  -0.54862  -0.54621
 Alpha  occ. eigenvalues --   -0.54482  -0.54097  -0.53731  -0.53359  -0.53113
 Alpha  occ. eigenvalues --   -0.53035  -0.52611  -0.52205  -0.52101  -0.51652
 Alpha  occ. eigenvalues --   -0.50520  -0.50378  -0.49907  -0.49790  -0.49646
 Alpha  occ. eigenvalues --   -0.49608  -0.49021  -0.48917  -0.48651  -0.48244
 Alpha  occ. eigenvalues --   -0.47838  -0.47765  -0.47659  -0.47568  -0.47293
 Alpha  occ. eigenvalues --   -0.47093  -0.47030  -0.46926  -0.46525  -0.46466
 Alpha  occ. eigenvalues --   -0.46395  -0.46279  -0.46136  -0.46094  -0.45686
 Alpha  occ. eigenvalues --   -0.45475  -0.44933  -0.44884  -0.44697  -0.44555
 Alpha  occ. eigenvalues --   -0.44454  -0.44381  -0.44175  -0.44007  -0.43889
 Alpha  occ. eigenvalues --   -0.43815  -0.43744  -0.43662  -0.43536  -0.43250
 Alpha  occ. eigenvalues --   -0.42922  -0.42884  -0.42771  -0.42675  -0.42430
 Alpha  occ. eigenvalues --   -0.42318  -0.42139  -0.42086  -0.41979  -0.41898
 Alpha  occ. eigenvalues --   -0.41689  -0.41272  -0.41141  -0.41044  -0.41032
 Alpha  occ. eigenvalues --   -0.40813  -0.40682  -0.40597  -0.40507  -0.40318
 Alpha  occ. eigenvalues --   -0.40213  -0.40136  -0.39952  -0.39762  -0.39613
 Alpha  occ. eigenvalues --   -0.39226  -0.39145  -0.39077  -0.38942  -0.38919
 Alpha  occ. eigenvalues --   -0.38691  -0.38424  -0.38380  -0.38308  -0.38086
 Alpha  occ. eigenvalues --   -0.37945  -0.37799  -0.37717  -0.37620  -0.37493
 Alpha  occ. eigenvalues --   -0.37365  -0.37164  -0.37035  -0.36963  -0.36814
 Alpha  occ. eigenvalues --   -0.36752  -0.36671  -0.36433  -0.36250  -0.36165
 Alpha  occ. eigenvalues --   -0.35994  -0.35929  -0.35557  -0.35439  -0.35170
 Alpha  occ. eigenvalues --   -0.35066  -0.34693  -0.34638  -0.34366  -0.33955
 Alpha  occ. eigenvalues --   -0.33702  -0.33177  -0.32897  -0.32821  -0.32755
 Alpha  occ. eigenvalues --   -0.32517  -0.31971  -0.31905  -0.31530  -0.31247
 Alpha  occ. eigenvalues --   -0.31146  -0.31008  -0.30185  -0.29687  -0.29345
 Alpha  occ. eigenvalues --   -0.28942  -0.28718  -0.28351  -0.27079  -0.26598
 Alpha  occ. eigenvalues --   -0.26345  -0.26303  -0.25957  -0.25883  -0.25738
 Alpha  occ. eigenvalues --   -0.25488  -0.25378  -0.24960  -0.20929  -0.20687
 Alpha  occ. eigenvalues --   -0.18983  -0.18563
 Alpha virt. eigenvalues --   -0.11455  -0.10925  -0.05134  -0.04791  -0.04392
 Alpha virt. eigenvalues --   -0.03583  -0.02550  -0.01771  -0.00642   0.00493
 Alpha virt. eigenvalues --    0.00703   0.00884   0.01324   0.01540   0.02204

 Mulliken charges:
               1
     1  Mg  12.000655
     2  C    6.001024
     3  C    6.000941
     4  C    5.999421
     5  C    6.000498
     6  N    7.000667
     7  C    5.999428
     8  C    6.000395
     9  C    5.999660
    10  C    6.000298
    11  C    5.999755
    12  C    5.999691
    13  C    5.999714
    14  H    1.000766
    15  N    6.999757
    16  C    6.000624
    17  C    6.001061
    18  C    6.000711
    19  C    6.000908
    20  C    5.999867
    21  C    6.000384
    22  O    8.001175
    23  C    5.999898
    24  N    6.999137
    25  C    6.001227
    26  C    5.999502
    27  C    6.000159
    28  C    5.999326
    29  C    5.999833
    30  C    5.999965
    31  C    5.999988
    32  N    7.000658
    33  C    5.998167
    34  C    6.001819
    35  C    5.998571
    36  C    5.998823
    37  C    5.999025
    38  C    6.001171
    39  O    8.001656
    40  C    5.999715
    41  C    6.000027
    42  O    8.000320
    43  O    8.000007
    44  C    5.999802
    45  H    1.000966
    46  H    1.000476
    47  H    0.999778
    48  H    1.000418
    49  H    1.000445
    50  H    1.000642
    51  H    1.000110
    52  H    1.000593
    53  H    1.000259
    54  H    0.999812
    55  H    1.000286
    56  H    1.000223
    57  H    1.000833
    58  H    1.000645
    59  H    1.000956
    60  H    1.000304
    61  H    1.000186
    62  H    1.000834
    63  H    1.000349
    64  H    1.000585
    65  H    1.000577
    66  H    1.000065
    67  H    1.000509
    68  H    1.000419
    69  H    1.000401
    70  H    1.000501
    71  H    0.999485
    72  H    0.999901
    73  H    1.000662
    74  H    1.002289
    75  H    1.001684
    76  H    1.000172
    77  H    1.000138
    78  H    1.000644
    79  H    1.000251
    80  Mg  11.998697
    81  C    5.998141
    82  C    5.999273
    83  C    6.002264
    84  C    6.001299
    85  N    6.999197
    86  C    6.001386
    87  C    5.999218
    88  C    6.001229
    89  C    5.996974
    90  C    6.000566
    91  C    5.999459
    92  C    6.000158
    93  H    1.000750
    94  N    7.000581
    95  C    5.997054
    96  C    5.997275
    97  C    5.999030
    98  C    5.996151
    99  C    6.000381
   100  C    5.998868
   101  O    7.997406
   102  C    6.000395
   103  N    7.001641
   104  C    5.995389
   105  C    6.001315
   106  C    6.000079
   107  C    5.998516
   108  C    6.000203
   109  C    5.999916
   110  C    6.000119
   111  N    7.001558
   112  C    5.997682
   113  C    6.007618
   114  C    5.997564
   115  C    6.001728
   116  C    5.998466
   117  C    6.002836
   118  O    8.003914
   119  C    5.999224
   120  C    6.000988
   121  O    8.000023
   122  O    8.000134
   123  C    5.999892
   124  H    0.998161
   125  H    0.998972
   126  H    0.999269
   127  H    0.999216
   128  H    0.999308
   129  H    0.998149
   130  H    0.999895
   131  H    0.999253
   132  H    1.000966
   133  H    0.999292
   134  H    0.999386
   135  H    0.999240
   136  H    0.998391
   137  H    0.998090
   138  H    0.997634
   139  H    0.999292
   140  H    0.998464
   141  H    0.999086
   142  H    0.998878
   143  H    0.998866
   144  H    1.000065
   145  H    0.998567
   146  H    0.999265
   147  H    0.998834
   148  H    1.000117
   149  H    1.000404
   150  H    0.999118
   151  H    0.999715
   152  H    1.002038
   153  H    1.002634
   154  H    1.000609
   155  H    1.000772
   156  H    1.000904
   157  H    1.000023
   158  H    0.999978
 Sum of Mulliken charges = 624.00000

 Dipole moment (field-independent basis, Debye):
    X=             -2.1057    Y=             -0.1850    Z=              0.2108  Tot=              2.1243
 Quadrupole moment (field-independent basis, Debye-Ang):
   XX=             -7.4573   YY=             -0.3124   ZZ=              0.5213
   XY=             -1.5242   XZ=              0.8046   YZ=              0.0372

 Normal termination of Gaussian 16 at Thu Oct 14 21:28:38 2021.
