 Gaussian 16, Revision A.03,
 Gaussian 16:  ES64L-G16RevA.03 25-Dec-2016

 --------------------------------------------------------
 #p PBE1PBE/Def2SVP td=(nstates=5) density=(transition=1)
 --------------------------------------------------------

 --------------------------------
 TDDFT excited states in gaussian
 --------------------------------
 Symbolic Z-matrix:
 Charge =  0 Multiplicity = 1

                         Standard orientation:
 ---------------------------------------------------------------------
 Center     Atomic      Atomic             Coordinates (Angstroms)
 Number     Number       Type             X           Y           Z
 ---------------------------------------------------------------------
      1         12           0      -22.108860    0.097332   -0.594938
      2          6           0      -18.729409   -0.148601    0.573494
      3          6           0      -22.355659   -3.397031   -0.097357
      4          6           0      -25.436087    0.374163   -0.931416
      5          6           0      -21.843419    3.530939   -0.364150
      6          7           0      -20.702383   -1.614767    0.146870
      7          6           0      -19.424051   -1.385943    0.573114
      8          6           0      -18.890216   -2.625794    1.272854
      9          6           0      -19.972554   -3.667836    0.764838
     10          6           0      -21.120849   -2.901608    0.227874
     11          6           0      -19.509238   -4.724724   -0.293259
     12          6           0      -18.741127   -2.355988    2.804558
     13          6           0      -17.430096   -2.819094    3.563181
     14          1           0      -17.531218   -3.852126    4.699839
     15          7           0      -23.620171   -1.253188   -0.714782
     16          6           0      -23.547382   -2.654939   -0.500839
     17          6           0      -24.846086   -3.268565   -0.708172
     18          6           0      -25.740040   -2.146171   -0.944054
     19          6           0      -24.918555   -0.952227   -0.874795
     20          6           0      -25.062567   -4.711092   -0.512169
     21          6           0      -27.241686   -2.322894   -1.228980
     22          8           0      -27.692077   -3.502771   -1.145877
     23          6           0      -28.222296   -1.191202   -1.603098
     24          7           0      -23.576951    1.712590   -0.387586
     25          6           0      -24.842151    1.598518   -0.743371
     26          6           0      -25.484360    2.944965   -0.651256
     27          6           0      -24.289087    3.927536   -0.528782
     28          6           0      -23.132711    2.997686   -0.324935
     29          6           0      -26.520372    3.407755   -1.762916
     30          6           0      -24.415595    5.024755    0.649793
     31          6           0      -24.507138    6.520476    0.260063
     32          7           0      -20.611640    1.431508   -0.225296
     33          6           0      -20.637573    2.773625   -0.164995
     34          6           0      -19.361230    3.305940    0.143987
     35          6           0      -18.574556    2.179488    0.395602
     36          6           0      -19.391954    1.037531    0.200523
     37          6           0      -18.882642    4.700499    0.210381
     38          6           0      -17.252620    1.827406    0.813440
     39          8           0      -16.343468    2.559762    1.133822
     40          6           0      -17.321400    0.181833    0.998532
     41          6           0      -16.334219   -0.460200    0.122449
     42          8           0      -16.111388   -0.154355   -1.055822
     43          8           0      -15.747650   -1.466620    0.859724
     44          6           0      -14.715342   -2.250188    0.183216
     45          1           0      -22.494080   -4.471497    0.032266
     46          1           0      -26.516669    0.529235   -0.937883
     47          1           0      -21.649010    4.596952   -0.500692
     48          1           0      -17.965649   -2.890681    0.759266
     49          1           0      -20.277084   -4.049918    1.739905
     50          1           0      -20.162481   -4.622454   -1.160995
     51          1           0      -19.599647   -5.758711    0.038871
     52          1           0      -18.505591   -4.581219   -0.694674
     53          1           0      -19.596999   -2.925727    3.165787
     54          1           0      -18.912436   -1.329066    3.126549
     55          1           0      -16.986087   -1.894968    3.932792
     56          1           0      -16.693868   -3.111473    2.815076
     57          1           0      -24.673980   -4.945990    0.479030
     58          1           0      -24.450191   -5.277508   -1.213481
     59          1           0      -26.062291   -5.106697   -0.693368
     60          1           0      -28.394552   -0.588369   -0.711306
     61          1           0      -29.003462   -1.695647   -2.170846
     62          1           0      -27.650780   -0.611979   -2.329120
     63          1           0      -26.081792    2.940950    0.259583
     64          1           0      -24.188471    4.281199   -1.554968
     65          1           0      -27.185540    4.095390   -1.240003
     66          1           0      -27.026019    2.524353   -2.152506
     67          1           0      -25.943222    3.941055   -2.518491
     68          1           0      -23.538601    4.835215    1.268489
     69          1           0      -25.241528    4.718495    1.291641
     70          1           0      -23.810764    7.145404    0.817604
     71          1           0      -25.528750    6.860950    0.430907
     72          1           0      -24.366015    6.705082   -0.805045
     73          1           0      -17.796159    4.757851    0.152392
     74          1           0      -19.268967    4.936734    1.202037
     75          1           0      -19.534610    5.309174   -0.416034
     76          1           0      -17.271827   -0.100678    2.049508
     77          1           0      -13.956912   -1.612180   -0.271038
     78          1           0      -15.174678   -2.893984   -0.568323
     79          1           0      -14.211839   -2.873605    0.922129
     80         12           0       21.465279    0.745983   -0.211324
     81          6           0       21.340971   -2.722348    0.112383
     82          6           0       18.510586    0.975097    1.549889
     83          6           0       21.835539    3.989510   -0.544092
     84          6           0       24.993630    0.424122   -1.065541
     85          7           0       20.033261   -0.815528    0.687361
     86          6           0       20.194972   -2.171868    0.729998
     87          6           0       19.027847   -2.826590    1.379533
     88          6           0       18.137102   -1.620688    1.880649
     89          6           0       18.916128   -0.355006    1.348684
     90          6           0       16.633899   -1.732311    1.521807
     91          6           0       19.429413   -3.766220    2.542406
     92          6           0       18.798308   -5.146257    2.366170
     93          1           0       17.981844   -5.721799    3.562473
     94          7           0       20.302294    2.278354    0.395092
     95          6           0       19.087491    2.200711    1.074615
     96          6           0       18.610531    3.574036    1.174231
     97          6           0       19.561707    4.492529    0.527887
     98          6           0       20.632803    3.585089    0.007713
     99          6           0       17.458537    3.945873    1.965741
    100          6           0       19.429302    5.956245    0.618709
    101          8           0       18.506520    6.525937    1.162633
    102          6           0       20.463389    6.914591    0.140062
    103          7           0       23.134958    1.956104   -0.671476
    104          6           0       22.925895    3.266526   -1.019538
    105          6           0       24.230001    3.906906   -1.445966
    106          6           0       25.258415    2.887923   -1.124625
    107          6           0       24.465217    1.703134   -0.874249
    108          6           0       24.246308    4.480220   -2.922064
    109          6           0       26.037931    3.193789    0.200218
    110          6           0       27.412648    2.712131    0.277401
    111          7           0       22.921049   -0.811616   -0.474350
    112          6           0       24.262824   -0.807237   -0.877492
    113          6           0       24.659080   -2.144063   -1.191735
    114          6           0       23.588904   -2.934858   -0.790367
    115          6           0       22.541457   -2.069643   -0.311397
    116          6           0       25.981924   -2.504513   -1.760027
    117          6           0       23.149001   -4.264448   -0.637816
    118          8           0       23.709287   -5.305778   -0.898085
    119          6           0       21.696598   -4.190020   -0.116287
    120          6           0       20.814041   -4.908646   -1.049093
    121          8           0       20.290799   -4.426452   -2.067773
    122          8           0       20.779815   -6.242926   -0.714430
    123          6           0       19.897458   -7.154822   -1.424121
    124          1           0       17.544387    0.967820    2.057590
    125          1           0       22.115193    5.039352   -0.662364
    126          1           0       26.046805    0.375374   -1.350050
    127          1           0       18.437807   -3.206519    0.545027
    128          1           0       18.098062   -1.529667    2.965705
    129          1           0       16.527103   -2.795402    1.302723
    130          1           0       16.265729   -1.062725    0.744428
    131          1           0       16.026879   -1.508115    2.398602
    132          1           0       19.048599   -3.456625    3.515491
    133          1           0       20.518669   -3.802117    2.540551
    134          1           0       19.706128   -5.748145    2.327760
    135          1           0       18.273177   -5.141401    1.412157
    136          1           0       17.021338    3.033649    2.372266
    137          1           0       16.631134    4.401742    1.421143
    138          1           0       17.781362    4.565640    2.803004
    139          1           0       20.649662    6.487348   -0.845280
    140          1           0       21.341155    6.828337    0.781065
    141          1           0       20.063974    7.926697    0.071642
    142          1           0       24.295992    4.779246   -0.796802
    143          1           0       25.935982    2.578327   -1.920401
    144          1           0       23.239914    4.484686   -3.341112
    145          1           0       24.998950    4.041188   -3.577886
    146          1           0       24.434098    5.552786   -2.962917
    147          1           0       25.468307    2.809742    1.046555
    148          1           0       26.099962    4.268642    0.369616
    149          1           0       28.069834    3.464915   -0.159297
    150          1           0       27.537621    1.738350   -0.197283
    151          1           0       27.755905    2.748933    1.311791
    152          1           0       26.310195   -1.767221   -2.492526
    153          1           0       26.021918   -3.506285   -2.188061
    154          1           0       26.662891   -2.378167   -0.918296
    155          1           0       21.542439   -4.770810    0.793216
    156          1           0       20.141233   -7.439625   -2.447677
    157          1           0       18.876132   -6.776691   -1.384116
    158          1           0       19.993169   -8.090844   -0.875097
 ---------------------------------------------------------------------

 SCF Done:  E(RPBE1PBE) =  -4067.33223090     A.U. after   16 cycles

 Excitation energies and oscillator strengths:

 Excited State   1:      Singlet-A      1.8373 eV  674.81 nm  f=0.3529  <S**2>=0.000
     309 -> 315       -0.18249
     311 -> 313        0.68970
     311 <- 313       -0.10419
 This state for optimization and/or second-order correction.
 Total Energy, E(TD-HF/TD-DFT) =  -4067.26471056
 Copying the excited state density for this state as the 1-particle RhoCI density.

 Excited State   2:      Singlet-A      1.8633 eV  665.42 nm  f=0.3806  <S**2>=0.000
     310 -> 316       -0.18030
     312 -> 314        0.69233
     312 <- 314       -0.10914

 Excited State   3:      Singlet-A      1.9145 eV  647.61 nm  f=0.0000  <S**2>=0.000
     312 -> 313        0.70711

 Excited State   4:      Singlet-A      2.0571 eV  602.72 nm  f=0.0000  <S**2>=0.000
     311 -> 314        0.70711

 Excited State   5:      Singlet-A      2.1967 eV  564.41 nm  f=0.0972  <S**2>=0.000
     309 -> 313        0.64583
     311 -> 315        0.27301

 The electronic state is 1-A.
 Alpha  occ. eigenvalues --  -46.92309 -46.92286 -19.26853 -19.25508 -19.20714
 Alpha  occ. eigenvalues --  -19.19961 -19.19569 -19.18617 -19.18419 -19.17576
 Alpha  occ. eigenvalues --  -14.41820 -14.41439 -14.41384 -14.40961 -14.39909
 Alpha  occ. eigenvalues --  -14.39598 -14.39442 -14.38843 -10.37022 -10.36078
 Alpha  occ. eigenvalues --  -10.32577 -10.32472 -10.31342 -10.30791 -10.29614
 Alpha  occ. eigenvalues --  -10.29315 -10.29310 -10.29170 -10.28923 -10.28875
 Alpha  occ. eigenvalues --  -10.28709 -10.28696 -10.28489 -10.28275 -10.28236
 Alpha  occ. eigenvalues --  -10.28110 -10.28041 -10.28028 -10.27685 -10.27430
 Alpha  occ. eigenvalues --  -10.26823 -10.26751 -10.26485 -10.26476 -10.26389
 Alpha  occ. eigenvalues --  -10.26317 -10.26290 -10.26187 -10.26145 -10.26127
 Alpha  occ. eigenvalues --  -10.26015 -10.25789 -10.25738 -10.25670 -10.25599
 Alpha  occ. eigenvalues --  -10.25439 -10.25438 -10.25418 -10.25356 -10.25187
 Alpha  occ. eigenvalues --  -10.25126 -10.25097 -10.25069 -10.25038 -10.24917
 Alpha  occ. eigenvalues --  -10.24906 -10.24896 -10.24798 -10.24776 -10.24749
 Alpha  occ. eigenvalues --  -10.24292 -10.24278 -10.24153 -10.24091 -10.24002
 Alpha  occ. eigenvalues --  -10.23931 -10.23895 -10.23691 -10.23684 -10.23511
 Alpha  occ. eigenvalues --  -10.22976 -10.22525 -10.22502 -10.22461 -10.22282
 Alpha  occ. eigenvalues --  -10.22241  -3.14419  -3.14381  -1.87248  -1.87224
 Alpha  occ. eigenvalues --   -1.86781  -1.86764  -1.86659  -1.86594  -1.11236
 Alpha  occ. eigenvalues --   -1.10193  -1.05571  -1.04838  -1.04558  -1.02900
 Alpha  occ. eigenvalues --   -1.01981  -1.01485  -1.00109  -0.99582  -0.99400
 Alpha  occ. eigenvalues --   -0.98459  -0.98331  -0.97620  -0.97027  -0.96157
 Alpha  occ. eigenvalues --   -0.87479  -0.87012  -0.85100  -0.83845  -0.83666
 Alpha  occ. eigenvalues --   -0.83369  -0.82607  -0.82411  -0.82284  -0.82043
 Alpha  occ. eigenvalues --   -0.81813  -0.81595  -0.80542  -0.80338  -0.79518
 Alpha  occ. eigenvalues --   -0.78935  -0.78856  -0.78104  -0.77730  -0.76973
 Alpha  occ. eigenvalues --   -0.76790  -0.76208  -0.75725  -0.75692  -0.75147
 Alpha  occ. eigenvalues --   -0.74787  -0.73004  -0.72576  -0.72276  -0.71952
 Alpha  occ. eigenvalues --   -0.71403  -0.71188  -0.70613  -0.70574  -0.69731
 Alpha  occ. eigenvalues --   -0.69705  -0.67859  -0.67664  -0.66660  -0.66480
 Alpha  occ. eigenvalues --   -0.64161  -0.63836  -0.63792  -0.63465  -0.62845
 Alpha  occ. eigenvalues --   -0.62338  -0.61856  -0.61212  -0.60924  -0.60584
 Alpha  occ. eigenvalues --   -0.60404  -0.60146  -0.59801  -0.59646  -0.59287
 Alpha  occ. eigenvalues --   -0.59266  -0.57492  -0.56607  -0.55289  -0.54714
 Alpha  occ. eigenvalues --   -0.54551  -0.54066  -0.54048  -0.54001  -0.53626
 Alpha  occ. eigenvalues --   -0.53466  -0.52915  -0.52530  -0.52218  -0.51843
 Alpha  occ. eigenvalues --   -0.50980  -0.50769  -0.50417  -0.50381  -0.50151
 Alpha  occ. eigenvalues --   -0.50031  -0.49728  -0.49433  -0.49111  -0.49013
 Alpha  occ. eigenvalues --   -0.48814  -0.48312  -0.47964  -0.47895  -0.47556
 Alpha  occ. eigenvalues --   -0.47454  -0.47093  -0.47085  -0.46757  -0.46600
 Alpha  occ. eigenvalues --   -0.46475  -0.46327  -0.46312  -0.46268  -0.45960
 Alpha  occ. eigenvalues --   -0.45924  -0.45870  -0.45807  -0.45163  -0.45003
 Alpha  occ. eigenvalues --   -0.44955  -0.44641  -0.44575  -0.44517  -0.44221
 Alpha  occ. eigenvalues --   -0.44183  -0.44093  -0.44029  -0.43766  -0.43476
 Alpha  occ. eigenvalues --   -0.43474  -0.43214  -0.43152  -0.43094  -0.42556
 Alpha  occ. eigenvalues --   -0.42427  -0.42353  -0.42324  -0.42289  -0.42153
 Alpha  occ. eigenvalues --   -0.41827  -0.41749  -0.41713  -0.41486  -0.41369
 Alpha  occ. eigenvalues --   -0.41264  -0.41131  -0.41016  -0.40872  -0.40784
 Alpha  occ. eigenvalues --   -0.40687  -0.40490  -0.40369  -0.40074  -0.40050
 Alpha  occ. eigenvalues --   -0.39783  -0.39740  -0.39319  -0.39310  -0.39234
 Alpha  occ. eigenvalues --   -0.38866  -0.38565  -0.38510  -0.38430  -0.38349
 Alpha  occ. eigenvalues --   -0.38210  -0.38094  -0.38083  -0.37918  -0.37879
 Alpha  occ. eigenvalues --   -0.37802  -0.37762  -0.37643  -0.37405  -0.37222
 Alpha  occ. eigenvalues --   -0.36948  -0.36600  -0.36423  -0.36353  -0.36136
 Alpha  occ. eigenvalues --   -0.36122  -0.36046  -0.35914  -0.35698  -0.35576
 Alpha  occ. eigenvalues --   -0.35278  -0.35178  -0.35140  -0.34074  -0.33934
 Alpha  occ. eigenvalues --   -0.33741  -0.33513  -0.33220  -0.32668  -0.32639
 Alpha  occ. eigenvalues --   -0.32579  -0.32304  -0.32011  -0.31517  -0.31386
 Alpha  occ. eigenvalues --   -0.31232  -0.30860  -0.29917  -0.29519  -0.29270
 Alpha  occ. eigenvalues --   -0.28911  -0.28634  -0.28215  -0.27019  -0.26990
 Alpha  occ. eigenvalues --   -0.26111  -0.25710  -0.25685  -0.25476  -0.25198
 Alpha  occ. eigenvalues --   -0.25041  -0.24901  -0.24314  -0.21251  -0.21144
 Alpha  occ. eigenvalues --   -0.19211  -0.18942
 Alpha virt. eigenvalues --   -0.11603  -0.11348  -0.05957  -0.05219  -0.03936
 Alpha virt. eigenvalues --   -0.03925  -0.02038  -0.02036  -0.00548  -0.00187
 Alpha virt. eigenvalues --   -0.00179  -0.00038   0.00754   0.00897   0.01233

 Mulliken charges:
               1
     1  Mg  12.000008
     2  C    6.000292
     3  C    5.999685
     4  C    5.999689
     5  C    6.000404
     6  N    6.999781
     7  C    5.999495
     8  C    6.000209
     9  C    5.999809
    10  C    6.000632
    11  C    5.999944
    12  C    6.000149
    13  C    6.000021
    14  H    0.999819
    15  N    6.999860
    16  C    6.001031
    17  C    6.000321
    18  C    6.000256
    19  C    6.000737
    20  C    5.999960
    21  C    6.000244
    22  O    8.000556
    23  C    6.000122
    24  N    6.999996
    25  C    6.000653
    26  C    5.999722
    27  C    6.000233
    28  C    5.999295
    29  C    5.999981
    30  C    6.000038
    31  C    6.000008
    32  N    7.000083
    33  C    5.999264
    34  C    5.999359
    35  C    5.999939
    36  C    5.999356
    37  C    5.999939
    38  C    5.999612
    39  O    7.999316
    40  C    5.999935
    41  C    5.999812
    42  O    7.999931
    43  O    7.999965
    44  C    6.000033
    45  H    1.000235
    46  H    1.000181
    47  H    0.999818
    48  H    0.999982
    49  H    1.000063
    50  H    0.999923
    51  H    1.000065
    52  H    1.000245
    53  H    0.999777
    54  H    1.000088
    55  H    1.000014
    56  H    0.999984
    57  H    1.000426
    58  H    1.000460
    59  H    1.000318
    60  H    1.000210
    61  H    1.000276
    62  H    1.000139
    63  H    1.000047
    64  H    0.999944
    65  H    1.000124
    66  H    0.999883
    67  H    1.000142
    68  H    1.000095
    69  H    0.999829
    70  H    1.000022
    71  H    0.999910
    72  H    0.999975
    73  H    0.999673
    74  H    0.999589
    75  H    0.999595
    76  H    0.999779
    77  H    0.999895
    78  H    0.999917
    79  H    0.999884
    80  Mg  12.001474
    81  C    6.013422
    82  C    5.986766
    83  C    5.983164
    84  C    6.015149
    85  N    7.004422
    86  C    5.970057
    87  C    6.012426
    88  C    5.992505
    89  C    6.026511
    90  C    5.997352
    91  C    6.000963
    92  C    6.001159
    93  H    0.992636
    94  N    6.991415
    95  C    6.040793
    96  C    6.021960
    97  C    6.010998
    98  C    6.035832
    99  C    5.990597
   100  C    6.006906
   101  O    8.017595
   102  C    5.999557
   103  N    7.005880
   104  C    6.031969
   105  C    5.992809
   106  C    6.006847
   107  C    5.965064
   108  C    5.999244
   109  C    6.006223
   110  C    6.000953
   111  N    7.001812
   112  C    5.961318
   113  C    5.975417
   114  C    5.996596
   115  C    5.970306
   116  C    6.000512
   117  C    5.981717
   118  O    7.969375
   119  C    6.002684
   120  C    5.995323
   121  O    7.991706
   122  O    8.000207
   123  C    6.003208
   124  H    1.009414
   125  H    1.010554
   126  H    0.991271
   127  H    0.996801
   128  H    1.000510
   129  H    1.010982
   130  H    0.997465
   131  H    0.999722
   132  H    0.992964
   133  H    1.006649
   134  H    1.004064
   135  H    0.999551
   136  H    1.018253
   137  H    1.020714
   138  H    1.018860
   139  H    1.005677
   140  H    1.009842
   141  H    1.011400
   142  H    0.999099
   143  H    1.002494
   144  H    0.997576
   145  H    1.011633
   146  H    1.001579
   147  H    0.995119
   148  H    0.986706
   149  H    0.995049
   150  H    1.005645
   151  H    0.996579
   152  H    0.982634
   153  H    0.987464
   154  H    0.982699
   155  H    0.990804
   156  H    0.997201
   157  H    0.993973
   158  H    0.996225
 Sum of Mulliken charges = 624.00000

 Dipole moment (field-independent basis, Debye):
    X=             -6.1120    Y=              7.7819    Z=              1.8362  Tot=             10.0641
 Quadrupole moment (field-independent basis, Debye-Ang):
   XX=           -249.0156   YY=              8.3705   ZZ=              0.6978
   XY=            168.1384   XZ=             39.9937   YZ=             -0.2339

 Normal termination of Gaussian 16 at Thu Oct 14 10:35:01 2021.
