 Gaussian 16, Revision A.03,
 Gaussian 16:  ES64L-G16RevA.03 25-Dec-2016

 --------------------------------------------------------
 #p PBE1PBE/Def2SVP td=(nstates=5) density=(transition=1)
 --------------------------------------------------------

 --------------------------------
 TDDFT excited states in gaussian
 --------------------------------
 Symbolic Z-matrix:
 Charge =  0 Multiplicity = 1

                         Standard orientation:
 ---------------------------------------------------------------------
 Center     Atomic      Atomic             Coordinates (Angstroms)
 Number     Number       Type             X           Y           Z
 ---------------------------------------------------------------------
      1         12           0        9.226556   -0.322606   -0.251898
      2          6           0        7.176194    2.427865   -0.278399
      3          6           0       11.813799    1.694274    0.745998
      4          6           0       11.341039   -3.070566   -0.328252
      5          6           0        6.702176   -2.222171   -1.680015
      6          7           0        9.511071    1.866568    0.150015
      7          6           0        8.466974    2.747066    0.146731
      8          6           0        8.900139    4.071255    0.554975
      9          6           0       10.410932    3.977687    0.699097
     10          6           0       10.649882    2.418131    0.493051
     11          6           0       11.313847    4.850237   -0.239700
     12          6           0        8.167973    4.545090    1.856491
     13          6           0        7.883868    6.080641    1.995553
     14          1           0        8.854187    7.043705    1.283777
     15          7           0       11.277668   -0.633170    0.272948
     16          6           0       12.157205    0.355231    0.680252
     17          6           0       13.480298   -0.254224    0.924125
     18          6           0       13.355792   -1.677087    0.614685
     19          6           0       11.957198   -1.860516    0.189467
     20          6           0       14.715967    0.510791    1.369311
     21          6           0       14.391262   -2.758373    0.818236
     22          8           0       14.086946   -3.939164    0.574174
     23          6           0       15.785749   -2.520523    1.263087
     24          7           0        9.087098   -2.344056   -0.979089
     25          6           0       10.059827   -3.248646   -0.835323
     26          6           0        9.568646   -4.647283   -1.244316
     27          6           0        7.967355   -4.469840   -1.456709
     28          6           0        7.898136   -2.911840   -1.281743
     29          6           0       10.339380   -5.178053   -2.492203
     30          6           0        7.070604   -5.182457   -0.407506
     31          6           0        6.241863   -6.364262   -0.932778
     32          7           0        7.322752    0.002683   -0.940367
     33          6           0        6.394897   -0.864976   -1.521127
     34          6           0        5.136549   -0.143466   -1.813915
     35          6           0        5.450111    1.153086   -1.342266
     36          6           0        6.777069    1.190128   -0.836448
     37          6           0        3.904469   -0.665948   -2.369341
     38          6           0        4.864473    2.485352   -1.086836
     39          8           0        3.752944    2.914105   -1.249365
     40          6           0        5.984785    3.365516   -0.426616
     41          6           0        6.133165    4.598416   -1.216371
     42          8           0        6.655343    4.562254   -2.342226
     43          8           0        5.791002    5.742628   -0.563019
     44          6           0        6.094896    7.025341   -1.189479
     45          1           0       12.615739    2.363574    1.064431
     46          1           0       12.031640   -3.915135   -0.380347
     47          1           0        5.900445   -2.886971   -2.007920
     48          1           0        8.660422    4.764264   -0.252219
     49          1           0       10.719131    4.104868    1.737507
     50          1           0       10.888489    5.540530   -0.968894
     51          1           0       11.971823    4.177193   -0.788863
     52          1           0       12.046341    5.451895    0.298976
     53          1           0        8.691343    4.159206    2.731375
     54          1           0        7.259353    3.956299    1.980920
     55          1           0        7.852971    6.360098    3.049047
     56          1           0        6.949030    6.383466    1.524808
     57          1           0       14.511957    1.550140    1.624357
     58          1           0       15.459598    0.552585    0.572970
     59          1           0       15.061554    0.134210    2.331880
     60          1           0       16.236546   -3.503736    1.394477
     61          1           0       15.856472   -1.947383    2.188464
     62          1           0       16.293782   -1.883986    0.538439
     63          1           0        9.664134   -5.283620   -0.364414
     64          1           0        7.649923   -4.721311   -2.468627
     65          1           0       10.723511   -6.190552   -2.367436
     66          1           0       11.197895   -4.544326   -2.716227
     67          1           0        9.619692   -5.080765   -3.305376
     68          1           0        6.357027   -4.514684    0.073733
     69          1           0        7.653029   -5.567402    0.429858
     70          1           0        6.754556   -6.817777   -1.781131
     71          1           0        5.285215   -5.974647   -1.279383
     72          1           0        6.046555   -7.010330   -0.077877
     73          1           0        3.045243   -0.027119   -2.166266
     74          1           0        3.664049   -1.668978   -2.017428
     75          1           0        3.967834   -0.573732   -3.453681
     76          1           0        5.557454    3.531570    0.562863
     77          1           0        5.535161    7.221494   -2.104392
     78          1           0        7.169197    7.148364   -1.326422
     79          1           0        5.788945    7.833918   -0.525811
     80         12           0       -8.878437   -1.057027    0.539781
     81          6           0      -10.280121    1.938738   -0.677959
     82          6           0       -7.488544    0.828602    3.080888
     83          6           0       -7.358086   -3.856492    1.767020
     84          6           0      -10.002990   -2.701572   -2.162093
     85          7           0       -8.915316    1.157819    1.157808
     86          6           0       -9.660945    2.188795    0.598947
     87          6           0       -9.650452    3.401962    1.507177
     88          6           0       -8.461400    3.113299    2.494081
     89          6           0       -8.298686    1.631611    2.239397
     90          6           0       -7.166425    3.991729    2.282769
     91          6           0      -10.954268    3.575917    2.300246
     92          6           0      -11.407087    5.024517    2.512096
     93          1           0      -10.572912    5.930745    3.459711
     94          7           0       -7.681987   -1.484648    2.229540
     95          6           0       -7.224923   -0.536532    3.079636
     96          6           0       -6.334635   -1.151294    4.009880
     97          6           0       -6.345116   -2.571893    3.788924
     98          6           0       -7.091832   -2.672762    2.547425
     99          6           0       -5.598670   -0.360294    5.055471
    100          6           0       -5.641075   -3.721866    4.509415
    101          8           0       -5.913581   -4.917496    4.262916
    102          6           0       -4.513585   -3.495864    5.510291
    103          7           0       -8.785489   -2.994102   -0.053611
    104          6           0       -8.040248   -3.998071    0.557341
    105          6           0       -8.132249   -5.241591   -0.266076
    106          6           0       -9.032716   -4.968651   -1.524218
    107          6           0       -9.351304   -3.490164   -1.248959
    108          6           0       -6.765841   -5.931060   -0.559456
    109          6           0      -10.309500   -5.830537   -1.629709
    110          6           0      -10.143814   -7.066832   -2.534463
    111          7           0       -9.866044   -0.555472   -1.098519
    112          6           0      -10.352183   -1.330678   -2.150394
    113          6           0      -11.181739   -0.531655   -3.126704
    114          6           0      -11.111690    0.747435   -2.551239
    115          6           0      -10.372050    0.682353   -1.326846
    116          6           0      -11.869785   -1.050446   -4.376201
    117          6           0      -11.567626    2.112350   -2.766873
    118          8           0      -12.216321    2.611720   -3.687130
    119          6           0      -11.125712    2.900398   -1.461462
    120          6           0      -10.378848    4.147062   -1.975085
    121          8           0       -9.604879    4.190694   -2.909028
    122          8           0      -10.863301    5.264385   -1.297644
    123          6           0      -10.220719    6.509865   -1.717539
    124          1           0       -7.131482    1.438959    3.912781
    125          1           0       -6.925238   -4.811133    2.072477
    126          1           0      -10.223650   -3.277961   -3.062563
    127          1           0       -9.438893    4.344698    1.003205
    128          1           0       -8.690740    3.285745    3.545670
    129          1           0       -7.254610    4.789521    1.544744
    130          1           0       -6.271373    3.468343    1.947393
    131          1           0       -6.908523    4.523886    3.198424
    132          1           0      -10.885534    3.110356    3.283150
    133          1           0      -11.790527    3.117054    1.772403
    134          1           0      -12.452534    5.083783    2.814485
    135          1           0      -11.447354    5.567691    1.568162
    136          1           0       -5.176236    0.450579    4.461872
    137          1           0       -4.758026   -0.839979    5.556581
    138          1           0       -6.231078    0.077661    5.827375
    139          1           0       -3.757531   -2.826831    5.099012
    140          1           0       -4.144892   -4.509746    5.665204
    141          1           0       -4.886015   -3.031712    6.423497
    142          1           0       -8.543617   -6.013684    0.384827
    143          1           0       -8.512688   -5.001490   -2.482475
    144          1           0       -5.981056   -5.302156   -0.138544
    145          1           0       -6.624247   -5.984025   -1.638590
    146          1           0       -6.840224   -6.889651   -0.044878
    147          1           0      -11.128877   -5.162677   -1.894650
    148          1           0      -10.542619   -6.296911   -0.672250
    149          1           0       -9.090683   -7.342495   -2.592856
    150          1           0      -10.413905   -6.944309   -3.583503
    151          1           0      -10.669405   -7.898509   -2.064306
    152          1           0      -12.722956   -1.645179   -4.049395
    153          1           0      -11.267964   -1.701459   -5.010001
    154          1           0      -12.198850   -0.164396   -4.918861
    155          1           0      -11.935631    3.219862   -0.805931
    156          1           0       -9.324427    6.774494   -1.155720
    157          1           0      -11.006474    7.256385   -1.602632
    158          1           0       -9.850337    6.599285   -2.738761
 ---------------------------------------------------------------------

 SCF Done:  E(RPBE1PBE) =  -4067.44621432     A.U. after   16 cycles

 Excitation energies and oscillator strengths:

 Excited State   1:      Singlet-A      1.8489 eV  670.59 nm  f=0.4073  <S**2>=0.000
     310 -> 316       -0.18043
     311 -> 313        0.68982
     311 <- 313       -0.10422
 This state for optimization and/or second-order correction.
 Total Energy, E(TD-HF/TD-DFT) =  -4067.37826943
 Copying the excited state density for this state as the 1-particle RhoCI density.

 Excited State   2:      Singlet-A      1.8539 eV  668.77 nm  f=0.0000  <S**2>=0.000
     312 -> 313        0.70708

 Excited State   3:      Singlet-A      1.8898 eV  656.08 nm  f=0.3417  <S**2>=0.000
     309 -> 315       -0.17969
     312 -> 314        0.68802
     312 <- 314       -0.10414

 Excited State   4:      Singlet-A      1.9250 eV  644.07 nm  f=0.0000  <S**2>=0.000
     311 -> 314        0.70705

 Excited State   5:      Singlet-A      2.2262 eV  556.94 nm  f=0.0882  <S**2>=0.000
     310 -> 313        0.64869
     311 -> 316        0.27309

 The electronic state is 1-A.
 Alpha  occ. eigenvalues --  -46.92316 -46.90989 -19.26629 -19.26305 -19.20510
 Alpha  occ. eigenvalues --  -19.19570 -19.19304 -19.19282 -19.19273 -19.18594
 Alpha  occ. eigenvalues --  -14.41945 -14.41349 -14.41260 -14.40885 -14.39509
 Alpha  occ. eigenvalues --  -14.39219 -14.38985 -14.38935 -10.36604 -10.36597
 Alpha  occ. eigenvalues --  -10.32836 -10.32190 -10.32081 -10.32066 -10.29580
 Alpha  occ. eigenvalues --  -10.29212 -10.28774 -10.28603 -10.28368 -10.28365
 Alpha  occ. eigenvalues --  -10.28360 -10.28291 -10.28163 -10.28146 -10.28117
 Alpha  occ. eigenvalues --  -10.28079 -10.27859 -10.27740 -10.27710 -10.26992
 Alpha  occ. eigenvalues --  -10.26987 -10.26871 -10.26851 -10.26543 -10.26523
 Alpha  occ. eigenvalues --  -10.26415 -10.26374 -10.26295 -10.26114 -10.26108
 Alpha  occ. eigenvalues --  -10.26084 -10.26064 -10.26056 -10.25826 -10.25696
 Alpha  occ. eigenvalues --  -10.25690 -10.25646 -10.25275 -10.25255 -10.25144
 Alpha  occ. eigenvalues --  -10.25041 -10.25037 -10.24978 -10.24896 -10.24808
 Alpha  occ. eigenvalues --  -10.24657 -10.24416 -10.24229 -10.24155 -10.23967
 Alpha  occ. eigenvalues --  -10.23916 -10.23859 -10.23730 -10.23703 -10.23692
 Alpha  occ. eigenvalues --  -10.23662 -10.23575 -10.23558 -10.23520 -10.23421
 Alpha  occ. eigenvalues --  -10.23368 -10.23116 -10.23055 -10.23035 -10.22985
 Alpha  occ. eigenvalues --  -10.22816  -3.14323  -3.13344  -1.87185  -1.86680
 Alpha  occ. eigenvalues --   -1.86552  -1.86185  -1.85696  -1.85613  -1.11237
 Alpha  occ. eigenvalues --   -1.10945  -1.05755  -1.03915  -1.03628  -1.03482
 Alpha  occ. eigenvalues --   -1.02894  -1.01950  -0.99780  -0.99169  -0.98755
 Alpha  occ. eigenvalues --   -0.98158  -0.98093  -0.97726  -0.96020  -0.95632
 Alpha  occ. eigenvalues --   -0.86880  -0.86849  -0.83586  -0.83468  -0.83248
 Alpha  occ. eigenvalues --   -0.82611  -0.82512  -0.82047  -0.81741  -0.81543
 Alpha  occ. eigenvalues --   -0.81138  -0.81111  -0.80493  -0.80417  -0.78553
 Alpha  occ. eigenvalues --   -0.78291  -0.77865  -0.77825  -0.76621  -0.76495
 Alpha  occ. eigenvalues --   -0.76033  -0.75775  -0.75560  -0.75177  -0.74938
 Alpha  occ. eigenvalues --   -0.74309  -0.72789  -0.72619  -0.71897  -0.71720
 Alpha  occ. eigenvalues --   -0.71650  -0.71472  -0.70584  -0.70368  -0.69330
 Alpha  occ. eigenvalues --   -0.69276  -0.67100  -0.67077  -0.66017  -0.65991
 Alpha  occ. eigenvalues --   -0.63630  -0.63600  -0.63195  -0.62770  -0.62562
 Alpha  occ. eigenvalues --   -0.62511  -0.61598  -0.61399  -0.60305  -0.60091
 Alpha  occ. eigenvalues --   -0.59880  -0.59852  -0.59646  -0.58927  -0.58921
 Alpha  occ. eigenvalues --   -0.58686  -0.57358  -0.57057  -0.54808  -0.54550
 Alpha  occ. eigenvalues --   -0.54433  -0.54149  -0.53817  -0.53429  -0.53264
 Alpha  occ. eigenvalues --   -0.53085  -0.52944  -0.52197  -0.51948  -0.51900
 Alpha  occ. eigenvalues --   -0.50723  -0.50544  -0.50364  -0.49950  -0.49934
 Alpha  occ. eigenvalues --   -0.49646  -0.49316  -0.48960  -0.48564  -0.48293
 Alpha  occ. eigenvalues --   -0.48098  -0.48007  -0.47644  -0.47627  -0.47408
 Alpha  occ. eigenvalues --   -0.47403  -0.47081  -0.46975  -0.46641  -0.46611
 Alpha  occ. eigenvalues --   -0.46336  -0.46279  -0.46143  -0.46130  -0.45855
 Alpha  occ. eigenvalues --   -0.45779  -0.45722  -0.45049  -0.44891  -0.44559
 Alpha  occ. eigenvalues --   -0.44551  -0.44506  -0.44451  -0.44335  -0.43965
 Alpha  occ. eigenvalues --   -0.43924  -0.43624  -0.43589  -0.43438  -0.43180
 Alpha  occ. eigenvalues --   -0.43093  -0.43069  -0.42811  -0.42723  -0.42620
 Alpha  occ. eigenvalues --   -0.42617  -0.42154  -0.42115  -0.42028  -0.41894
 Alpha  occ. eigenvalues --   -0.41811  -0.41397  -0.41396  -0.41301  -0.41161
 Alpha  occ. eigenvalues --   -0.40982  -0.40905  -0.40686  -0.40546  -0.40492
 Alpha  occ. eigenvalues --   -0.40310  -0.40171  -0.39956  -0.39782  -0.39651
 Alpha  occ. eigenvalues --   -0.39357  -0.39321  -0.39208  -0.39170  -0.39110
 Alpha  occ. eigenvalues --   -0.38961  -0.38634  -0.38457  -0.38349  -0.38320
 Alpha  occ. eigenvalues --   -0.38247  -0.38020  -0.37868  -0.37867  -0.37837
 Alpha  occ. eigenvalues --   -0.37561  -0.37393  -0.37071  -0.37021  -0.36683
 Alpha  occ. eigenvalues --   -0.36651  -0.36484  -0.36373  -0.36330  -0.36026
 Alpha  occ. eigenvalues --   -0.35997  -0.35814  -0.35797  -0.35586  -0.35384
 Alpha  occ. eigenvalues --   -0.35297  -0.35086  -0.34898  -0.34601  -0.34541
 Alpha  occ. eigenvalues --   -0.33635  -0.33246  -0.33188  -0.32861  -0.32516
 Alpha  occ. eigenvalues --   -0.32241  -0.32138  -0.31769  -0.31767  -0.31705
 Alpha  occ. eigenvalues --   -0.31584  -0.31115  -0.30270  -0.29762  -0.29295
 Alpha  occ. eigenvalues --   -0.28955  -0.28535  -0.28356  -0.26728  -0.26620
 Alpha  occ. eigenvalues --   -0.26239  -0.26000  -0.25837  -0.25707  -0.25702
 Alpha  occ. eigenvalues --   -0.25588  -0.25451  -0.25159  -0.20848  -0.20775
 Alpha  occ. eigenvalues --   -0.18617  -0.18533
 Alpha virt. eigenvalues --   -0.10979  -0.10817  -0.05246  -0.05164  -0.04152
 Alpha virt. eigenvalues --   -0.03684  -0.02557  -0.01857  -0.00277   0.00303
 Alpha virt. eigenvalues --    0.00403   0.00600   0.01262   0.01419   0.01732

 Mulliken charges:
               1
     1  Mg  12.000238
     2  C    5.998635
     3  C    6.000017
     4  C    6.001897
     5  C    6.000292
     6  N    6.999263
     7  C    6.002057
     8  C    5.999095
     9  C    6.000323
    10  C    5.998164
    11  C    6.000172
    12  C    5.999567
    13  C    6.000131
    14  H    0.999746
    15  N    7.000423
    16  C    5.997817
    17  C    5.998237
    18  C    5.999041
    19  C    5.997771
    20  C    6.000273
    21  C    5.999256
    22  O    7.997990
    23  C    6.000289
    24  N    7.000837
    25  C    5.997710
    26  C    6.000654
    27  C    5.999275
    28  C    6.002042
    29  C    6.000227
    30  C    5.999271
    31  C    6.000001
    32  N    6.999710
    33  C    6.002113
    34  C    6.002411
    35  C    5.999968
    36  C    6.002036
    37  C    5.999529
    38  C    6.001572
    39  O    8.002072
    40  C    6.000026
    41  C    6.000004
    42  O    7.999774
    43  O    8.000334
    44  C    6.000034
    45  H    0.998924
    46  H    0.999692
    47  H    1.001095
    48  H    0.999779
    49  H    1.000054
    50  H    0.998895
    51  H    1.000062
    52  H    0.999605
    53  H    1.000826
    54  H    1.000228
    55  H    1.000352
    56  H    0.999767
    57  H    0.998838
    58  H    0.998421
    59  H    0.998767
    60  H    0.998937
    61  H    0.999613
    62  H    0.999325
    63  H    1.000248
    64  H    0.999786
    65  H    0.999829
    66  H    1.000173
    67  H    0.999114
    68  H    1.000686
    69  H    1.000992
    70  H    0.999757
    71  H    1.000114
    72  H    1.000861
    73  H    1.001537
    74  H    1.001899
    75  H    1.000449
    76  H    1.001066
    77  H    0.999570
    78  H    1.000216
    79  H    1.000232
    80  Mg  11.999494
    81  C    5.983065
    82  C    6.010104
    83  C    6.017352
    84  C    5.990762
    85  N    6.993768
    86  C    6.031492
    87  C    5.990659
    88  C    6.010362
    89  C    5.968321
    90  C    6.003006
    91  C    5.996878
    92  C    5.998718
    93  H    1.009294
    94  N    7.003764
    95  C    5.965520
    96  C    5.975542
    97  C    5.986986
    98  C    5.971344
    99  C    6.002102
   100  C    5.988915
   101  O    7.973611
   102  C    6.003257
   103  N    7.005809
   104  C    5.967817
   105  C    6.008788
   106  C    5.988870
   107  C    6.030423
   108  C    6.001921
   109  C    5.996298
   110  C    5.999944
   111  N    7.000419
   112  C    6.034006
   113  C    6.032154
   114  C    5.999063
   115  C    6.029104
   116  C    6.000691
   117  C    6.016416
   118  O    8.029078
   119  C    6.000016
   120  C    6.006223
   121  O    8.002278
   122  O    8.002266
   123  C    5.997676
   124  H    0.990379
   125  H    0.993908
   126  H    1.009338
   127  H    1.000413
   128  H    0.999198
   129  H    0.986941
   130  H    1.000892
   131  H    0.997824
   132  H    1.011458
   133  H    0.993548
   134  H    1.000494
   135  H    0.996132
   136  H    0.984556
   137  H    0.985046
   138  H    0.979415
   139  H    0.993352
   140  H    0.987446
   141  H    0.992614
   142  H    0.999092
   143  H    1.001273
   144  H    1.004744
   145  H    0.989761
   146  H    0.998678
   147  H    0.994424
   148  H    1.009875
   149  H    1.005868
   150  H    0.998367
   151  H    1.004163
   152  H    1.017860
   153  H    1.017669
   154  H    1.011480
   155  H    1.007931
   156  H    1.006967
   157  H    1.003590
   158  H    1.001725
 Sum of Mulliken charges = 624.00000

 Dipole moment (field-independent basis, Debye):
    X=             -6.6967    Y=              2.2256    Z=             -8.1468  Tot=             10.7782
 Quadrupole moment (field-independent basis, Debye-Ang):
   XX=             88.8100   YY=             -0.9700   ZZ=             -8.4727
   XY=            -14.0511   XZ=             64.7305   YZ=              9.0547

 Normal termination of Gaussian 16 at Fri Oct 15 02:55:35 2021.
