 Gaussian 16, Revision A.03,
 Gaussian 16:  ES64L-G16RevA.03 25-Dec-2016

 --------------------------------------------------------
 #p PBE1PBE/Def2SVP td=(nstates=5) density=(transition=1)
 --------------------------------------------------------

 --------------------------------
 TDDFT excited states in gaussian
 --------------------------------
 Symbolic Z-matrix:
 Charge =  0 Multiplicity = 1

                         Standard orientation:
 ---------------------------------------------------------------------
 Center     Atomic      Atomic             Coordinates (Angstroms)
 Number     Number       Type             X           Y           Z
 ---------------------------------------------------------------------
      1         12           0      -25.572353    0.676280    0.403700
      2          6           0      -25.978524   -2.176197   -1.476728
      3          6           0      -25.140051   -1.362386    3.217157
      4          6           0      -25.255395    3.423995    2.338637
      5          6           0      -26.369088    2.588234   -2.284589
      6          7           0      -25.831266   -1.548155    0.838219
      7          6           0      -25.760326   -2.518519   -0.169067
      8          6           0      -25.406384   -3.910216    0.391393
      9          6           0      -25.261695   -3.578248    1.922246
     10          6           0      -25.363045   -2.073266    2.047726
     11          6           0      -26.284386   -4.300978    2.789834
     12          6           0      -24.156710   -4.676631   -0.169841
     13          6           0      -24.439218   -6.035029   -1.014014
     14          1           0      -23.760220   -7.244074   -0.363117
     15          7           0      -25.352671    1.000951    2.456811
     16          6           0      -25.061546    0.025809    3.424430
     17          6           0      -24.635428    0.637439    4.687488
     18          6           0      -24.729154    2.121816    4.507800
     19          6           0      -25.064296    2.272605    3.035596
     20          6           0      -24.241922   -0.168557    5.905718
     21          6           0      -24.513172    3.221630    5.436700
     22          8           0      -24.749184    4.384852    5.078249
     23          6           0      -24.069542    3.017015    6.874628
     24          7           0      -25.865474    2.631597    0.067695
     25          6           0      -25.547471    3.650873    0.984288
     26          6           0      -25.593313    5.118434    0.395040
     27          6           0      -25.998691    4.766796   -1.128293
     28          6           0      -26.063705    3.222777   -1.113254
     29          6           0      -26.636339    6.099772    1.126011
     30          6           0      -24.955351    5.333386   -2.151662
     31          6           0      -25.468276    5.878607   -3.447657
     32          7           0      -26.183082    0.260583   -1.504847
     33          6           0      -26.427772    1.171870   -2.536164
     34          6           0      -26.597954    0.499966   -3.778982
     35          6           0      -26.325780   -0.869964   -3.412642
     36          6           0      -26.164765   -0.924367   -2.022362
     37          6           0      -26.841949    1.013397   -5.135769
     38          6           0      -26.332975   -2.207653   -3.916457
     39          8           0      -26.463838   -2.721093   -5.033083
     40          6           0      -26.248560   -3.129689   -2.616571
     41          6           0      -27.501873   -3.922772   -2.510990
     42          8           0      -28.438281   -3.720494   -1.842912
     43          8           0      -27.395721   -5.091514   -3.261332
     44          6           0      -28.232626   -6.185401   -2.813962
     45          1           0      -24.918327   -2.005166    4.071667
     46          1           0      -25.109645    4.385246    2.835708
     47          1           0      -26.476838    3.201917   -3.181340
     48          1           0      -26.271301   -4.561764    0.271616
     49          1           0      -24.316511   -3.941614    2.326556
     50          1           0      -26.951802   -3.561872    3.232175
     51          1           0      -25.662788   -4.754276    3.561053
     52          1           0      -26.830294   -5.110807    2.306291
     53          1           0      -23.512461   -4.925165    0.673901
     54          1           0      -23.591606   -4.055847   -0.865242
     55          1           0      -23.921817   -5.830344   -1.951465
     56          1           0      -25.511025   -6.203663   -1.115981
     57          1           0      -25.164521   -0.580594    6.316413
     58          1           0      -23.786995    0.511028    6.624705
     59          1           0      -23.637139   -1.044617    5.670513
     60          1           0      -24.310289    3.948462    7.387432
     61          1           0      -23.014386    2.761851    6.978221
     62          1           0      -24.651005    2.325378    7.483929
     63          1           0      -24.585751    5.531019    0.354523
     64          1           0      -26.938565    5.203776   -1.466385
     65          1           0      -27.111952    6.721188    0.366952
     66          1           0      -26.216097    6.858878    1.784628
     67          1           0      -27.395640    5.565743    1.697649
     68          1           0      -24.146559    4.641865   -2.387224
     69          1           0      -24.437094    6.214411   -1.773591
     70          1           0      -25.099930    5.182324   -4.200888
     71          1           0      -25.062516    6.803159   -3.858354
     72          1           0      -26.558651    5.890159   -3.436778
     73          1           0      -26.429465    2.020651   -5.200213
     74          1           0      -27.928284    1.070021   -5.203771
     75          1           0      -26.519898    0.260814   -5.855743
     76          1           0      -25.406881   -3.816724   -2.700436
     77          1           0      -29.225376   -5.916367   -3.173139
     78          1           0      -28.201325   -6.150567   -1.725086
     79          1           0      -27.925063   -7.133293   -3.256486
     80         12           0       25.207275    0.610304   -0.308227
     81          6           0       26.017842   -2.232385    1.719507
     82          6           0       24.045790   -1.422790   -2.610197
     83          6           0       25.292962    3.249159   -2.311607
     84          6           0       26.910605    2.611449    2.265257
     85          7           0       25.014434   -1.578651   -0.395265
     86          6           0       25.429962   -2.573474    0.512043
     87          6           0       25.128147   -4.041956    0.027682
     88          6           0       24.402676   -3.667295   -1.405828
     89          6           0       24.456315   -2.146340   -1.509843
     90          6           0       25.133249   -4.340850   -2.645604
     91          6           0       24.282872   -4.925504    1.009929
     92          6           0       23.644310   -6.167989    0.400728
     93          1           0       24.200962   -7.502226    0.930380
     94          7           0       24.636656    0.889354   -2.180648
     95          6           0       24.134759   -0.050343   -3.050121
     96          6           0       23.769917    0.520568   -4.329494
     97          6           0       24.141740    1.917583   -4.204108
     98          6           0       24.660824    2.073036   -2.798624
     99          6           0       23.113455   -0.162190   -5.435511
    100          6           0       24.009913    3.056120   -5.200719
    101          8           0       24.244117    4.203902   -4.944864
    102          6           0       23.639266    2.630770   -6.596659
    103          7           0       26.051631    2.636549   -0.081247
    104          6           0       25.902710    3.536711   -1.085554
    105          6           0       26.433807    4.932820   -0.663738
    106          6           0       26.810666    4.707159    0.841781
    107          6           0       26.531587    3.232136    1.057210
    108          6           0       27.611026    5.556508   -1.488218
    109          6           0       26.025119    5.573131    1.888792
    110          6           0       26.524704    7.032355    1.974131
    111          7           0       26.265221    0.336621    1.564370
    112          6           0       26.803119    1.202744    2.488221
    113          6           0       27.205432    0.470592    3.622628
    114          6           0       26.993500   -0.835966    3.386976
    115          6           0       26.421793   -0.920268    2.081278
    116          6           0       27.711285    1.172416    4.876220
    117          6           0       27.127904   -2.226512    3.832615
    118          8           0       27.592455   -2.682666    4.845398
    119          6           0       26.499937   -3.186573    2.713306
    120          6           0       27.629959   -3.951308    2.101264
    121          8           0       28.380691   -3.689256    1.188704
    122          8           0       27.652689   -5.149172    2.787727
    123          6           0       28.676331   -6.140278    2.378931
    124          1           0       23.688111   -2.017952   -3.452851
    125          1           0       25.429782    4.031359   -3.062168
    126          1           0       27.285284    3.355243    2.972274
    127          1           0       26.080255   -4.506977   -0.228483
    128          1           0       23.389587   -4.069462   -1.382219
    129          1           0       24.386623   -4.758706   -3.320739
    130          1           0       25.900370   -5.093123   -2.463949
    131          1           0       25.601844   -3.577939   -3.266525
    132          1           0       23.582397   -4.174069    1.376640
    133          1           0       24.747264   -5.259151    1.938154
    134          1           0       23.791788   -6.149988   -0.678732
    135          1           0       22.602544   -6.213523    0.716934
    136          1           0       22.165327    0.375493   -5.435136
    137          1           0       23.035918   -1.233005   -5.246619
    138          1           0       23.545773   -0.058183   -6.430486
    139          1           0       22.557781    2.693257   -6.716691
    140          1           0       24.230087    1.794082   -6.970590
    141          1           0       24.199967    3.328761   -7.217731
    142          1           0       25.543033    5.554785   -0.570622
    143          1           0       27.893335    4.776898    0.949281
    144          1           0       28.519257    5.791197   -0.932361
    145          1           0       27.257330    6.543596   -1.785135
    146          1           0       27.938363    4.974354   -2.349634
    147          1           0       26.149113    5.138498    2.880036
    148          1           0       24.978506    5.485652    1.593859
    149          1           0       27.543707    7.108572    1.594260
    150          1           0       26.431016    7.316666    3.022153
    151          1           0       25.962397    7.733955    1.357233
    152          1           0       27.531017    0.568885    5.765869
    153          1           0       27.234476    2.150126    4.946513
    154          1           0       28.767093    1.422841    4.770631
    155          1           0       25.733400   -3.841916    3.127567
    156          1           0       29.038674   -6.582722    3.306776
    157          1           0       29.512893   -5.718373    1.822119
    158          1           0       28.044918   -6.812161    1.796734
 ---------------------------------------------------------------------

 SCF Done:  E(RPBE1PBE) =  -4067.37283493     A.U. after   16 cycles

 Excitation energies and oscillator strengths:

 Excited State   1:      Singlet-A      1.8018 eV  688.12 nm  f=0.0000  <S**2>=0.000
     312 -> 313        0.70711
 This state for optimization and/or second-order correction.
 Total Energy, E(TD-HF/TD-DFT) =  -4067.30662102
 Copying the excited state density for this state as the 1-particle RhoCI density.

 Excited State   2:      Singlet-A      1.8151 eV  683.08 nm  f=0.3902  <S**2>=0.000
     309 -> 315        0.14969
     311 -> 313        0.69580
     311 <- 313       -0.11534

 Excited State   3:      Singlet-A      1.8601 eV  666.54 nm  f=0.3875  <S**2>=0.000
     310 -> 316        0.16838
     312 -> 314        0.69337
     312 <- 314       -0.10831

 Excited State   4:      Singlet-A      2.1382 eV  579.85 nm  f=0.0000  <S**2>=0.000
     311 -> 314        0.70711

 Excited State   5:      Singlet-A      2.1895 eV  566.27 nm  f=0.1148  <S**2>=0.000
     309 -> 313        0.65562
     311 -> 315       -0.22795

 The electronic state is 1-A.
 Alpha  occ. eigenvalues --  -46.92002 -46.91383 -19.24503 -19.22916 -19.20090
 Alpha  occ. eigenvalues --  -19.19827 -19.19301 -19.19186 -19.18910 -19.18472
 Alpha  occ. eigenvalues --  -14.42068 -14.41715 -14.41583 -14.40883 -14.39897
 Alpha  occ. eigenvalues --  -14.39288 -14.38529 -14.38392 -10.35945 -10.35179
 Alpha  occ. eigenvalues --  -10.32421 -10.32253 -10.31909 -10.31576 -10.29451
 Alpha  occ. eigenvalues --  -10.28863 -10.28686 -10.28660 -10.28618 -10.28569
 Alpha  occ. eigenvalues --  -10.28482 -10.28419 -10.28200 -10.28125 -10.27973
 Alpha  occ. eigenvalues --  -10.27913 -10.27871 -10.27861 -10.27835 -10.27359
 Alpha  occ. eigenvalues --  -10.27125 -10.27079 -10.26882 -10.26806 -10.26751
 Alpha  occ. eigenvalues --  -10.26699 -10.26455 -10.26205 -10.26184 -10.26131
 Alpha  occ. eigenvalues --  -10.26083 -10.25718 -10.25563 -10.25520 -10.25397
 Alpha  occ. eigenvalues --  -10.25355 -10.25156 -10.25102 -10.24928 -10.24885
 Alpha  occ. eigenvalues --  -10.24772 -10.24721 -10.24708 -10.24602 -10.24448
 Alpha  occ. eigenvalues --  -10.24442 -10.24441 -10.24432 -10.24406 -10.24392
 Alpha  occ. eigenvalues --  -10.24221 -10.23963 -10.23901 -10.23668 -10.23612
 Alpha  occ. eigenvalues --  -10.23596 -10.23399 -10.23377 -10.23342 -10.23274
 Alpha  occ. eigenvalues --  -10.23036 -10.23028 -10.23022 -10.22838 -10.22548
 Alpha  occ. eigenvalues --  -10.22405  -3.14124  -3.13717  -1.86960  -1.86528
 Alpha  occ. eigenvalues --   -1.86478  -1.86371  -1.86102  -1.85959  -1.11614
 Alpha  occ. eigenvalues --   -1.10416  -1.06145  -1.05536  -1.04102  -1.03089
 Alpha  occ. eigenvalues --   -1.02663  -1.02261  -0.99522  -0.98482  -0.98102
 Alpha  occ. eigenvalues --   -0.98005  -0.97141  -0.96640  -0.96215  -0.95122
 Alpha  occ. eigenvalues --   -0.87360  -0.87111  -0.83487  -0.83236  -0.82935
 Alpha  occ. eigenvalues --   -0.82775  -0.82549  -0.82318  -0.81790  -0.81592
 Alpha  occ. eigenvalues --   -0.81497  -0.81202  -0.80816  -0.80387  -0.78490
 Alpha  occ. eigenvalues --   -0.78206  -0.77849  -0.77475  -0.76687  -0.76455
 Alpha  occ. eigenvalues --   -0.76240  -0.75969  -0.75265  -0.75056  -0.74629
 Alpha  occ. eigenvalues --   -0.74438  -0.72975  -0.72444  -0.71770  -0.71304
 Alpha  occ. eigenvalues --   -0.71035  -0.70937  -0.69856  -0.69644  -0.69604
 Alpha  occ. eigenvalues --   -0.69214  -0.67592  -0.67219  -0.66136  -0.65747
 Alpha  occ. eigenvalues --   -0.63973  -0.63642  -0.63148  -0.63137  -0.62448
 Alpha  occ. eigenvalues --   -0.62204  -0.61965  -0.61451  -0.60146  -0.59825
 Alpha  occ. eigenvalues --   -0.59538  -0.59475  -0.59151  -0.58826  -0.58535
 Alpha  occ. eigenvalues --   -0.58471  -0.56025  -0.55506  -0.54649  -0.54646
 Alpha  occ. eigenvalues --   -0.54083  -0.54020  -0.53637  -0.53369  -0.53177
 Alpha  occ. eigenvalues --   -0.52905  -0.52678  -0.52506  -0.52249  -0.51540
 Alpha  occ. eigenvalues --   -0.51072  -0.50715  -0.50173  -0.50123  -0.49809
 Alpha  occ. eigenvalues --   -0.49605  -0.49028  -0.48833  -0.48543  -0.48536
 Alpha  occ. eigenvalues --   -0.48335  -0.48278  -0.47791  -0.47598  -0.47340
 Alpha  occ. eigenvalues --   -0.47316  -0.46963  -0.46826  -0.46539  -0.46435
 Alpha  occ. eigenvalues --   -0.46255  -0.46233  -0.46004  -0.45936  -0.45852
 Alpha  occ. eigenvalues --   -0.45484  -0.45416  -0.45179  -0.45142  -0.44841
 Alpha  occ. eigenvalues --   -0.44805  -0.44502  -0.44438  -0.44427  -0.44252
 Alpha  occ. eigenvalues --   -0.44154  -0.44072  -0.43772  -0.43502  -0.43418
 Alpha  occ. eigenvalues --   -0.43294  -0.43275  -0.43090  -0.42793  -0.42698
 Alpha  occ. eigenvalues --   -0.42666  -0.42495  -0.42426  -0.41953  -0.41778
 Alpha  occ. eigenvalues --   -0.41677  -0.41571  -0.41437  -0.41194  -0.41030
 Alpha  occ. eigenvalues --   -0.40987  -0.40828  -0.40597  -0.40419  -0.40238
 Alpha  occ. eigenvalues --   -0.40177  -0.40087  -0.40005  -0.39932  -0.39826
 Alpha  occ. eigenvalues --   -0.39786  -0.39643  -0.39502  -0.39477  -0.39079
 Alpha  occ. eigenvalues --   -0.38745  -0.38659  -0.38458  -0.38373  -0.38295
 Alpha  occ. eigenvalues --   -0.38176  -0.38022  -0.37826  -0.37791  -0.37644
 Alpha  occ. eigenvalues --   -0.37440  -0.37267  -0.36937  -0.36837  -0.36740
 Alpha  occ. eigenvalues --   -0.36597  -0.36456  -0.36313  -0.36075  -0.35951
 Alpha  occ. eigenvalues --   -0.35944  -0.35798  -0.35633  -0.35550  -0.35378
 Alpha  occ. eigenvalues --   -0.35118  -0.34865  -0.34363  -0.34034  -0.33801
 Alpha  occ. eigenvalues --   -0.33729  -0.33112  -0.32824  -0.32787  -0.32732
 Alpha  occ. eigenvalues --   -0.32179  -0.32092  -0.31508  -0.31440  -0.31197
 Alpha  occ. eigenvalues --   -0.30671  -0.29863  -0.29696  -0.29414  -0.29208
 Alpha  occ. eigenvalues --   -0.29138  -0.28639  -0.28271  -0.27120  -0.26880
 Alpha  occ. eigenvalues --   -0.26084  -0.25789  -0.25768  -0.25554  -0.25494
 Alpha  occ. eigenvalues --   -0.25366  -0.25278  -0.24837  -0.21316  -0.20581
 Alpha  occ. eigenvalues --   -0.19103  -0.18609
 Alpha virt. eigenvalues --   -0.11731  -0.10988  -0.05816  -0.04732  -0.04285
 Alpha virt. eigenvalues --   -0.03322  -0.02218  -0.01786  -0.00583  -0.00248
 Alpha virt. eigenvalues --    0.00790   0.00806   0.01177   0.01394   0.01661

 Mulliken charges:
               1
     1  Mg  12.000000
     2  C    6.000000
     3  C    6.000000
     4  C    6.000000
     5  C    6.000000
     6  N    7.000000
     7  C    6.000000
     8  C    6.000000
     9  C    6.000000
    10  C    6.000000
    11  C    6.000000
    12  C    6.000000
    13  C    6.000000
    14  H    1.000000
    15  N    7.000000
    16  C    6.000000
    17  C    6.000000
    18  C    6.000000
    19  C    6.000000
    20  C    6.000000
    21  C    6.000000
    22  O    8.000000
    23  C    6.000000
    24  N    7.000000
    25  C    6.000000
    26  C    6.000000
    27  C    6.000000
    28  C    6.000000
    29  C    6.000000
    30  C    6.000000
    31  C    6.000000
    32  N    7.000000
    33  C    6.000000
    34  C    6.000000
    35  C    6.000000
    36  C    6.000000
    37  C    6.000000
    38  C    6.000000
    39  O    8.000000
    40  C    6.000000
    41  C    6.000000
    42  O    8.000000
    43  O    8.000000
    44  C    6.000000
    45  H    1.000000
    46  H    1.000000
    47  H    1.000000
    48  H    1.000000
    49  H    1.000000
    50  H    1.000000
    51  H    1.000000
    52  H    1.000000
    53  H    1.000000
    54  H    1.000000
    55  H    1.000000
    56  H    1.000000
    57  H    1.000000
    58  H    1.000000
    59  H    1.000000
    60  H    1.000000
    61  H    1.000000
    62  H    1.000000
    63  H    1.000000
    64  H    1.000000
    65  H    1.000000
    66  H    1.000000
    67  H    1.000000
    68  H    1.000000
    69  H    1.000000
    70  H    1.000000
    71  H    1.000000
    72  H    1.000000
    73  H    1.000000
    74  H    1.000000
    75  H    1.000000
    76  H    1.000000
    77  H    1.000000
    78  H    1.000000
    79  H    1.000000
    80  Mg  12.000000
    81  C    6.000000
    82  C    6.000000
    83  C    6.000000
    84  C    6.000000
    85  N    7.000000
    86  C    6.000000
    87  C    6.000000
    88  C    6.000000
    89  C    6.000000
    90  C    6.000000
    91  C    6.000000
    92  C    6.000000
    93  H    1.000000
    94  N    7.000000
    95  C    6.000000
    96  C    6.000000
    97  C    6.000000
    98  C    6.000000
    99  C    6.000000
   100  C    6.000000
   101  O    8.000000
   102  C    6.000000
   103  N    7.000000
   104  C    6.000000
   105  C    6.000000
   106  C    6.000000
   107  C    6.000000
   108  C    6.000000
   109  C    6.000000
   110  C    6.000000
   111  N    7.000000
   112  C    6.000000
   113  C    6.000000
   114  C    6.000000
   115  C    6.000000
   116  C    6.000000
   117  C    6.000000
   118  O    8.000000
   119  C    6.000000
   120  C    6.000000
   121  O    8.000000
   122  O    8.000000
   123  C    6.000000
   124  H    1.000000
   125  H    1.000000
   126  H    1.000000
   127  H    1.000000
   128  H    1.000000
   129  H    1.000000
   130  H    1.000000
   131  H    1.000000
   132  H    1.000000
   133  H    1.000000
   134  H    1.000000
   135  H    1.000000
   136  H    1.000000
   137  H    1.000000
   138  H    1.000000
   139  H    1.000000
   140  H    1.000000
   141  H    1.000000
   142  H    1.000000
   143  H    1.000000
   144  H    1.000000
   145  H    1.000000
   146  H    1.000000
   147  H    1.000000
   148  H    1.000000
   149  H    1.000000
   150  H    1.000000
   151  H    1.000000
   152  H    1.000000
   153  H    1.000000
   154  H    1.000000
   155  H    1.000000
   156  H    1.000000
   157  H    1.000000
   158  H    1.000000
 Sum of Mulliken charges = 624.00000

 Dipole moment (field-independent basis, Debye):
    X=             -0.0000    Y=              0.0000    Z=             -0.0000  Tot=              0.0000
 Quadrupole moment (field-independent basis, Debye-Ang):
   XX=             -0.0000   YY=              0.0000   ZZ=              0.0000
   XY=              0.0000   XZ=             -0.0000   YZ=             -0.0000

 Normal termination of Gaussian 16 at Fri Oct 15 13:17:34 2021.
