 Gaussian 16, Revision A.03,
 Gaussian 16:  ES64L-G16RevA.03 25-Dec-2016

 --------------------------------------------------------
 #p PBE1PBE/Def2SVP td=(nstates=5) density=(transition=1)
 --------------------------------------------------------

 --------------------------------
 TDDFT excited states in gaussian
 --------------------------------
 Symbolic Z-matrix:
 Charge =  0 Multiplicity = 1

                         Standard orientation:
 ---------------------------------------------------------------------
 Center     Atomic      Atomic             Coordinates (Angstroms)
 Number     Number       Type             X           Y           Z
 ---------------------------------------------------------------------
      1         12           0      -29.838578   -0.554364   -0.166132
      2          6           0      -26.522966   -0.311239   -1.440789
      3          6           0      -28.738629   -2.770738    2.202526
      4          6           0      -32.758513    0.035056    1.670610
      5          6           0      -30.755686    2.141243   -2.225522
      6          7           0      -27.682173   -1.223794    0.428559
      7          6           0      -26.581601   -1.202272   -0.340872
      8          6           0      -25.647225   -2.319014    0.087374
      9          6           0      -26.320866   -3.089713    1.322351
     10          6           0      -27.760882   -2.375748    1.199164
     11          6           0      -26.346144   -4.602967    1.010583
     12          6           0      -24.272673   -1.771201    0.436076
     13          6           0      -24.228829   -0.409142    1.168650
     14          1           0      -23.847934   -0.434927    2.674151
     15          7           0      -30.701907   -1.345539    1.673040
     16          6           0      -30.026586   -2.241101    2.473415
     17          6           0      -30.964128   -2.653134    3.470520
     18          6           0      -32.134436   -1.802972    3.435317
     19          6           0      -31.950894   -0.999307    2.200323
     20          6           0      -30.616988   -3.649368    4.552518
     21          6           0      -33.222457   -1.657334    4.500397
     22          8           0      -33.141912   -2.280145    5.541612
     23          6           0      -34.358436   -0.797070    4.355890
     24          7           0      -31.473460    0.943469   -0.191030
     25          6           0      -32.569050    0.854250    0.548513
     26          6           0      -33.582907    1.949138    0.258968
     27          6           0      -32.736153    2.832482   -0.755093
     28          6           0      -31.624948    1.925587   -1.144267
     29          6           0      -34.960863    1.410446   -0.366583
     30          6           0      -32.311765    4.214072   -0.073686
     31          6           0      -32.896476    5.512479   -0.553026
     32          7           0      -28.987139    0.477658   -1.665931
     33          6           0      -29.526681    1.471724   -2.507489
     34          6           0      -28.569618    1.827880   -3.571549
     35          6           0      -27.433482    1.125734   -3.169624
     36          6           0      -27.644808    0.402556   -1.944004
     37          6           0      -28.792072    2.669090   -4.875712
     38          6           0      -26.035200    0.897283   -3.547771
     39          8           0      -25.336969    1.290028   -4.497050
     40          6           0      -25.389929   -0.042307   -2.476322
     41          6           0      -24.345779    0.873107   -1.936694
     42          8           0      -24.553850    1.950612   -1.440625
     43          8           0      -23.135275    0.387752   -2.197131
     44          6           0      -21.922909    1.104862   -1.668121
     45          1           0      -28.480571   -3.678351    2.751892
     46          1           0      -33.732275    0.276651    2.101294
     47          1           0      -31.099685    3.044706   -2.734380
     48          1           0      -25.620540   -2.869307   -0.853168
     49          1           0      -25.819666   -2.883084    2.268349
     50          1           0      -25.777393   -5.117671    1.784729
     51          1           0      -25.881648   -4.877971    0.063281
     52          1           0      -27.391892   -4.901707    1.078025
     53          1           0      -23.684202   -1.658472   -0.474512
     54          1           0      -23.751371   -2.449080    1.112592
     55          1           0      -25.165217    0.137436    1.279731
     56          1           0      -23.505367    0.177994    0.602870
     57          1           0      -29.576042   -3.967974    4.491887
     58          1           0      -31.348643   -4.456530    4.503041
     59          1           0      -30.845551   -3.179594    5.508523
     60          1           0      -34.134432    0.268297    4.297767
     61          1           0      -35.022232   -0.931805    5.209680
     62          1           0      -34.782192   -1.119851    3.404303
     63          1           0      -33.783955    2.603847    1.106549
     64          1           0      -33.503005    3.112474   -1.477566
     65          1           0      -34.940293    0.320983   -0.406637
     66          1           0      -35.012993    1.778055   -1.391574
     67          1           0      -35.874773    1.757900    0.117697
     68          1           0      -31.256345    4.428905   -0.241522
     69          1           0      -32.486397    4.189192    1.001073
     70          1           0      -32.232322    6.082830   -1.202459
     71          1           0      -33.015788    6.018466    0.405581
     72          1           0      -33.929102    5.451387   -0.897012
     73          1           0      -28.825829    3.719689   -4.588561
     74          1           0      -29.702023    2.295116   -5.345288
     75          1           0      -27.914012    2.554467   -5.511043
     76          1           0      -25.037575   -0.918991   -3.021044
     77          1           0      -21.593317    1.914991   -2.319028
     78          1           0      -21.083834    0.419448   -1.541950
     79          1           0      -22.227200    1.474680   -0.688983
     80         12           0       29.653943    0.511311    0.070199
     81          6           0       26.922020   -0.811619   -1.664332
     82          6           0       31.180798   -2.570742   -0.206200
     83          6           0       32.005320    1.512754    2.332763
     84          6           0       27.733849    3.293728    0.821449
     85          7           0       29.113266   -1.370727   -0.905726
     86          6           0       28.071250   -1.594698   -1.716500
     87          6           0       28.168586   -2.883968   -2.545172
     88          6           0       29.460250   -3.549636   -1.932882
     89          6           0       30.063010   -2.376144   -0.976470
     90          6           0       29.276544   -4.880241   -1.171676
     91          6           0       28.231076   -2.666935   -4.057229
     92          6           0       27.695549   -3.862417   -4.865999
     93          1           0       27.197727   -5.109792   -4.122274
     94          7           0       31.411994   -0.333402    0.866327
     95          6           0       31.921371   -1.619805    0.574654
     96          6           0       33.180919   -1.779391    1.273291
     97          6           0       33.413095   -0.607028    2.085066
     98          6           0       32.287556    0.269051    1.763678
     99          6           0       34.055756   -2.978152    1.029353
    100          6           0       34.663407   -0.204931    2.989160
    101          8           0       34.796083    0.876357    3.509072
    102          6           0       35.713179   -1.275233    3.195281
    103          7           0       29.796999    2.101270    1.444910
    104          6           0       30.872026    2.341337    2.249755
    105          6           0       30.726475    3.685228    3.054408
    106          6           0       29.413276    4.227161    2.492278
    107          6           0       28.959343    3.138461    1.538187
    108          6           0       30.848411    3.722357    4.631101
    109          6           0       29.626403    5.582488    1.778150
    110          6           0       30.136950    5.585913    0.320160
    111          7           0       27.762949    1.264971   -0.423741
    112          6           0       27.108892    2.410092   -0.049475
    113          6           0       25.816984    2.485286   -0.645001
    114          6           0       25.671672    1.190521   -1.319293
    115          6           0       26.825232    0.535596   -1.126279
    116          6           0       24.790080    3.529038   -0.615094
    117          6           0       24.751517    0.302462   -2.016178
    118          8           0       23.616761    0.519634   -2.454332
    119          6           0       25.498370   -1.036387   -2.288760
    120          6           0       24.788537   -2.172976   -1.710894
    121          8           0       24.787717   -2.498475   -0.528400
    122          8           0       23.935009   -2.694727   -2.650350
    123          6           0       22.818183   -3.560033   -2.223708
    124          1           0       31.574504   -3.582825   -0.322616
    125          1           0       32.835651    1.921042    2.912630
    126          1           0       27.163182    4.211734    0.976312
    127          1           0       27.372464   -3.584024   -2.292785
    128          1           0       30.274364   -3.653679   -2.649274
    129          1           0       30.011020   -5.499826   -1.685919
    130          1           0       28.268734   -5.269643   -1.313866
    131          1           0       29.467315   -4.741293   -0.107464
    132          1           0       29.238748   -2.428492   -4.395440
    133          1           0       27.635138   -1.797648   -4.336546
    134          1           0       28.566693   -4.091915   -5.479976
    135          1           0       26.945668   -3.556178   -5.596782
    136          1           0       33.445838   -3.668210    0.446212
    137          1           0       34.349317   -3.404719    1.988736
    138          1           0       34.975403   -2.734159    0.495433
    139          1           0       35.468822   -2.085212    3.883310
    140          1           0       36.638090   -0.778517    3.488373
    141          1           0       35.834340   -1.663818    2.184192
    142          1           0       31.593942    4.233517    2.687717
    143          1           0       28.739950    4.338032    3.341476
    144          1           0       30.052938    4.268706    5.136507
    145          1           0       31.765414    4.253079    4.885129
    146          1           0       30.948806    2.693530    4.978122
    147          1           0       30.309756    6.138635    2.418747
    148          1           0       28.657467    6.079056    1.837718
    149          1           0       30.863927    6.397105    0.289768
    150          1           0       29.363127    5.828054   -0.407947
    151          1           0       30.532255    4.629472   -0.020154
    152          1           0       24.375992    3.612096   -1.619342
    153          1           0       25.125677    4.511287   -0.282296
    154          1           0       23.925672    3.182614   -0.048334
    155          1           0       25.557745   -1.086587   -3.375880
    156          1           0       22.828878   -3.746682   -1.149298
    157          1           0       22.936019   -4.521745   -2.723638
    158          1           0       21.964617   -2.965170   -2.546855
 ---------------------------------------------------------------------

 SCF Done:  E(RPBE1PBE) =  -4067.35220165     A.U. after   16 cycles

 Excitation energies and oscillator strengths:

 Excited State   1:      Singlet-A      1.8532 eV  669.02 nm  f=0.3444  <S**2>=0.000
     309 -> 315       -0.19405
     311 -> 314        0.68721
 This state for optimization and/or second-order correction.
 Total Energy, E(TD-HF/TD-DFT) =  -4067.28409705
 Copying the excited state density for this state as the 1-particle RhoCI density.

 Excited State   2:      Singlet-A      1.8755 eV  661.09 nm  f=0.3927  <S**2>=0.000
     310 -> 316       -0.17466
     312 -> 313        0.69087
     312 <- 313       -0.10932

 Excited State   3:      Singlet-A      2.0124 eV  616.09 nm  f=0.0000  <S**2>=0.000
     312 -> 314        0.70711

 Excited State   4:      Singlet-A      2.0356 eV  609.09 nm  f=0.0000  <S**2>=0.000
     311 -> 313        0.70711

 Excited State   5:      Singlet-A      2.1488 eV  577.00 nm  f=0.1398  <S**2>=0.000
     310 -> 313        0.66655
     312 -> 316        0.21040

 The electronic state is 1-A.
 Alpha  occ. eigenvalues --  -46.93578 -46.91664 -19.25696 -19.24556 -19.20070
 Alpha  occ. eigenvalues --  -19.19208 -19.19126 -19.19069 -19.19002 -19.18253
 Alpha  occ. eigenvalues --  -14.41921 -14.41700 -14.41471 -14.41455 -14.39839
 Alpha  occ. eigenvalues --  -14.39190 -14.39088 -14.37920 -10.35727 -10.35655
 Alpha  occ. eigenvalues --  -10.33266 -10.32287 -10.32180 -10.31404 -10.29766
 Alpha  occ. eigenvalues --  -10.29660 -10.29137 -10.28793 -10.28599 -10.28597
 Alpha  occ. eigenvalues --  -10.28546 -10.28501 -10.28447 -10.28439 -10.28395
 Alpha  occ. eigenvalues --  -10.28350 -10.27979 -10.27705 -10.27515 -10.27467
 Alpha  occ. eigenvalues --  -10.26708 -10.26598 -10.26568 -10.26534 -10.26380
 Alpha  occ. eigenvalues --  -10.26226 -10.26028 -10.26013 -10.25977 -10.25879
 Alpha  occ. eigenvalues --  -10.25872 -10.25779 -10.25753 -10.25678 -10.25652
 Alpha  occ. eigenvalues --  -10.25592 -10.25551 -10.25499 -10.25472 -10.25246
 Alpha  occ. eigenvalues --  -10.25230 -10.25083 -10.24804 -10.24721 -10.24720
 Alpha  occ. eigenvalues --  -10.24586 -10.24557 -10.24434 -10.24345 -10.24310
 Alpha  occ. eigenvalues --  -10.24160 -10.24140 -10.24087 -10.23985 -10.23648
 Alpha  occ. eigenvalues --  -10.23558 -10.23553 -10.23462 -10.23455 -10.23321
 Alpha  occ. eigenvalues --  -10.23248 -10.22966 -10.22920 -10.22878 -10.22561
 Alpha  occ. eigenvalues --  -10.22463  -3.15472  -3.13769  -1.88273  -1.87876
 Alpha  occ. eigenvalues --   -1.87671  -1.86611  -1.86140  -1.85999  -1.11819
 Alpha  occ. eigenvalues --   -1.09849  -1.06259  -1.04925  -1.03655  -1.03567
 Alpha  occ. eigenvalues --   -1.02511  -1.01459  -0.99210  -0.99042  -0.98270
 Alpha  occ. eigenvalues --   -0.97975  -0.97146  -0.97081  -0.96220  -0.95630
 Alpha  occ. eigenvalues --   -0.86470  -0.86300  -0.83452  -0.83247  -0.83045
 Alpha  occ. eigenvalues --   -0.83045  -0.82556  -0.82447  -0.81399  -0.81397
 Alpha  occ. eigenvalues --   -0.80715  -0.80476  -0.80411  -0.79607  -0.78906
 Alpha  occ. eigenvalues --   -0.78482  -0.78331  -0.77690  -0.77077  -0.76829
 Alpha  occ. eigenvalues --   -0.76588  -0.76089  -0.75425  -0.75325  -0.74598
 Alpha  occ. eigenvalues --   -0.74539  -0.72446  -0.72235  -0.71633  -0.71419
 Alpha  occ. eigenvalues --   -0.71136  -0.70690  -0.70554  -0.70212  -0.69384
 Alpha  occ. eigenvalues --   -0.69297  -0.67300  -0.66897  -0.66179  -0.65538
 Alpha  occ. eigenvalues --   -0.64162  -0.63223  -0.62926  -0.62850  -0.62530
 Alpha  occ. eigenvalues --   -0.62120  -0.61134  -0.60454  -0.60006  -0.59616
 Alpha  occ. eigenvalues --   -0.59333  -0.59256  -0.59121  -0.58944  -0.58565
 Alpha  occ. eigenvalues --   -0.58288  -0.57001  -0.55986  -0.54844  -0.54287
 Alpha  occ. eigenvalues --   -0.53849  -0.53666  -0.53602  -0.53590  -0.53075
 Alpha  occ. eigenvalues --   -0.52847  -0.52396  -0.52305  -0.51979  -0.51831
 Alpha  occ. eigenvalues --   -0.50742  -0.50408  -0.50356  -0.49989  -0.49690
 Alpha  occ. eigenvalues --   -0.49593  -0.49475  -0.49193  -0.49105  -0.48456
 Alpha  occ. eigenvalues --   -0.48252  -0.48080  -0.47818  -0.47688  -0.47456
 Alpha  occ. eigenvalues --   -0.47259  -0.47200  -0.46924  -0.46781  -0.46693
 Alpha  occ. eigenvalues --   -0.46660  -0.46408  -0.46404  -0.46255  -0.46076
 Alpha  occ. eigenvalues --   -0.45511  -0.45210  -0.45145  -0.44804  -0.44764
 Alpha  occ. eigenvalues --   -0.44357  -0.44276  -0.44206  -0.44096  -0.44031
 Alpha  occ. eigenvalues --   -0.43940  -0.43803  -0.43662  -0.43608  -0.43520
 Alpha  occ. eigenvalues --   -0.43167  -0.43119  -0.42915  -0.42899  -0.42763
 Alpha  occ. eigenvalues --   -0.42445  -0.42319  -0.41957  -0.41784  -0.41632
 Alpha  occ. eigenvalues --   -0.41607  -0.41427  -0.41326  -0.41032  -0.40996
 Alpha  occ. eigenvalues --   -0.40870  -0.40526  -0.40522  -0.40386  -0.40284
 Alpha  occ. eigenvalues --   -0.40084  -0.39999  -0.39922  -0.39809  -0.39781
 Alpha  occ. eigenvalues --   -0.39561  -0.39401  -0.39135  -0.39060  -0.38758
 Alpha  occ. eigenvalues --   -0.38638  -0.38568  -0.38449  -0.38347  -0.38236
 Alpha  occ. eigenvalues --   -0.38000  -0.37981  -0.37882  -0.37744  -0.37639
 Alpha  occ. eigenvalues --   -0.37461  -0.37254  -0.37246  -0.36876  -0.36845
 Alpha  occ. eigenvalues --   -0.36338  -0.36338  -0.36211  -0.36116  -0.35936
 Alpha  occ. eigenvalues --   -0.35731  -0.35713  -0.35544  -0.35099  -0.35006
 Alpha  occ. eigenvalues --   -0.34957  -0.34822  -0.34728  -0.33650  -0.33482
 Alpha  occ. eigenvalues --   -0.33325  -0.32926  -0.32801  -0.32687  -0.32404
 Alpha  occ. eigenvalues --   -0.32095  -0.31769  -0.31730  -0.31412  -0.31196
 Alpha  occ. eigenvalues --   -0.30707  -0.30604  -0.29549  -0.29274  -0.29125
 Alpha  occ. eigenvalues --   -0.28967  -0.28829  -0.28482  -0.27014  -0.26604
 Alpha  occ. eigenvalues --   -0.26335  -0.26017  -0.25730  -0.25528  -0.25368
 Alpha  occ. eigenvalues --   -0.25185  -0.24484  -0.24384  -0.21224  -0.20502
 Alpha  occ. eigenvalues --   -0.18984  -0.18885
 Alpha virt. eigenvalues --   -0.11279  -0.11266  -0.05927  -0.04870  -0.03965
 Alpha virt. eigenvalues --   -0.03625  -0.02065  -0.01921  -0.01664  -0.00168
 Alpha virt. eigenvalues --    0.00416   0.00700   0.00966   0.01093   0.01709

 Mulliken charges:
               1
     1  Mg  12.005381
     2  C    6.011331
     3  C    5.976167
     4  C    5.987082
     5  C    6.018377
     6  N    7.006233
     7  C    5.973169
     8  C    6.001059
     9  C    5.986401
    10  C    6.040317
    11  C    5.999141
    12  C    6.002683
    13  C    6.007112
    14  H    0.987055
    15  N    6.991866
    16  C    6.040896
    17  C    6.017989
    18  C    6.010440
    19  C    6.035066
    20  C    5.997014
    21  C    6.011463
    22  O    8.017116
    23  C    5.996334
    24  N    7.003556
    25  C    6.026220
    26  C    5.987830
    27  C    6.014223
    28  C    5.963079
    29  C    5.997409
    30  C    6.000711
    31  C    6.001601
    32  N    7.003261
    33  C    5.960367
    34  C    5.973566
    35  C    5.998429
    36  C    5.970308
    37  C    5.995813
    38  C    5.983891
    39  O    7.967987
    40  C    6.000116
    41  C    5.993596
    42  O    7.997604
    43  O    7.998608
    44  C    6.001626
    45  H    1.006482
    46  H    1.009550
    47  H    0.991153
    48  H    1.005509
    49  H    1.005417
    50  H    1.004086
    51  H    1.010075
    52  H    0.996030
    53  H    1.004871
    54  H    0.992714
    55  H    1.000049
    56  H    1.003837
    57  H    1.017782
    58  H    1.018003
    59  H    1.015489
    60  H    1.010539
    61  H    1.011605
    62  H    1.006392
    63  H    1.001576
    64  H    0.995658
    65  H    0.996734
    66  H    1.011534
    67  H    1.001390
    68  H    1.003471
    69  H    0.987476
    70  H    1.002429
    71  H    0.995181
    72  H    0.995610
    73  H    0.984509
    74  H    0.986056
    75  H    0.990213
    76  H    0.990637
    77  H    0.998214
    78  H    0.994409
    79  H    0.995822
    80  Mg  12.000048
    81  C    5.999903
    82  C    6.000026
    83  C    6.000167
    84  C    6.000123
    85  N    6.999958
    86  C    6.000212
    87  C    5.999906
    88  C    6.000025
    89  C    5.999799
    90  C    6.000001
    91  C    5.999978
    92  C    5.999973
    93  H    1.000028
    94  N    7.000033
    95  C    5.999684
    96  C    5.999843
    97  C    5.999811
    98  C    5.999757
    99  C    6.000011
   100  C    5.999890
   101  O    7.999768
   102  C    6.000051
   103  N    6.999967
   104  C    5.999719
   105  C    6.000064
   106  C    5.999914
   107  C    6.000287
   108  C    6.000011
   109  C    5.999984
   110  C    5.999954
   111  N    7.000004
   112  C    6.000178
   113  C    6.000274
   114  C    6.000081
   115  C    6.000164
   116  C    5.999971
   117  C    6.000030
   118  O    8.000273
   119  C    6.000055
   120  C    6.000011
   121  O    8.000053
   122  O    8.000034
   123  C    5.999972
   124  H    0.999927
   125  H    0.999931
   126  H    1.000074
   127  H    1.000008
   128  H    1.000007
   129  H    0.999987
   130  H    0.999913
   131  H    1.000016
   132  H    1.000063
   133  H    0.999952
   134  H    1.000037
   135  H    1.000002
   136  H    0.999864
   137  H    0.999846
   138  H    0.999839
   139  H    0.999905
   140  H    0.999874
   141  H    0.999978
   142  H    1.000000
   143  H    1.000017
   144  H    0.999919
   145  H    0.999988
   146  H    1.000014
   147  H    1.000078
   148  H    0.999981
   149  H    1.000060
   150  H    0.999966
   151  H    1.000048
   152  H    1.000175
   153  H    1.000164
   154  H    1.000200
   155  H    1.000068
   156  H    1.000021
   157  H    1.000051
   158  H    1.000030
 Sum of Mulliken charges = 624.00000

 Dipole moment (field-independent basis, Debye):
    X=             -4.3957    Y=             -4.6448    Z=              7.5578  Tot=              9.9004
 Quadrupole moment (field-independent basis, Debye-Ang):
   XX=            248.0938   YY=              3.5191   ZZ=              0.4987
   XY=            140.9050   XZ=           -227.0040   YZ=             -3.1390

 Normal termination of Gaussian 16 at Thu Oct 14 00:13:41 2021.
