 Gaussian 16, Revision A.03,
 Gaussian 16:  ES64L-G16RevA.03 25-Dec-2016

 --------------------------------------------------------
 #p PBE1PBE/Def2SVP td=(nstates=5) density=(transition=1)
 --------------------------------------------------------

 --------------------------------
 TDDFT excited states in gaussian
 --------------------------------
 Symbolic Z-matrix:
 Charge =  0 Multiplicity = 1

                         Standard orientation:
 ---------------------------------------------------------------------
 Center     Atomic      Atomic             Coordinates (Angstroms)
 Number     Number       Type             X           Y           Z
 ---------------------------------------------------------------------
      1         12           0      -13.262661   -0.401131    0.317197
      2          6           0      -13.277684    2.517955   -1.396112
      3          6           0      -11.672497    1.168011    2.976880
      4          6           0      -13.242222   -3.322414    2.028090
      5          6           0      -14.392043   -2.063111   -2.501556
      6          7           0      -12.698836    1.589391    0.708960
      7          6           0      -12.750957    2.656923   -0.127129
      8          6           0      -12.404677    3.948591    0.566474
      9          6           0      -11.638599    3.468458    1.857252
     10          6           0      -12.059024    1.962156    1.864863
     11          6           0      -10.082758    3.733823    2.011197
     12          6           0      -13.709928    4.767269    0.978594
     13          6           0      -13.434133    6.292287    1.130562
     14          1           0      -12.045267    6.832701    1.510228
     15          7           0      -12.486565   -1.062431    2.227363
     16          6           0      -11.867708   -0.203391    3.173017
     17          6           0      -11.529702   -0.951429    4.346255
     18          6           0      -11.968340   -2.299613    4.091404
     19          6           0      -12.610817   -2.239932    2.729946
     20          6           0      -10.938182   -0.369627    5.582111
     21          6           0      -11.864833   -3.533712    4.980599
     22          8           0      -12.170160   -4.714965    4.642664
     23          6           0      -11.335739   -3.388432    6.397340
     24          7           0      -13.676295   -2.407955   -0.173374
     25          6           0      -13.780407   -3.435577    0.765416
     26          6           0      -14.531287   -4.701510    0.260576
     27          6           0      -14.922515   -4.180356   -1.233786
     28          6           0      -14.343266   -2.816531   -1.329451
     29          6           0      -13.570236   -5.897004    0.285422
     30          6           0      -16.386558   -4.257745   -1.552399
     31          6           0      -16.689621   -5.056753   -2.787590
     32          7           0      -13.644330   -0.017661   -1.563671
     33          6           0      -14.130121   -0.751020   -2.639060
     34          6           0      -14.273587    0.083249   -3.774120
     35          6           0      -13.912086    1.400926   -3.384642
     36          6           0      -13.635714    1.325200   -2.003186
     37          6           0      -14.751883   -0.261745   -5.132107
     38          6           0      -13.659219    2.744629   -3.856822
     39          8           0      -13.691990    3.296815   -4.939170
     40          6           0      -13.300648    3.523082   -2.503320
     41          6           0      -12.199815    4.504286   -2.689332
     42          8           0      -11.177774    4.331133   -3.302735
     43          8           0      -12.447529    5.694579   -2.120959
     44          6           0      -11.352277    6.693176   -2.279835
     45          1           0      -11.026966    1.709912    3.671386
     46          1           0      -13.107702   -4.278615    2.537864
     47          1           0      -14.852282   -2.486651   -3.396597
     48          1           0      -11.663808    4.530107    0.018048
     49          1           0      -12.135508    3.896833    2.727106
     50          1           0       -9.775175    4.347821    1.164654
     51          1           0       -9.426173    2.867775    2.077884
     52          1           0       -9.950236    4.245724    2.964537
     53          1           0      -14.041252    4.292821    1.902461
     54          1           0      -14.450149    4.607470    0.194510
     55          1           0      -14.162509    6.582094    1.888136
     56          1           0      -13.801164    6.757817    0.216247
     57          1           0      -11.641175    0.104239    6.267277
     58          1           0      -10.179804    0.330561    5.234076
     59          1           0      -10.290038   -1.064267    6.115593
     60          1           0      -10.249337   -3.406481    6.312053
     61          1           0      -11.672663   -4.286978    6.913666
     62          1           0      -11.637389   -2.465111    6.892214
     63          1           0      -15.325122   -4.887105    0.984195
     64          1           0      -14.420454   -4.817958   -1.962237
     65          1           0      -12.526225   -5.664796    0.496745
     66          1           0      -13.718738   -6.486886   -0.618749
     67          1           0      -13.872827   -6.500370    1.141766
     68          1           0      -16.833120   -3.285834   -1.762741
     69          1           0      -17.006131   -4.661326   -0.751454
     70          1           0      -17.480411   -5.791487   -2.638929
     71          1           0      -15.812649   -5.604685   -3.131227
     72          1           0      -16.880990   -4.301725   -3.550660
     73          1           0      -14.540719   -1.276369   -5.471128
     74          1           0      -14.064943    0.282521   -5.780813
     75          1           0      -15.811560   -0.023949   -5.225668
     76          1           0      -14.230963    4.087613   -2.434290
     77          1           0      -11.343760    7.137732   -3.276038
     78          1           0      -10.391358    6.301135   -1.946190
     79          1           0      -11.545896    7.518956   -1.594780
     80         12           0       12.629351   -0.737647   -0.439112
     81          6           0       14.837408    1.986623    0.028633
     82          6           0       10.007547    1.312537    0.474434
     83          6           0       10.581036   -3.431475   -0.610334
     84          6           0       15.348130   -2.832579   -1.152487
     85          7           0       12.562022    1.361434    0.261845
     86          6           0       13.537389    2.351282    0.167500
     87          6           0       12.949354    3.778206    0.521779
     88          6           0       11.488679    3.431033    0.914734
     89          6           0       11.322689    1.929752    0.589152
     90          6           0       11.024304    3.734628    2.388274
     91          6           0       13.177332    4.926078   -0.545046
     92          6           0       13.946437    6.113677   -0.050626
     93          1           0       13.485425    7.519272   -0.605839
     94          7           0       10.628568   -0.964907   -0.101155
     95          6           0        9.678075   -0.010950    0.200963
     96          6           0        8.378540   -0.649658    0.338648
     97          6           0        8.489068   -2.035073    0.030094
     98          6           0        9.957165   -2.207553   -0.274299
     99          6           0        7.065171    0.114129    0.602009
    100          6           0        7.415285   -3.116206   -0.038027
    101          8           0        7.624897   -4.255196   -0.401536
    102          6           0        5.878719   -2.864976    0.251517
    103          7           0       12.949530   -2.878079   -0.738389
    104          6           0       11.954609   -3.755161   -0.765604
    105          6           0       12.459574   -5.209612   -1.074956
    106          6           0       13.977609   -4.970183   -1.441663
    107          6           0       14.121931   -3.452062   -1.119540
    108          6           0       12.138669   -6.197202    0.083981
    109          6           0       14.294280   -5.383111   -2.865441
    110          6           0       15.622836   -6.121303   -3.019512
    111          7           0       14.708286   -0.606061   -0.433698
    112          6           0       15.685171   -1.497063   -0.834902
    113          6           0       16.950477   -0.861189   -0.631984
    114          6           0       16.701015    0.503069   -0.341653
    115          6           0       15.290363    0.639888   -0.216295
    116          6           0       18.280052   -1.493988   -0.796835
    117          6           0       17.331000    1.822955   -0.163558
    118          8           0       18.500671    2.181905   -0.063942
    119          6           0       16.008982    2.891622    0.059771
    120          6           0       16.151370    3.579264    1.305069
    121          8           0       15.512570    3.334172    2.305387
    122          8           0       17.014168    4.644527    1.179507
    123          6           0       17.236932    5.355022    2.463358
    124          1           0        9.136627    1.951369    0.636375
    125          1           0        9.977124   -4.340454   -0.631792
    126          1           0       16.125086   -3.531473   -1.471302
    127          1           0       13.398660    4.016801    1.485178
    128          1           0       10.782426    3.962043    0.276435
    129          1           0       10.008751    4.125661    2.318848
    130          1           0       11.714739    4.455730    2.825093
    131          1           0       11.004344    2.862605    3.042238
    132          1           0       12.184254    5.201092   -0.900654
    133          1           0       13.764565    4.489442   -1.353068
    134          1           0       14.996470    6.012555   -0.328177
    135          1           0       13.838199    6.051226    1.031819
    136          1           0        6.487379    0.002799   -0.314835
    137          1           0        7.281141    1.181454    0.655288
    138          1           0        6.459602   -0.252182    1.431917
    139          1           0        5.535910   -2.078190   -0.421324
    140          1           0        5.654669   -2.795835    1.316411
    141          1           0        5.411902   -3.835798    0.087840
    142          1           0       12.013759   -5.643198   -1.969915
    143          1           0       14.552312   -5.515561   -0.692818
    144          1           0       13.054670   -6.728401    0.344133
    145          1           0       11.307190   -6.867288   -0.135945
    146          1           0       11.820464   -5.637993    0.962302
    147          1           0       14.287311   -4.535975   -3.550525
    148          1           0       13.532833   -6.012194   -3.329085
    149          1           0       16.212110   -6.077207   -2.103533
    150          1           0       16.173582   -5.595198   -3.799757
    151          1           0       15.495237   -7.134144   -3.401903
    152          1           0       18.303065   -2.546078   -1.080706
    153          1           0       18.873953   -1.174481    0.060343
    154          1           0       18.620625   -1.086623   -1.749063
    155          1           0       15.995056    3.612204   -0.758447
    156          1           0       17.656981    4.667803    3.198122
    157          1           0       16.277031    5.795417    2.732943
    158          1           0       17.966562    6.159772    2.382130
 ---------------------------------------------------------------------

 SCF Done:  E(RPBE1PBE) =  -4067.37776461     A.U. after   17 cycles

 Excitation energies and oscillator strengths:

 Excited State   1:      Singlet-A      1.8022 eV  687.95 nm  f=0.3725  <S**2>=0.000
     309 -> 316       -0.16350
     312 -> 313        0.69730
     312 <- 313       -0.11959
 This state for optimization and/or second-order correction.
 Total Energy, E(TD-HF/TD-DFT) =  -4067.31153377
 Copying the excited state density for this state as the 1-particle RhoCI density.

 Excited State   2:      Singlet-A      1.8745 eV  661.41 nm  f=0.3616  <S**2>=0.000
     310 -> 315       -0.17488
     311 -> 314        0.69046

 Excited State   3:      Singlet-A      1.8776 eV  660.34 nm  f=0.0000  <S**2>=0.000
     311 -> 313        0.70710

 Excited State   4:      Singlet-A      1.9501 eV  635.79 nm  f=0.0000  <S**2>=0.000
     312 -> 314        0.70709

 Excited State   5:      Singlet-A      2.2177 eV  559.08 nm  f=0.1140  <S**2>=0.000
     309 -> 313        0.65140
     312 -> 316        0.25927

 The electronic state is 1-A.
 Alpha  occ. eigenvalues --  -46.91651 -46.90628 -19.25848 -19.25013 -19.19969
 Alpha  occ. eigenvalues --  -19.19737 -19.19506 -19.19498 -19.19049 -19.18783
 Alpha  occ. eigenvalues --  -14.42353 -14.41794 -14.41362 -14.41225 -14.39869
 Alpha  occ. eigenvalues --  -14.39196 -14.38649 -14.38558 -10.35649 -10.35334
 Alpha  occ. eigenvalues --  -10.33452 -10.33227 -10.32398 -10.32330 -10.29947
 Alpha  occ. eigenvalues --  -10.29350 -10.29307 -10.29182 -10.28735 -10.28700
 Alpha  occ. eigenvalues --  -10.28530 -10.28518 -10.28314 -10.28305 -10.28181
 Alpha  occ. eigenvalues --  -10.27832 -10.27793 -10.27622 -10.27353 -10.26936
 Alpha  occ. eigenvalues --  -10.26774 -10.26742 -10.26731 -10.26579 -10.26388
 Alpha  occ. eigenvalues --  -10.26196 -10.26154 -10.26145 -10.26062 -10.25935
 Alpha  occ. eigenvalues --  -10.25732 -10.25674 -10.25553 -10.25546 -10.25529
 Alpha  occ. eigenvalues --  -10.25454 -10.25421 -10.25419 -10.25360 -10.25334
 Alpha  occ. eigenvalues --  -10.25281 -10.25268 -10.25137 -10.25110 -10.25084
 Alpha  occ. eigenvalues --  -10.25061 -10.24635 -10.24385 -10.24381 -10.24093
 Alpha  occ. eigenvalues --  -10.24014 -10.23729 -10.23710 -10.23656 -10.23635
 Alpha  occ. eigenvalues --  -10.23330 -10.23278 -10.23214 -10.23167 -10.23094
 Alpha  occ. eigenvalues --  -10.23064 -10.23048 -10.23047 -10.22891 -10.22775
 Alpha  occ. eigenvalues --  -10.22612  -3.13760  -3.13057  -1.86608  -1.86127
 Alpha  occ. eigenvalues --   -1.85991  -1.85891  -1.85412  -1.85328  -1.12150
 Alpha  occ. eigenvalues --   -1.10664  -1.05920  -1.04938  -1.04331  -1.02302
 Alpha  occ. eigenvalues --   -1.02149  -1.02146  -0.99163  -0.98688  -0.98298
 Alpha  occ. eigenvalues --   -0.97411  -0.96992  -0.96630  -0.96107  -0.95637
 Alpha  occ. eigenvalues --   -0.87795  -0.86364  -0.84075  -0.83435  -0.83162
 Alpha  occ. eigenvalues --   -0.82900  -0.82661  -0.82199  -0.82084  -0.81591
 Alpha  occ. eigenvalues --   -0.81244  -0.81176  -0.80776  -0.80244  -0.78717
 Alpha  occ. eigenvalues --   -0.78605  -0.78143  -0.77970  -0.76821  -0.76786
 Alpha  occ. eigenvalues --   -0.75947  -0.75455  -0.75334  -0.74998  -0.74816
 Alpha  occ. eigenvalues --   -0.74148  -0.72666  -0.72472  -0.72169  -0.71710
 Alpha  occ. eigenvalues --   -0.71291  -0.70906  -0.70799  -0.70097  -0.69652
 Alpha  occ. eigenvalues --   -0.69072  -0.67401  -0.66789  -0.66356  -0.65735
 Alpha  occ. eigenvalues --   -0.63567  -0.63312  -0.63238  -0.63106  -0.62641
 Alpha  occ. eigenvalues --   -0.61975  -0.61519  -0.61170  -0.60335  -0.60043
 Alpha  occ. eigenvalues --   -0.59853  -0.59382  -0.59337  -0.59046  -0.58955
 Alpha  occ. eigenvalues --   -0.58740  -0.56965  -0.55788  -0.54939  -0.54508
 Alpha  occ. eigenvalues --   -0.54395  -0.53795  -0.53607  -0.53293  -0.53061
 Alpha  occ. eigenvalues --   -0.52603  -0.52601  -0.52392  -0.52374  -0.51778
 Alpha  occ. eigenvalues --   -0.50745  -0.50485  -0.50271  -0.49937  -0.49806
 Alpha  occ. eigenvalues --   -0.49641  -0.49367  -0.48869  -0.48577  -0.48301
 Alpha  occ. eigenvalues --   -0.48027  -0.47730  -0.47671  -0.47628  -0.47533
 Alpha  occ. eigenvalues --   -0.47205  -0.47157  -0.47147  -0.46957  -0.46766
 Alpha  occ. eigenvalues --   -0.46734  -0.46665  -0.46293  -0.46038  -0.45952
 Alpha  occ. eigenvalues --   -0.45804  -0.45629  -0.45360  -0.45205  -0.45039
 Alpha  occ. eigenvalues --   -0.44845  -0.44715  -0.44485  -0.44301  -0.44241
 Alpha  occ. eigenvalues --   -0.44104  -0.43972  -0.43647  -0.43534  -0.43246
 Alpha  occ. eigenvalues --   -0.43139  -0.42915  -0.42902  -0.42750  -0.42723
 Alpha  occ. eigenvalues --   -0.42668  -0.42437  -0.42391  -0.42064  -0.41930
 Alpha  occ. eigenvalues --   -0.41892  -0.41459  -0.41449  -0.41398  -0.41151
 Alpha  occ. eigenvalues --   -0.41112  -0.40901  -0.40833  -0.40743  -0.40274
 Alpha  occ. eigenvalues --   -0.40045  -0.39933  -0.39800  -0.39658  -0.39618
 Alpha  occ. eigenvalues --   -0.39420  -0.39368  -0.39175  -0.38925  -0.38885
 Alpha  occ. eigenvalues --   -0.38765  -0.38675  -0.38461  -0.38456  -0.38175
 Alpha  occ. eigenvalues --   -0.38161  -0.38055  -0.37935  -0.37523  -0.37380
 Alpha  occ. eigenvalues --   -0.37302  -0.37206  -0.37189  -0.36895  -0.36869
 Alpha  occ. eigenvalues --   -0.36836  -0.36337  -0.36326  -0.36072  -0.35970
 Alpha  occ. eigenvalues --   -0.35802  -0.35430  -0.35400  -0.35350  -0.35329
 Alpha  occ. eigenvalues --   -0.35182  -0.35019  -0.34907  -0.34589  -0.34355
 Alpha  occ. eigenvalues --   -0.33630  -0.33302  -0.33047  -0.32713  -0.32636
 Alpha  occ. eigenvalues --   -0.32300  -0.32233  -0.32110  -0.31923  -0.31665
 Alpha  occ. eigenvalues --   -0.31241  -0.30986  -0.29889  -0.29461  -0.29301
 Alpha  occ. eigenvalues --   -0.28970  -0.28701  -0.28491  -0.27119  -0.27063
 Alpha  occ. eigenvalues --   -0.26181  -0.26004  -0.25901  -0.25585  -0.25573
 Alpha  occ. eigenvalues --   -0.25495  -0.25257  -0.24661  -0.21259  -0.20924
 Alpha  occ. eigenvalues --   -0.18867  -0.18766
 Alpha virt. eigenvalues --   -0.11466  -0.11072  -0.05312  -0.05196  -0.04149
 Alpha virt. eigenvalues --   -0.04112  -0.02338  -0.02197   0.00053   0.00135
 Alpha virt. eigenvalues --    0.00241   0.00775   0.01128   0.01131   0.01186

 Mulliken charges:
               1
     1  Mg  12.004206
     2  C    5.978653
     3  C    5.999524
     4  C    6.030771
     5  C    6.015687
     6  N    6.985531
     7  C    6.031648
     8  C    5.988290
     9  C    6.009551
    10  C    5.968525
    11  C    6.004417
    12  C    5.997398
    13  C    5.999960
    14  H    1.005858
    15  N    7.003435
    16  C    5.962084
    17  C    5.986260
    18  C    5.978778
    19  C    5.970051
    20  C    6.003544
    21  C    5.986453
    22  O    7.962573
    23  C    6.004860
    24  N    7.019775
    25  C    5.967268
    26  C    6.009317
    27  C    5.988503
    28  C    6.017980
    29  C    5.999793
    30  C    5.993698
    31  C    5.999718
    32  N    6.997377
    33  C    6.019333
    34  C    6.034914
    35  C    6.000643
    36  C    6.029170
    37  C    5.997083
    38  C    6.013824
    39  O    8.023560
    40  C    6.003565
    41  C    6.003185
    42  O    8.002199
    43  O    8.001926
    44  C    5.998560
    45  H    0.985354
    46  H    1.001361
    47  H    1.014840
    48  H    0.999192
    49  H    0.996521
    50  H    0.985143
    51  H    1.000525
    52  H    0.996775
    53  H    1.011067
    54  H    0.992822
    55  H    1.002249
    56  H    0.995670
    57  H    0.981844
    58  H    0.987234
    59  H    0.986279
    60  H    0.989917
    61  H    0.985692
    62  H    0.993070
    63  H    1.003687
    64  H    1.004127
    65  H    1.004925
    66  H    0.992572
    67  H    1.005144
    68  H    0.998251
    69  H    1.012426
    70  H    1.007133
    71  H    1.003896
    72  H    0.996014
    73  H    1.016574
    74  H    1.015396
    75  H    1.021210
    76  H    1.003527
    77  H    1.000423
    78  H    1.004970
    79  H    1.004723
    80  Mg  11.999829
    81  C    6.000230
    82  C    5.999896
    83  C    5.999788
    84  C    6.000125
    85  N    7.000217
    86  C    5.999541
    87  C    6.000166
    88  C    5.999836
    89  C    6.000585
    90  C    5.999895
    91  C    6.000059
    92  C    6.000089
    93  H    0.999726
    94  N    6.999839
    95  C    6.000575
    96  C    6.000404
    97  C    6.000418
    98  C    6.000432
    99  C    6.000032
   100  C    6.000144
   101  O    8.000431
   102  C    5.999950
   103  N    6.999942
   104  C    6.000471
   105  C    5.999848
   106  C    6.000176
   107  C    5.999535
   108  C    5.999952
   109  C    6.000129
   110  C    6.000036
   111  N    7.000078
   112  C    5.999314
   113  C    5.999441
   114  C    5.999984
   115  C    5.999426
   116  C    6.000042
   117  C    5.999605
   118  O    7.999433
   119  C    5.999867
   120  C    5.999972
   121  O    7.999890
   122  O    7.999950
   123  C    6.000032
   124  H    1.000299
   125  H    1.000110
   126  H    0.999718
   127  H    0.999975
   128  H    0.999968
   129  H    1.000128
   130  H    1.000252
   131  H    1.000171
   132  H    0.999792
   133  H    0.999983
   134  H    1.000040
   135  H    1.000055
   136  H    1.000192
   137  H    1.000284
   138  H    1.000748
   139  H    0.999981
   140  H    1.000653
   141  H    1.000367
   142  H    0.999907
   143  H    0.999980
   144  H    1.000146
   145  H    0.999998
   146  H    1.000096
   147  H    0.999890
   148  H    0.999727
   149  H    1.000095
   150  H    0.999924
   151  H    0.999833
   152  H    0.999613
   153  H    0.999681
   154  H    0.999512
   155  H    0.999768
   156  H    1.000007
   157  H    0.999926
   158  H    0.999852
 Sum of Mulliken charges = 624.00000

 Dipole moment (field-independent basis, Debye):
    X=             -3.6678    Y=              1.4074    Z=             -9.6730  Tot=             10.4403
 Quadrupole moment (field-independent basis, Debye-Ang):
   XX=             83.7776   YY=             -0.0664   ZZ=             -8.0118
   XY=            -15.1055   XZ=            124.5327   YZ=              7.3988

 Normal termination of Gaussian 16 at Fri Oct 15 03:27:35 2021.
