 Gaussian 16, Revision A.03,
 Gaussian 16:  ES64L-G16RevA.03 25-Dec-2016

 --------------------------------------------------------
 #p PBE1PBE/Def2SVP td=(nstates=5) density=(transition=1)
 --------------------------------------------------------

 --------------------------------
 TDDFT excited states in gaussian
 --------------------------------
 Symbolic Z-matrix:
 Charge =  0 Multiplicity = 1

                         Standard orientation:
 ---------------------------------------------------------------------
 Center     Atomic      Atomic             Coordinates (Angstroms)
 Number     Number       Type             X           Y           Z
 ---------------------------------------------------------------------
      1         12           0       21.222614    0.184358    0.448903
      2          6           0       18.342899   -1.619435    0.302677
      3          6           0       23.010879   -2.756431   -0.364951
      4          6           0       23.798231    2.111856   -0.448390
      5          6           0       19.281806    3.216589    0.734311
      6          7           0       20.698455   -1.890670    0.060205
      7          6           0       19.531151   -2.443056    0.028672
      8          6           0       19.587058   -4.011171   -0.026306
      9          6           0       21.122479   -4.357641    0.055006
     10          6           0       21.713751   -2.910052   -0.055202
     11          6           0       21.554611   -5.266212    1.206785
     12          6           0       18.788648   -4.614970   -1.328181
     13          6           0       18.580639   -3.717496   -2.537327
     14          1           0       18.258297   -4.318562   -3.905422
     15          7           0       23.135352   -0.275421   -0.311591
     16          6           0       23.706530   -1.509431   -0.509991
     17          6           0       24.996502   -1.353413   -1.026730
     18          6           0       25.267395    0.066760   -1.111436
     19          6           0       24.017772    0.724270   -0.646278
     20          6           0       25.907583   -2.551503   -1.221468
     21          6           0       26.594330    0.665633   -1.611849
     22          8           0       27.493419   -0.128011   -1.969853
     23          6           0       26.897540    2.064219   -1.709149
     24          7           0       21.468500    2.424367    0.018426
     25          6           0       22.682674    2.871590   -0.133304
     26          6           0       22.774757    4.421914   -0.050887
     27          6           0       21.337201    4.784418    0.381550
     28          6           0       20.574063    3.399000    0.420044
     29          6           0       23.780481    4.930443    0.917939
     30          6           0       20.654420    5.869325   -0.577745
     31          6           0       20.405691    7.300692    0.053466
     32          7           0       19.251722    0.761922    0.627092
     33          6           0       18.587036    1.986229    0.770836
     34          6           0       17.122409    1.719103    0.918787
     35          6           0       17.020353    0.338644    0.695585
     36          6           0       18.322983   -0.204899    0.489169
     37          6           0       16.039075    2.653184    1.159612
     38          6           0       16.058044   -0.657254    0.567492
     39          8           0       14.822629   -0.675226    0.669781
     40          6           0       16.859017   -1.980012    0.402441
     41          6           0       16.434107   -2.944127    1.535497
     42          8           0       16.023448   -4.086624    1.423217
     43          8           0       16.569114   -2.373189    2.782535
     44          6           0       16.161593   -3.172466    3.944142
     45          1           0       23.465363   -3.703319   -0.663257
     46          1           0       24.646708    2.787744   -0.572119
     47          1           0       18.727498    4.121640    0.990943
     48          1           0       19.192745   -4.361118    0.928088
     49          1           0       21.484712   -4.835520   -0.855755
     50          1           0       22.199260   -4.711758    1.888496
     51          1           0       22.128155   -6.126729    0.860377
     52          1           0       20.746487   -5.732318    1.770579
     53          1           0       17.863187   -4.958493   -0.865394
     54          1           0       19.272590   -5.459012   -1.820071
     55          1           0       19.520149   -3.168599   -2.596086
     56          1           0       17.819256   -3.000274   -2.230222
     57          1           0       26.880067   -2.579693   -0.729272
     58          1           0       26.018788   -2.732176   -2.290879
     59          1           0       25.395455   -3.444942   -0.864789
     60          1           0       26.892522    2.651446   -0.791040
     61          1           0       26.116812    2.583063   -2.264448
     62          1           0       27.799926    2.277769   -2.281185
     63          1           0       23.044012    4.977861   -0.948859
     64          1           0       21.269443    5.112061    1.419001
     65          1           0       24.692792    5.325593    0.471394
     66          1           0       24.205974    4.109629    1.496388
     67          1           0       23.335633    5.694270    1.555522
     68          1           0       19.651407    5.516643   -0.821721
     69          1           0       21.236969    6.117102   -1.464039
     70          1           0       20.732670    8.069667   -0.645309
     71          1           0       21.076208    7.410076    0.905937
     72          1           0       19.323587    7.371007    0.165498
     73          1           0       16.495384    3.446610    1.751984
     74          1           0       15.244218    2.179842    1.737139
     75          1           0       15.636692    2.910667    0.180319
     76          1           0       16.497530   -2.601648   -0.416379
     77          1           0       15.913790   -2.490965    4.758151
     78          1           0       16.894956   -3.844493    4.389559
     79          1           0       15.344176   -3.864032    3.737909
     80         12           0      -20.450615    0.785836    0.407971
     81          6           0      -20.577136   -2.736794    0.468326
     82          6           0      -17.494997    0.524072   -1.266234
     83          6           0      -20.703780    4.116576   -0.315586
     84          6           0      -23.775175    0.710812    1.689256
     85          7           0      -19.233849   -0.952513   -0.451937
     86          6           0      -19.357253   -2.288276   -0.197064
     87          6           0      -18.304054   -3.124233   -0.944613
     88          6           0      -17.208839   -1.960362   -1.113225
     89          6           0      -18.027562   -0.706692   -0.929930
     90          6           0      -16.017219   -2.007454   -0.119568
     91          6           0      -18.780785   -3.679412   -2.361610
     92          6           0      -18.100555   -4.912938   -2.935028
     93          1           0      -17.180932   -4.844113   -4.172801
     94          7           0      -19.258120    2.241469   -0.632549
     95          6           0      -18.023253    1.915182   -1.113027
     96          6           0      -17.317221    3.055447   -1.500107
     97          6           0      -18.207908    4.158425   -1.216742
     98          6           0      -19.480966    3.560385   -0.724177
     99          6           0      -15.900893    3.060433   -2.062599
    100          6           0      -17.816778    5.600164   -1.450148
    101          8           0      -16.672647    5.867989   -1.899534
    102          6           0      -18.720777    6.821860   -1.059039
    103          7           0      -22.012571    2.134527    0.674230
    104          6           0      -21.855774    3.501241    0.317412
    105          6           0      -22.955520    4.321090    0.932803
    106          6           0      -24.065333    3.295986    1.251766
    107          6           0      -23.256058    1.966986    1.292756
    108          6           0      -22.686767    5.120264    2.227979
    109          6           0      -25.189647    3.224532    0.089483
    110          6           0      -26.327116    4.234331    0.116172
    111          7           0      -21.804180   -0.722617    1.133915
    112          6           0      -23.095259   -0.599853    1.625100
    113          6           0      -23.659255   -1.832842    1.893461
    114          6           0      -22.669214   -2.749585    1.500253
    115          6           0      -21.570418   -2.015711    1.022392
    116          6           0      -25.022757   -2.051609    2.469217
    117          6           0      -22.332277   -4.074304    1.496078
    118          8           0      -22.908896   -5.031062    1.974534
    119          6           0      -21.080539   -4.130863    0.595315
    120          6           0      -21.553325   -4.758349   -0.681993
    121          8           0      -22.432579   -4.319636   -1.356172
    122          8           0      -20.871596   -5.954467   -0.913052
    123          6           0      -21.399978   -6.671210   -2.021232
    124          1           0      -16.459947    0.496839   -1.613890
    125          1           0      -20.756028    5.207555   -0.335550
    126          1           0      -24.734387    0.776251    2.206591
    127          1           0      -17.834009   -3.870832   -0.305368
    128          1           0      -16.779270   -2.086742   -2.106617
    129          1           0      -15.238398   -2.489621   -0.711044
    130          1           0      -16.226422   -2.633179    0.747992
    131          1           0      -15.685959   -1.006624    0.157877
    132          1           0      -18.626633   -2.927104   -3.135212
    133          1           0      -19.862158   -3.801010   -2.295119
    134          1           0      -18.928462   -5.589061   -3.153280
    135          1           0      -17.531501   -5.370298   -2.125804
    136          1           0      -15.220170    3.872693   -1.805546
    137          1           0      -16.158874    2.992014   -3.119161
    138          1           0      -15.345200    2.206129   -1.675928
    139          1           0      -18.873312    6.828710    0.019874
    140          1           0      -19.623312    6.634974   -1.640608
    141          1           0      -18.397322    7.796123   -1.425252
    142          1           0      -23.322423    4.978264    0.145052
    143          1           0      -24.559087    3.502453    2.201404
    144          1           0      -23.219985    4.766250    3.110105
    145          1           0      -22.570851    6.184301    2.020804
    146          1           0      -21.657287    4.864715    2.478401
    147          1           0      -25.556582    2.211126    0.250914
    148          1           0      -24.731381    3.291312   -0.897427
    149          1           0      -26.393883    4.722185   -0.855895
    150          1           0      -26.124294    4.983171    0.882315
    151          1           0      -27.288380    3.746017    0.278326
    152          1           0      -25.502244   -2.790042    1.827290
    153          1           0      -25.649372   -1.160377    2.417357
    154          1           0      -24.996122   -2.447665    3.484514
    155          1           0      -20.344363   -4.769021    1.082875
    156          1           0      -22.153404   -7.377610   -1.673809
    157          1           0      -20.681140   -7.349173   -2.482955
    158          1           0      -21.850548   -6.015207   -2.764088
 ---------------------------------------------------------------------

 SCF Done:  E(RPBE1PBE) =  -4067.32135555     A.U. after   24 cycles

 Excitation energies and oscillator strengths:

 Excited State   1:      Singlet-A      1.8536 eV  668.87 nm  f=0.4460  <S**2>=0.000
     309 -> 316       -0.15843
     312 -> 314        0.69593
     312 <- 314       -0.12217
 This state for optimization and/or second-order correction.
 Total Energy, E(TD-HF/TD-DFT) =  -4067.25323581
 Copying the excited state density for this state as the 1-particle RhoCI density.

 Excited State   2:      Singlet-A      1.8621 eV  665.83 nm  f=0.3605  <S**2>=0.000
     310 -> 315       -0.18156
     311 -> 313        0.68752
     311 <- 313       -0.10534

 Excited State   3:      Singlet-A      1.9161 eV  647.08 nm  f=0.0000  <S**2>=0.000
     312 -> 313        0.70711

 Excited State   4:      Singlet-A      1.9967 eV  620.94 nm  f=0.0000  <S**2>=0.000
     311 -> 314        0.70710

 Excited State   5:      Singlet-A      2.1541 eV  575.56 nm  f=0.1178  <S**2>=0.000
     310 -> 313        0.65690
     311 -> 315        0.24318

 The electronic state is 1-A.
 Alpha  occ. eigenvalues --  -46.93717 -46.93674 -19.25991 -19.25487 -19.21059
 Alpha  occ. eigenvalues --  -19.20316 -19.19022 -19.18337 -19.18140 -19.17866
 Alpha  occ. eigenvalues --  -14.42702 -14.42481 -14.42318 -14.41409 -14.40115
 Alpha  occ. eigenvalues --  -14.39607 -14.39422 -14.38815 -10.36738 -10.36658
 Alpha  occ. eigenvalues --  -10.32210 -10.31652 -10.31596 -10.30554 -10.30439
 Alpha  occ. eigenvalues --  -10.30091 -10.30077 -10.29433 -10.29261 -10.28869
 Alpha  occ. eigenvalues --  -10.28690 -10.28689 -10.28598 -10.28575 -10.28517
 Alpha  occ. eigenvalues --  -10.28337 -10.28177 -10.27900 -10.27841 -10.27668
 Alpha  occ. eigenvalues --  -10.27135 -10.27074 -10.27049 -10.27025 -10.26973
 Alpha  occ. eigenvalues --  -10.26558 -10.26333 -10.26306 -10.26199 -10.26166
 Alpha  occ. eigenvalues --  -10.25947 -10.25856 -10.25813 -10.25810 -10.25677
 Alpha  occ. eigenvalues --  -10.25646 -10.25588 -10.25552 -10.25477 -10.25442
 Alpha  occ. eigenvalues --  -10.25233 -10.25194 -10.25065 -10.25048 -10.24992
 Alpha  occ. eigenvalues --  -10.24903 -10.24815 -10.24812 -10.24801 -10.24766
 Alpha  occ. eigenvalues --  -10.24399 -10.24157 -10.24129 -10.24029 -10.23975
 Alpha  occ. eigenvalues --  -10.23936 -10.23646 -10.23585 -10.23535 -10.23529
 Alpha  occ. eigenvalues --  -10.23260 -10.23089 -10.23087 -10.23082 -10.22568
 Alpha  occ. eigenvalues --  -10.21854  -3.15706  -3.15553  -1.88522  -1.88391
 Alpha  occ. eigenvalues --   -1.88113  -1.87920  -1.87893  -1.87771  -1.12337
 Alpha  occ. eigenvalues --   -1.10857  -1.04803  -1.04271  -1.03601  -1.02531
 Alpha  occ. eigenvalues --   -1.02148  -1.02038  -1.00312  -0.99602  -0.99324
 Alpha  occ. eigenvalues --   -0.99120  -0.98578  -0.98205  -0.97129  -0.96505
 Alpha  occ. eigenvalues --   -0.88698  -0.87242  -0.84035  -0.83736  -0.83333
 Alpha  occ. eigenvalues --   -0.83200  -0.83008  -0.82963  -0.82458  -0.82099
 Alpha  occ. eigenvalues --   -0.81908  -0.81401  -0.80196  -0.79760  -0.79011
 Alpha  occ. eigenvalues --   -0.78630  -0.78430  -0.77899  -0.77228  -0.77147
 Alpha  occ. eigenvalues --   -0.76825  -0.76134  -0.75691  -0.74990  -0.74565
 Alpha  occ. eigenvalues --   -0.74564  -0.72854  -0.72374  -0.71713  -0.71682
 Alpha  occ. eigenvalues --   -0.71263  -0.71194  -0.70655  -0.70255  -0.70024
 Alpha  occ. eigenvalues --   -0.69719  -0.68049  -0.67848  -0.66672  -0.66439
 Alpha  occ. eigenvalues --   -0.63982  -0.63893  -0.63277  -0.62896  -0.62768
 Alpha  occ. eigenvalues --   -0.62762  -0.61622  -0.61383  -0.60659  -0.60422
 Alpha  occ. eigenvalues --   -0.60154  -0.59774  -0.59371  -0.59265  -0.59116
 Alpha  occ. eigenvalues --   -0.58749  -0.57842  -0.57332  -0.55409  -0.55001
 Alpha  occ. eigenvalues --   -0.54701  -0.54588  -0.54119  -0.53755  -0.53589
 Alpha  occ. eigenvalues --   -0.53532  -0.53171  -0.52692  -0.52672  -0.51699
 Alpha  occ. eigenvalues --   -0.51105  -0.51026  -0.50265  -0.50165  -0.49990
 Alpha  occ. eigenvalues --   -0.49834  -0.49640  -0.49295  -0.48970  -0.48426
 Alpha  occ. eigenvalues --   -0.48424  -0.48136  -0.48052  -0.47790  -0.47775
 Alpha  occ. eigenvalues --   -0.47499  -0.47316  -0.47203  -0.47127  -0.46738
 Alpha  occ. eigenvalues --   -0.46662  -0.46404  -0.46106  -0.46029  -0.45761
 Alpha  occ. eigenvalues --   -0.45722  -0.45555  -0.45453  -0.45313  -0.45130
 Alpha  occ. eigenvalues --   -0.44853  -0.44697  -0.44514  -0.44455  -0.44320
 Alpha  occ. eigenvalues --   -0.44194  -0.43963  -0.43881  -0.43672  -0.43616
 Alpha  occ. eigenvalues --   -0.43525  -0.43436  -0.43283  -0.43075  -0.43023
 Alpha  occ. eigenvalues --   -0.42625  -0.42397  -0.42109  -0.41998  -0.41908
 Alpha  occ. eigenvalues --   -0.41864  -0.41678  -0.41559  -0.41379  -0.41258
 Alpha  occ. eigenvalues --   -0.41107  -0.41065  -0.41009  -0.40769  -0.40681
 Alpha  occ. eigenvalues --   -0.40521  -0.40500  -0.40075  -0.40036  -0.39841
 Alpha  occ. eigenvalues --   -0.39823  -0.39592  -0.39479  -0.39387  -0.39331
 Alpha  occ. eigenvalues --   -0.39157  -0.38637  -0.38603  -0.38569  -0.38506
 Alpha  occ. eigenvalues --   -0.38141  -0.37981  -0.37759  -0.37616  -0.37483
 Alpha  occ. eigenvalues --   -0.37392  -0.37271  -0.37202  -0.37063  -0.36856
 Alpha  occ. eigenvalues --   -0.36754  -0.36377  -0.36363  -0.36179  -0.35984
 Alpha  occ. eigenvalues --   -0.35833  -0.35815  -0.35712  -0.35578  -0.35365
 Alpha  occ. eigenvalues --   -0.35197  -0.34998  -0.34753  -0.34333  -0.34024
 Alpha  occ. eigenvalues --   -0.33602  -0.33465  -0.33047  -0.32892  -0.32803
 Alpha  occ. eigenvalues --   -0.32608  -0.32057  -0.31884  -0.31848  -0.31586
 Alpha  occ. eigenvalues --   -0.31583  -0.31312  -0.30364  -0.30230  -0.29789
 Alpha  occ. eigenvalues --   -0.29638  -0.29302  -0.28991  -0.27154  -0.27061
 Alpha  occ. eigenvalues --   -0.26394  -0.25865  -0.25676  -0.25317  -0.25212
 Alpha  occ. eigenvalues --   -0.25058  -0.24845  -0.24600  -0.21812  -0.21286
 Alpha  occ. eigenvalues --   -0.19607  -0.19327
 Alpha virt. eigenvalues --   -0.11968  -0.11946  -0.05960  -0.05438  -0.04251
 Alpha virt. eigenvalues --   -0.04200  -0.02371  -0.02048  -0.01838  -0.01373
 Alpha virt. eigenvalues --    0.00131   0.00475   0.00776   0.00833   0.01277

 Mulliken charges:
               1
     1  Mg  12.001175
     2  C    5.983758
     3  C    5.965575
     4  C    6.007018
     5  C    6.029672
     6  N    6.979635
     7  C    5.978420
     8  C    6.005886
     9  C    5.988941
    10  C    6.044373
    11  C    6.000632
    12  C    6.001229
    13  C    6.007806
    14  H    0.989328
    15  N    7.000525
    16  C    6.048971
    17  C    6.009407
    18  C    6.019452
    19  C    6.028203
    20  C    5.994343
    21  C    6.012612
    22  O    8.025720
    23  C    5.992513
    24  N    7.021017
    25  C    6.014887
    26  C    5.990660
    27  C    6.004736
    28  C    5.966208
    29  C    5.998294
    30  C    6.000036
    31  C    6.000192
    32  N    6.996921
    33  C    5.954373
    34  C    5.976773
    35  C    5.991045
    36  C    5.984768
    37  C    6.001292
    38  C    5.981751
    39  O    7.964952
    40  C    6.006870
    41  C    5.994947
    42  O    7.987737
    43  O    8.004138
    44  C    6.004264
    45  H    1.005874
    46  H    1.013607
    47  H    0.996074
    48  H    0.999559
    49  H    0.999583
    50  H    0.997875
    51  H    0.999794
    52  H    1.010286
    53  H    1.002820
    54  H    0.990846
    55  H    0.989467
    56  H    1.011057
    57  H    1.015418
    58  H    1.017282
    59  H    1.019394
    60  H    1.011385
    61  H    1.009761
    62  H    1.014274
    63  H    1.003563
    64  H    1.002051
    65  H    0.999303
    66  H    0.996865
    67  H    1.011857
    68  H    1.006539
    69  H    0.993095
    70  H    0.997366
    71  H    0.996355
    72  H    1.004294
    73  H    0.983773
    74  H    0.988126
    75  H    0.981904
    76  H    0.987536
    77  H    0.996044
    78  H    0.990666
    79  H    0.995252
    80  Mg  12.000028
    81  C    5.999821
    82  C    5.998605
    83  C    5.999606
    84  C    6.001382
    85  N    6.999431
    86  C    5.998356
    87  C    6.000644
    88  C    5.999314
    89  C    6.001962
    90  C    5.999820
    91  C    6.000086
    92  C    6.000059
    93  H    0.999442
    94  N    6.999668
    95  C    6.002298
    96  C    6.001058
    97  C    6.000741
    98  C    6.001958
    99  C    5.999983
   100  C    6.000601
   101  O    8.001467
   102  C    5.999952
   103  N    7.000685
   104  C    6.001684
   105  C    5.999424
   106  C    6.000422
   107  C    5.997921
   108  C    6.000130
   109  C    6.000089
   110  C    5.999986
   111  N    6.999863
   112  C    5.998056
   113  C    5.998660
   114  C    5.999637
   115  C    5.998936
   116  C    6.000148
   117  C    5.998941
   118  O    7.998046
   119  C    6.000332
   120  C    5.999747
   121  O    7.999712
   122  O    7.999843
   123  C    6.000227
   124  H    1.000424
   125  H    1.000550
   126  H    0.999639
   127  H    0.999992
   128  H    1.000151
   129  H    1.000324
   130  H    1.000662
   131  H    0.999669
   132  H    0.999339
   133  H    1.000287
   134  H    1.000041
   135  H    0.999972
   136  H    1.000853
   137  H    1.000899
   138  H    1.001166
   139  H    1.000542
   140  H    1.000376
   141  H    1.000751
   142  H    1.000013
   143  H    0.999952
   144  H    1.000697
   145  H    1.000029
   146  H    0.999921
   147  H    1.000378
   148  H    0.999447
   149  H    0.999735
   150  H    0.999757
   151  H    1.000079
   152  H    0.999156
   153  H    0.998907
   154  H    0.999008
   155  H    0.999398
   156  H    0.999774
   157  H    0.999624
   158  H    0.999718
 Sum of Mulliken charges = 624.00000

 Dipole moment (field-independent basis, Debye):
    X=             11.0213    Y=              0.2340    Z=             -2.3197  Tot=             11.2652
 Quadrupole moment (field-independent basis, Debye-Ang):
   XX=            435.4363   YY=             -0.3568   ZZ=             -0.7700
   XY=            -15.0881   XZ=            -43.2408   YZ=             -0.7621

 Normal termination of Gaussian 16 at Thu Oct 14 05:34:25 2021.
