 Gaussian 16, Revision A.03,
 Gaussian 16:  ES64L-G16RevA.03 25-Dec-2016

 --------------------------------------------------------
 #p PBE1PBE/Def2SVP td=(nstates=5) density=(transition=1)
 --------------------------------------------------------

 --------------------------------
 TDDFT excited states in gaussian
 --------------------------------
 Symbolic Z-matrix:
 Charge =  0 Multiplicity = 1

                         Standard orientation:
 ---------------------------------------------------------------------
 Center     Atomic      Atomic             Coordinates (Angstroms)
 Number     Number       Type             X           Y           Z
 ---------------------------------------------------------------------
      1         12           0       24.054425   -0.776074    0.341307
      2          6           0       24.146736    2.302119   -1.389614
      3          6           0       24.159996    0.814180    3.228241
      4          6           0       24.864912   -3.756434    1.801921
      5          6           0       24.994555   -2.334397   -2.877851
      6          7           0       24.200920    1.344151    0.814139
      7          6           0       23.981902    2.392137   -0.006252
      8          6           0       23.715105    3.650689    0.842535
      9          6           0       23.694474    3.184045    2.262802
     10          6           0       24.081268    1.679356    2.136474
     11          6           0       24.544541    4.107203    3.228435
     12          6           0       22.498175    4.560669    0.466533
     13          6           0       21.629306    5.317364    1.560374
     14          1           0       21.255226    6.785751    1.310729
     15          7           0       24.208655   -1.401480    2.287106
     16          6           0       24.219121   -0.554008    3.371884
     17          6           0       24.296105   -1.362586    4.555257
     18          6           0       24.548292   -2.744204    4.197465
     19          6           0       24.601979   -2.670550    2.720708
     20          6           0       24.276895   -0.681408    5.863452
     21          6           0       24.662557   -4.013211    5.077806
     22          8           0       24.918950   -5.061564    4.584127
     23          6           0       24.210638   -3.988031    6.501636
     24          7           0       24.880221   -2.747403   -0.464066
     25          6           0       24.966926   -3.785093    0.398195
     26          6           0       25.370584   -5.112584   -0.319655
     27          6           0       25.378899   -4.691209   -1.820948
     28          6           0       25.087235   -3.171298   -1.760867
     29          6           0       26.682151   -5.713579    0.110961
     30          6           0       24.385800   -5.412824   -2.797687
     31          6           0       22.947173   -5.019854   -2.795008
     32          7           0       24.487248   -0.263053   -1.741125
     33          6           0       24.778818   -0.988700   -2.860458
     34          6           0       24.773829   -0.116436   -4.009454
     35          6           0       24.536650    1.195470   -3.521247
     36          6           0       24.415630    1.052298   -2.124080
     37          6           0       25.140968   -0.453355   -5.411548
     38          6           0       24.418902    2.584545   -3.861847
     39          8           0       24.440891    3.195834   -4.923973
     40          6           0       24.111381    3.362699   -2.504545
     41          6           0       25.007264    4.572295   -2.297688
     42          8           0       26.198244    4.505566   -2.134424
     43          8           0       24.229037    5.718879   -2.284525
     44          6           0       25.010541    6.945798   -2.125536
     45          1           0       23.991331    1.243477    4.218436
     46          1           0       25.062404   -4.684052    2.342698
     47          1           0       25.167228   -2.806760   -3.847038
     48          1           0       24.606679    4.213978    0.566991
     49          1           0       22.675171    3.304485    2.630733
     50          1           0       24.871951    4.993622    2.685390
     51          1           0       25.315124    3.485086    3.683623
     52          1           0       23.920016    4.546188    4.006705
     53          1           0       21.799053    3.930151   -0.083357
     54          1           0       22.775572    5.333492   -0.250812
     55          1           0       22.217878    5.234161    2.474245
     56          1           0       20.706409    4.761235    1.725379
     57          1           0       24.957738   -1.249184    6.497231
     58          1           0       23.272316   -0.798511    6.268185
     59          1           0       24.526775    0.374442    5.968897
     60          1           0       25.129273   -3.735484    7.029578
     61          1           0       23.728600   -4.937028    6.738445
     62          1           0       23.527227   -3.177554    6.755925
     63          1           0       24.580602   -5.861658   -0.262032
     64          1           0       26.318028   -4.683928   -2.373307
     65          1           0       27.066438   -5.230164    1.010085
     66          1           0       27.461102   -5.586308   -0.641262
     67          1           0       26.471042   -6.765199    0.303350
     68          1           0       24.412663   -6.487670   -2.618239
     69          1           0       24.820109   -5.371710   -3.796836
     70          1           0       22.692667   -4.562389   -1.838752
     71          1           0       22.158629   -5.766620   -2.890586
     72          1           0       22.833593   -4.371304   -3.664257
     73          1           0       26.153654   -0.834078   -5.541120
     74          1           0       25.273130    0.506741   -5.911021
     75          1           0       24.398440   -1.099040   -5.881239
     76          1           0       23.068193    3.671706   -2.573675
     77          1           0       24.581615    7.094478   -1.135052
     78          1           0       24.597450    7.604622   -2.888982
     79          1           0       26.086945    6.779308   -2.172439
     80         12           0      -24.842308   -0.635692   -0.172810
     81          6           0      -22.896324    2.397001   -0.333234
     82          6           0      -26.654337    0.879697    2.418999
     83          6           0      -26.702714   -3.339754   -0.090183
     84          6           0      -22.717855   -2.070738   -2.549461
     85          7           0      -24.716526    1.454007    0.920003
     86          6           0      -24.016671    2.557357    0.545742
     87          6           0      -24.520968    3.813288    1.237674
     88          6           0      -25.514648    3.249297    2.399415
     89          6           0      -25.625178    1.774719    1.914914
     90          6           0      -25.016028    3.467560    3.849909
     91          6           0      -25.217791    4.809435    0.250401
     92          6           0      -24.593207    6.228764    0.241880
     93          1           0      -25.609589    7.398481    0.766502
     94          7           0      -26.410058   -1.137779    0.962669
     95          6           0      -27.052183   -0.428186    2.033326
     96          6           0      -28.196760   -1.162132    2.623061
     97          6           0      -28.212501   -2.355132    1.828693
     98          6           0      -27.098588   -2.307774    0.866747
     99          6           0      -29.048134   -0.667250    3.794056
    100          6           0      -29.095868   -3.536939    1.959928
    101          8           0      -29.230420   -4.424498    1.124528
    102          6           0      -30.034026   -3.603119    3.181071
    103          7           0      -24.813846   -2.336664   -1.289019
    104          6           0      -25.679943   -3.347936   -1.050825
    105          6           0      -25.305835   -4.620454   -1.758686
    106          6           0      -24.059434   -4.241756   -2.595993
    107          6           0      -23.852629   -2.766933   -2.183430
    108          6           0      -25.148592   -5.825783   -0.855586
    109          6           0      -24.380841   -4.365338   -4.199891
    110          6           0      -23.356534   -5.292453   -5.054013
    111          7           0      -22.983200   -0.097247   -1.053135
    112          6           0      -22.295182   -0.789961   -2.078331
    113          6           0      -21.190041    0.063904   -2.528576
    114          6           0      -21.503123    1.328703   -1.964709
    115          6           0      -22.500837    1.147145   -1.005763
    116          6           0      -20.012736   -0.258955   -3.443754
    117          6           0      -20.929522    2.695437   -1.810467
    118          8           0      -19.911246    3.298310   -2.249903
    119          6           0      -21.917546    3.442084   -0.833117
    120          6           0      -21.115270    4.052339    0.278091
    121          8           0      -20.231485    3.490432    0.860822
    122          8           0      -21.468863    5.364358    0.429818
    123          6           0      -20.499521    6.121743    1.261261
    124          1           0      -27.095208    1.340528    3.305177
    125          1           0      -27.280765   -4.266314   -0.109901
    126          1           0      -22.063941   -2.484178   -3.319812
    127          1           0      -23.652529    4.254853    1.726549
    128          1           0      -26.522437    3.658093    2.321507
    129          1           0      -24.800595    2.514611    4.334096
    130          1           0      -25.758207    4.018474    4.429096
    131          1           0      -24.144803    4.113055    3.961546
    132          1           0      -26.273025    4.943132    0.489945
    133          1           0      -25.162445    4.458336   -0.780365
    134          1           0      -24.405819    6.607891   -0.763072
    135          1           0      -23.625043    6.313318    0.734448
    136          1           0      -29.001702    0.397185    4.026265
    137          1           0      -28.913744   -1.205310    4.732370
    138          1           0      -30.076928   -0.866694    3.492523
    139          1           0      -29.454573   -3.624890    4.103993
    140          1           0      -30.724293   -4.445758    3.128783
    141          1           0      -30.647039   -2.701853    3.178108
    142          1           0      -26.148003   -4.913624   -2.386965
    143          1           0      -23.190281   -4.828011   -2.299155
    144          1           0      -25.958795   -6.549209   -0.950878
    145          1           0      -25.167367   -5.609104    0.212434
    146          1           0      -24.185891   -6.286409   -1.078206
    147          1           0      -24.407179   -3.408998   -4.721195
    148          1           0      -25.362709   -4.795173   -4.396315
    149          1           0      -22.882052   -5.948060   -4.323578
    150          1           0      -22.617270   -4.694712   -5.588794
    151          1           0      -23.893595   -5.983925   -5.702745
    152          1           0      -19.692993    0.606367   -4.024016
    153          1           0      -20.376552   -0.946690   -4.208029
    154          1           0      -19.309404   -0.762950   -2.780715
    155          1           0      -22.313690    4.281493   -1.404012
    156          1           0      -20.390883    5.583869    2.202867
    157          1           0      -21.031393    7.045399    1.488932
    158          1           0      -19.487313    6.279502    0.889007
 ---------------------------------------------------------------------

 SCF Done:  E(RPBE1PBE) =  -4067.35401678     A.U. after   16 cycles

 Excitation energies and oscillator strengths:

 Excited State   1:      Singlet-A      1.8271 eV  678.59 nm  f=0.3523  <S**2>=0.000
     309 -> 315        0.18302
     311 -> 313        0.69139
     311 <- 313       -0.10666
 This state for optimization and/or second-order correction.
 Total Energy, E(TD-HF/TD-DFT) =  -4067.28687267
 Copying the excited state density for this state as the 1-particle RhoCI density.

 Excited State   2:      Singlet-A      1.8611 eV  666.20 nm  f=0.3728  <S**2>=0.000
     310 -> 316        0.17936
     312 -> 314        0.69125
     312 <- 314       -0.10764

 Excited State   3:      Singlet-A      1.9011 eV  652.18 nm  f=0.0000  <S**2>=0.000
     312 -> 313        0.70711

 Excited State   4:      Singlet-A      2.0686 eV  599.35 nm  f=0.0000  <S**2>=0.000
     311 -> 314        0.70711

 Excited State   5:      Singlet-A      2.1728 eV  570.63 nm  f=0.1307  <S**2>=0.000
     309 -> 313        0.65738
     311 -> 315       -0.25557

 The electronic state is 1-A.
 Alpha  occ. eigenvalues --  -46.93376 -46.91987 -19.26314 -19.25441 -19.20246
 Alpha  occ. eigenvalues --  -19.19979 -19.19677 -19.19078 -19.19055 -19.18894
 Alpha  occ. eigenvalues --  -14.41975 -14.41737 -14.41611 -14.41231 -14.40327
 Alpha  occ. eigenvalues --  -14.39118 -14.39032 -14.38498 -10.36124 -10.35864
 Alpha  occ. eigenvalues --  -10.32758 -10.32450 -10.32132 -10.31960 -10.29468
 Alpha  occ. eigenvalues --  -10.29269 -10.29168 -10.29110 -10.29103 -10.29061
 Alpha  occ. eigenvalues --  -10.28863 -10.28711 -10.28533 -10.28505 -10.28502
 Alpha  occ. eigenvalues --  -10.28388 -10.28180 -10.28106 -10.27960 -10.27132
 Alpha  occ. eigenvalues --  -10.27012 -10.26892 -10.26866 -10.26817 -10.26776
 Alpha  occ. eigenvalues --  -10.26466 -10.26443 -10.26417 -10.26341 -10.26247
 Alpha  occ. eigenvalues --  -10.26054 -10.25937 -10.25816 -10.25804 -10.25695
 Alpha  occ. eigenvalues --  -10.25630 -10.25573 -10.25484 -10.25479 -10.25436
 Alpha  occ. eigenvalues --  -10.25280 -10.25221 -10.25064 -10.25022 -10.24987
 Alpha  occ. eigenvalues --  -10.24957 -10.24571 -10.24394 -10.24386 -10.24320
 Alpha  occ. eigenvalues --  -10.24019 -10.23990 -10.23962 -10.23932 -10.23818
 Alpha  occ. eigenvalues --  -10.23772 -10.23760 -10.23702 -10.23452 -10.23236
 Alpha  occ. eigenvalues --  -10.23106 -10.23013 -10.22837 -10.22663 -10.22549
 Alpha  occ. eigenvalues --  -10.22357  -3.15270  -3.14206  -1.88080  -1.87651
 Alpha  occ. eigenvalues --   -1.87481  -1.87045  -1.86580  -1.86451  -1.11747
 Alpha  occ. eigenvalues --   -1.11067  -1.07571  -1.04583  -1.03983  -1.03530
 Alpha  occ. eigenvalues --   -1.03384  -1.01914  -0.98811  -0.98678  -0.97873
 Alpha  occ. eigenvalues --   -0.97767  -0.97272  -0.97111  -0.96648  -0.96462
 Alpha  occ. eigenvalues --   -0.85968  -0.85966  -0.83538  -0.83133  -0.82917
 Alpha  occ. eigenvalues --   -0.82788  -0.82533  -0.82351  -0.81734  -0.81678
 Alpha  occ. eigenvalues --   -0.81405  -0.81260  -0.80436  -0.80102  -0.78263
 Alpha  occ. eigenvalues --   -0.78253  -0.77938  -0.77503  -0.76648  -0.76223
 Alpha  occ. eigenvalues --   -0.76097  -0.75512  -0.75149  -0.75026  -0.74749
 Alpha  occ. eigenvalues --   -0.73994  -0.73281  -0.72569  -0.71495  -0.71425
 Alpha  occ. eigenvalues --   -0.71384  -0.71132  -0.70346  -0.70185  -0.69609
 Alpha  occ. eigenvalues --   -0.69009  -0.67061  -0.66786  -0.65872  -0.65859
 Alpha  occ. eigenvalues --   -0.64085  -0.63625  -0.63510  -0.63179  -0.62687
 Alpha  occ. eigenvalues --   -0.61986  -0.61539  -0.61311  -0.60397  -0.60041
 Alpha  occ. eigenvalues --   -0.59471  -0.59015  -0.58761  -0.58627  -0.58583
 Alpha  occ. eigenvalues --   -0.58496  -0.56974  -0.56256  -0.55305  -0.54516
 Alpha  occ. eigenvalues --   -0.54077  -0.53884  -0.53370  -0.53341  -0.52976
 Alpha  occ. eigenvalues --   -0.52922  -0.52539  -0.52496  -0.51928  -0.51755
 Alpha  occ. eigenvalues --   -0.50714  -0.50596  -0.50405  -0.49899  -0.49897
 Alpha  occ. eigenvalues --   -0.49593  -0.49500  -0.49157  -0.49089  -0.48615
 Alpha  occ. eigenvalues --   -0.48416  -0.48146  -0.47984  -0.47733  -0.47400
 Alpha  occ. eigenvalues --   -0.47299  -0.46941  -0.46919  -0.46680  -0.46362
 Alpha  occ. eigenvalues --   -0.46298  -0.46069  -0.46019  -0.45712  -0.45481
 Alpha  occ. eigenvalues --   -0.45479  -0.45356  -0.45157  -0.45107  -0.44833
 Alpha  occ. eigenvalues --   -0.44725  -0.44636  -0.44558  -0.44382  -0.44123
 Alpha  occ. eigenvalues --   -0.43923  -0.43853  -0.43745  -0.43617  -0.43370
 Alpha  occ. eigenvalues --   -0.43296  -0.43219  -0.42974  -0.42914  -0.42819
 Alpha  occ. eigenvalues --   -0.42661  -0.42304  -0.42291  -0.42089  -0.41891
 Alpha  occ. eigenvalues --   -0.41830  -0.41720  -0.41600  -0.41456  -0.41234
 Alpha  occ. eigenvalues --   -0.40950  -0.40757  -0.40745  -0.40485  -0.40352
 Alpha  occ. eigenvalues --   -0.40268  -0.40164  -0.39763  -0.39666  -0.39536
 Alpha  occ. eigenvalues --   -0.39347  -0.39309  -0.39265  -0.39035  -0.38919
 Alpha  occ. eigenvalues --   -0.38852  -0.38768  -0.38491  -0.38480  -0.38376
 Alpha  occ. eigenvalues --   -0.38125  -0.38091  -0.37803  -0.37713  -0.37682
 Alpha  occ. eigenvalues --   -0.37473  -0.37467  -0.37189  -0.37116  -0.36888
 Alpha  occ. eigenvalues --   -0.36788  -0.36712  -0.36416  -0.36410  -0.36169
 Alpha  occ. eigenvalues --   -0.35743  -0.35702  -0.35615  -0.35476  -0.35386
 Alpha  occ. eigenvalues --   -0.35157  -0.34989  -0.34485  -0.34072  -0.33886
 Alpha  occ. eigenvalues --   -0.33587  -0.33267  -0.33043  -0.32829  -0.32531
 Alpha  occ. eigenvalues --   -0.32368  -0.32271  -0.31958  -0.31471  -0.30865
 Alpha  occ. eigenvalues --   -0.30768  -0.30662  -0.29774  -0.29523  -0.29386
 Alpha  occ. eigenvalues --   -0.28795  -0.28661  -0.28604  -0.27156  -0.26520
 Alpha  occ. eigenvalues --   -0.26438  -0.26017  -0.25714  -0.25585  -0.25581
 Alpha  occ. eigenvalues --   -0.25377  -0.25033  -0.25007  -0.20865  -0.20747
 Alpha  occ. eigenvalues --   -0.18942  -0.18672
 Alpha virt. eigenvalues --   -0.11419  -0.11071  -0.05337  -0.05076  -0.04091
 Alpha virt. eigenvalues --   -0.03763  -0.02396  -0.01937  -0.01639  -0.00024
 Alpha virt. eigenvalues --    0.00338   0.00678   0.00980   0.00989   0.01267

 Mulliken charges:
               1
     1  Mg  12.000029
     2  C    5.999992
     3  C    6.000020
     4  C    6.000026
     5  C    5.999913
     6  N    6.999918
     7  C    6.000142
     8  C    5.999971
     9  C    6.000040
    10  C    5.999872
    11  C    5.999997
    12  C    5.999968
    13  C    6.000016
    14  H    1.000012
    15  N    7.000037
    16  C    5.999830
    17  C    5.999884
    18  C    5.999852
    19  C    5.999922
    20  C    6.000047
    21  C    5.999942
    22  O    7.999862
    23  C    6.000037
    24  N    7.000041
    25  C    5.999903
    26  C    6.000019
    27  C    6.000007
    28  C    6.000129
    29  C    6.000014
    30  C    5.999979
    31  C    5.999969
    32  N    6.999987
    33  C    6.000192
    34  C    6.000129
    35  C    6.000105
    36  C    6.000091
    37  C    5.999982
    38  C    6.000062
    39  O    8.000133
    40  C    6.000006
    41  C    6.000004
    42  O    7.999994
    43  O    8.000024
    44  C    5.999990
    45  H    0.999948
    46  H    0.999970
    47  H    1.000061
    48  H    0.999967
    49  H    1.000012
    50  H    0.999946
    51  H    0.999994
    52  H    0.999989
    53  H    1.000028
    54  H    0.999984
    55  H    1.000001
    56  H    1.000044
    57  H    0.999898
    58  H    0.999929
    59  H    0.999896
    60  H    0.999927
    61  H    0.999937
    62  H    0.999998
    63  H    1.000010
    64  H    0.999969
    65  H    1.000012
    66  H    0.999938
    67  H    0.999983
    68  H    1.000035
    69  H    0.999982
    70  H    1.000047
    71  H    1.000064
    72  H    0.999988
    73  H    1.000071
    74  H    1.000058
    75  H    1.000117
    76  H    1.000069
    77  H    1.000028
    78  H    1.000028
    79  H    0.999984
    80  Mg  11.996050
    81  C    6.024643
    82  C    6.002854
    83  C    5.971067
    84  C    6.002402
    85  N    7.017546
    86  C    5.967930
    87  C    6.009614
    88  C    5.988885
    89  C    6.027019
    90  C    5.997633
    91  C    6.001196
    92  C    6.001936
    93  H    0.993606
    94  N    6.997131
    95  C    6.030377
    96  C    6.024005
    97  C    6.013095
    98  C    6.025532
    99  C    5.996765
   100  C    6.012031
   101  O    8.030962
   102  C    5.996178
   103  N    6.991084
   104  C    6.036007
   105  C    5.991561
   106  C    6.010594
   107  C    5.971475
   108  C    5.999384
   109  C    6.004512
   110  C    6.000681
   111  N    7.001782
   112  C    5.963335
   113  C    5.969258
   114  C    5.997903
   115  C    5.971594
   116  C    5.998598
   117  C    5.988399
   118  O    7.970819
   119  C    5.996281
   120  C    5.992991
   121  O    8.000115
   122  O    7.998254
   123  C    6.001691
   124  H    1.012914
   125  H    1.001649
   126  H    0.987760
   127  H    1.002484
   128  H    1.000761
   129  H    0.999466
   130  H    1.003393
   131  H    1.012808
   132  H    0.992037
   133  H    1.004601
   134  H    1.003017
   135  H    1.001895
   136  H    1.014584
   137  H    1.018168
   138  H    1.014758
   139  H    1.007272
   140  H    1.013594
   141  H    1.004970
   142  H    0.998259
   143  H    0.996673
   144  H    0.997290
   145  H    0.994512
   146  H    1.008649
   147  H    1.000778
   148  H    0.988415
   149  H    0.996287
   150  H    1.002476
   151  H    0.993944
   152  H    0.986136
   153  H    0.985083
   154  H    0.984184
   155  H    0.995529
   156  H    0.995679
   157  H    0.995260
   158  H    0.999940
 Sum of Mulliken charges = 624.00000

 Dipole moment (field-independent basis, Debye):
    X=             -7.9416    Y=             -1.7212    Z=              5.9711  Tot=             10.0839
 Quadrupole moment (field-independent basis, Debye-Ang):
   XX=            393.2296   YY=             -0.4230   ZZ=              0.2399
   XY=             48.4799   XZ=           -150.8647   YZ=             -4.4264

 Normal termination of Gaussian 16 at Thu Oct 14 09:39:25 2021.
