 Gaussian 16, Revision A.03,
 Gaussian 16:  ES64L-G16RevA.03 25-Dec-2016

 --------------------------------------------------------
 #p PBE1PBE/Def2SVP td=(nstates=5) density=(transition=1)
 --------------------------------------------------------

 --------------------------------
 TDDFT excited states in gaussian
 --------------------------------
 Symbolic Z-matrix:
 Charge =  0 Multiplicity = 1

                         Standard orientation:
 ---------------------------------------------------------------------
 Center     Atomic      Atomic             Coordinates (Angstroms)
 Number     Number       Type             X           Y           Z
 ---------------------------------------------------------------------
      1         12           0        3.890152   -0.815106   -0.947041
      2          6           0        5.909311    1.795698    0.141104
      3          6           0        1.159092    1.040458   -0.277937
      4          6           0        1.969876   -3.582522   -1.252134
      5          6           0        6.717644   -2.946945   -0.827448
      6          7           0        3.674557    1.185098   -0.252697
      7          6           0        4.586888    2.185333    0.003638
      8          6           0        3.859081    3.487672    0.436885
      9          6           0        2.440950    2.940498    0.787139
     10          6           0        2.369961    1.677518   -0.058549
     11          6           0        2.223898    2.601208    2.303836
     12          6           0        4.069170    4.535629   -0.671377
     13          6           0        4.370031    5.897629   -0.172588
     14          1           0        5.010351    6.782621   -1.143617
     15          7           0        1.853765   -1.131915   -1.001472
     16          6           0        0.893755   -0.203002   -0.756547
     17          6           0       -0.370608   -0.724109   -1.211861
     18          6           0       -0.125188   -2.113236   -1.508892
     19          6           0        1.281564   -2.350117   -1.171833
     20          6           0       -1.636843    0.054918   -1.198359
     21          6           0       -1.096971   -3.266353   -1.921796
     22          8           0       -0.712847   -4.415316   -2.149433
     23          6           0       -2.548620   -2.998321   -2.205424
     24          7           0        4.301292   -2.999989   -0.681113
     25          6           0        3.288541   -3.941563   -1.010905
     26          6           0        3.796908   -5.339022   -1.143088
     27          6           0        5.325394   -5.019167   -1.216313
     28          6           0        5.465231   -3.522238   -0.952533
     29          6           0        3.370941   -6.291535    0.025037
     30          6           0        5.974055   -5.380123   -2.602493
     31          6           0        5.253574   -4.809346   -3.850491
     32          7           0        5.922053   -0.637166   -0.558448
     33          6           0        6.961557   -1.579292   -0.597751
     34          6           0        8.149445   -0.882599   -0.272535
     35          6           0        7.772613    0.428696   -0.010358
     36          6           0        6.430627    0.511999   -0.185452
     37          6           0        9.526655   -1.465628   -0.277415
     38          6           0        8.258177    1.650420    0.433169
     39          8           0        9.418706    1.974261    0.744849
     40          6           0        7.094880    2.679012    0.565688
     41          6           0        7.502818    3.815166   -0.423407
     42          8           0        7.526904    3.718544   -1.663317
     43          8           0        7.834926    4.938542    0.326068
     44          6           0        8.501493    6.085189   -0.369233
     45          1           0        0.359045    1.699712    0.065455
     46          1           0        1.533328   -4.555529   -1.489964
     47          1           0        7.644920   -3.503487   -0.979069
     48          1           0        4.358827    3.931831    1.297086
     49          1           0        1.688953    3.634229    0.412358
     50          1           0        3.046211    2.850909    2.974931
     51          1           0        2.141272    1.524517    2.446586
     52          1           0        1.371081    3.172384    2.670092
     53          1           0        3.104019    4.632301   -1.166639
     54          1           0        4.850366    4.162642   -1.334285
     55          1           0        5.088053    5.760902    0.636191
     56          1           0        3.461934    6.314313    0.262669
     57          1           0       -1.445315    1.126403   -1.143799
     58          1           0       -2.303847   -0.394489   -0.461900
     59          1           0       -2.143807   -0.069661   -2.155275
     60          1           0       -3.039183   -3.955361   -2.026426
     61          1           0       -2.697557   -2.737121   -3.253385
     62          1           0       -2.970436   -2.260901   -1.521795
     63          1           0        3.508142   -5.828385   -2.074326
     64          1           0        5.835208   -5.569505   -0.424884
     65          1           0        3.094913   -5.687732    0.889943
     66          1           0        4.118891   -7.002529    0.376332
     67          1           0        2.513740   -6.935720   -0.172857
     68          1           0        6.066246   -6.466314   -2.611591
     69          1           0        6.995483   -5.013017   -2.502974
     70          1           0        5.897060   -4.163304   -4.448031
     71          1           0        4.382597   -4.264519   -3.485200
     72          1           0        4.898850   -5.588810   -4.524147
     73          1           0        9.926244   -1.284971    0.720439
     74          1           0       10.090057   -0.977055   -1.072369
     75          1           0        9.577774   -2.546224   -0.411408
     76          1           0        7.106088    3.074389    1.581043
     77          1           0        9.430992    5.689756   -0.778197
     78          1           0        8.750008    6.963888    0.225857
     79          1           0        7.721107    6.258362   -1.110305
     80         12           0       -4.082170   -0.475374    0.935422
     81          6           0       -5.310912    2.659576   -0.357676
     82          6           0       -1.541620    1.371956    2.494366
     83          6           0       -3.016581   -3.302607    2.220400
     84          6           0       -6.503689   -2.149906   -0.949602
     85          7           0       -3.516695    1.816563    0.999931
     86          6           0       -4.262637    2.877962    0.594648
     87          6           0       -3.762044    4.185124    1.187251
     88          6           0       -2.317437    3.795708    1.832694
     89          6           0       -2.438846    2.246274    1.756201
     90          6           0       -1.092921    4.431401    1.127961
     91          6           0       -4.761972    4.801952    2.222744
     92          6           0       -5.210867    6.246601    1.881926
     93          1           0       -4.738677    7.359955    2.983732
     94          7           0       -2.549796   -0.890095    2.151597
     95          6           0       -1.541558   -0.032278    2.708160
     96          6           0       -0.571934   -0.746626    3.571907
     97          6           0       -1.069348   -2.089567    3.511848
     98          6           0       -2.239628   -2.130054    2.618993
     99          6           0        0.623683   -0.098515    4.272924
    100          6           0       -0.497663   -3.311279    4.124080
    101          8           0       -1.073406   -4.387510    4.242415
    102          6           0        0.884784   -3.200867    4.796656
    103          7           0       -4.786946   -2.379146    0.797639
    104          6           0       -4.153731   -3.408471    1.405141
    105          6           0       -4.637361   -4.753218    0.938148
    106          6           0       -5.788979   -4.426982   -0.044378
    107          6           0       -5.757230   -2.881971   -0.047794
    108          6           0       -3.554355   -5.665032    0.400722
    109          6           0       -7.218672   -4.985600    0.534403
    110          6           0       -8.058148   -5.946537   -0.470659
    111          7           0       -5.443408    0.076958   -0.601828
    112          6           0       -6.422058   -0.747179   -1.207871
    113          6           0       -7.275909    0.111306   -2.036776
    114          6           0       -6.941084    1.421385   -1.604030
    115          6           0       -5.770452    1.348211   -0.847565
    116          6           0       -8.336374   -0.264166   -3.067441
    117          6           0       -7.212608    2.848843   -1.934801
    118          8           0       -7.983399    3.457371   -2.727908
    119          6           0       -6.225186    3.672033   -1.020335
    120          6           0       -5.474148    4.641332   -1.884768
    121          8           0       -4.993238    4.366623   -2.947618
    122          8           0       -5.532834    5.889367   -1.329424
    123          6           0       -5.116246    6.953458   -2.277432
    124          1           0       -0.699931    1.972953    2.844231
    125          1           0       -2.710215   -4.275144    2.612009
    126          1           0       -7.292032   -2.647798   -1.517578
    127          1           0       -3.581808    4.847842    0.340795
    128          1           0       -2.257848    4.031359    2.895586
    129          1           0       -0.475434    3.666140    0.656741
    130          1           0       -0.496579    5.001927    1.841174
    131          1           0       -1.316009    5.196938    0.384764
    132          1           0       -4.330937    4.845649    3.223280
    133          1           0       -5.680143    4.217988    2.291730
    134          1           0       -6.289692    6.387562    1.952960
    135          1           0       -4.972620    6.581309    0.872806
    136          1           0        0.606770    0.986374    4.381689
    137          1           0        1.602452   -0.364581    3.873899
    138          1           0        0.605165   -0.504506    5.284827
    139          1           0        1.640742   -2.914792    4.065415
    140          1           0        1.166825   -4.116226    5.318015
    141          1           0        0.823686   -2.420457    5.555142
    142          1           0       -4.987807   -5.304431    1.811808
    143          1           0       -5.571777   -4.797678   -1.045698
    144          1           0       -3.312429   -6.492984    1.067672
    145          1           0       -2.579990   -5.195839    0.264927
    146          1           0       -3.879019   -6.030800   -0.573616
    147          1           0       -7.913721   -4.200497    0.830305
    148          1           0       -7.098146   -5.580260    1.439532
    149          1           0       -7.326752   -6.330405   -1.182132
    150          1           0       -8.857352   -5.404499   -0.977872
    151          1           0       -8.409812   -6.843361    0.038712
    152          1           0       -9.144034    0.466195   -3.111912
    153          1           0       -8.836846   -1.162351   -2.703781
    154          1           0       -7.751802   -0.488057   -3.959885
    155          1           0       -6.861246    4.282325   -0.379687
    156          1           0       -4.128730    6.684875   -2.652144
    157          1           0       -4.980415    7.823384   -1.635062
    158          1           0       -5.726519    7.150726   -3.158725
 ---------------------------------------------------------------------

 SCF Done:  E(RPBE1PBE) =  -4067.37103739     A.U. after   16 cycles

 Excitation energies and oscillator strengths:

 Excited State   1:      Singlet-A      1.5387 eV  805.78 nm  f=0.0038  <S**2>=0.000
     312 -> 313        0.66299
     312 -> 314        0.22504
 This state for optimization and/or second-order correction.
 Total Energy, E(TD-HF/TD-DFT) =  -4067.31449175
 Copying the excited state density for this state as the 1-particle RhoCI density.

 Excited State   2:      Singlet-A      1.6407 eV  755.68 nm  f=0.0058  <S**2>=0.000
     311 -> 313       -0.28543
     311 -> 314        0.62649
     312 -> 314        0.14746

 Excited State   3:      Singlet-A      1.8029 eV  687.68 nm  f=0.6802  <S**2>=0.000
     309 -> 316       -0.11513
     310 -> 315        0.10523
     311 -> 313       -0.33708
     311 -> 314       -0.28992
     312 -> 313       -0.22422
     312 -> 314        0.48706

 Excited State   4:      Singlet-A      1.8220 eV  680.49 nm  f=0.0677  <S**2>=0.000
     310 -> 315       -0.12909
     311 -> 313        0.52764
     311 -> 314        0.13597
     312 -> 314        0.42227

 Excited State   5:      Singlet-A      2.1284 eV  582.52 nm  f=0.0075  <S**2>=0.000
     310 -> 313        0.52899
     310 -> 314       -0.44745
     311 -> 315        0.10775

 The electronic state is 1-A.
 Alpha  occ. eigenvalues --  -46.92229 -46.91951 -19.26667 -19.25628 -19.20448
 Alpha  occ. eigenvalues --  -19.20358 -19.19402 -19.19206 -19.19176 -19.18090
 Alpha  occ. eigenvalues --  -14.42318 -14.41924 -14.41809 -14.41152 -14.40605
 Alpha  occ. eigenvalues --  -14.39392 -14.39240 -14.38400 -10.37294 -10.36233
 Alpha  occ. eigenvalues --  -10.32777 -10.32631 -10.32246 -10.30966 -10.29894
 Alpha  occ. eigenvalues --  -10.29494 -10.29488 -10.29400 -10.29375 -10.29373
 Alpha  occ. eigenvalues --  -10.28999 -10.28934 -10.28769 -10.28640 -10.28355
 Alpha  occ. eigenvalues --  -10.28339 -10.28296 -10.28204 -10.28076 -10.27438
 Alpha  occ. eigenvalues --  -10.27262 -10.27231 -10.27171 -10.27153 -10.26957
 Alpha  occ. eigenvalues --  -10.26785 -10.26606 -10.26570 -10.26262 -10.26188
 Alpha  occ. eigenvalues --  -10.26150 -10.26095 -10.26091 -10.26011 -10.25972
 Alpha  occ. eigenvalues --  -10.25853 -10.25831 -10.25763 -10.25643 -10.25552
 Alpha  occ. eigenvalues --  -10.25346 -10.25222 -10.25181 -10.25147 -10.25055
 Alpha  occ. eigenvalues --  -10.25042 -10.25014 -10.24879 -10.24796 -10.24725
 Alpha  occ. eigenvalues --  -10.24493 -10.24362 -10.24194 -10.24163 -10.23981
 Alpha  occ. eigenvalues --  -10.23793 -10.23609 -10.23542 -10.23475 -10.23445
 Alpha  occ. eigenvalues --  -10.23295 -10.23278 -10.23272 -10.23102 -10.22784
 Alpha  occ. eigenvalues --  -10.21620  -3.14512  -3.14126  -1.87369  -1.86947
 Alpha  occ. eigenvalues --   -1.86878  -1.86749  -1.86504  -1.86350  -1.12110
 Alpha  occ. eigenvalues --   -1.09368  -1.04691  -1.04419  -1.03897  -1.02847
 Alpha  occ. eigenvalues --   -1.02239  -1.01664  -0.99678  -0.98979  -0.98801
 Alpha  occ. eigenvalues --   -0.98380  -0.98250  -0.97613  -0.97131  -0.96960
 Alpha  occ. eigenvalues --   -0.87133  -0.86323  -0.83687  -0.83664  -0.83147
 Alpha  occ. eigenvalues --   -0.83075  -0.82963  -0.82848  -0.82345  -0.81979
 Alpha  occ. eigenvalues --   -0.81684  -0.81608  -0.81047  -0.80418  -0.79257
 Alpha  occ. eigenvalues --   -0.78700  -0.78005  -0.77764  -0.76709  -0.76358
 Alpha  occ. eigenvalues --   -0.75918  -0.75743  -0.75457  -0.75304  -0.74917
 Alpha  occ. eigenvalues --   -0.74231  -0.73512  -0.72760  -0.71722  -0.71642
 Alpha  occ. eigenvalues --   -0.71521  -0.71488  -0.70853  -0.70718  -0.70041
 Alpha  occ. eigenvalues --   -0.69809  -0.67913  -0.67375  -0.66739  -0.66214
 Alpha  occ. eigenvalues --   -0.64362  -0.63793  -0.63440  -0.63368  -0.62345
 Alpha  occ. eigenvalues --   -0.62239  -0.61808  -0.61170  -0.60593  -0.60484
 Alpha  occ. eigenvalues --   -0.60096  -0.59403  -0.59355  -0.59245  -0.58907
 Alpha  occ. eigenvalues --   -0.58743  -0.57308  -0.56374  -0.55528  -0.54687
 Alpha  occ. eigenvalues --   -0.54606  -0.54212  -0.53989  -0.53696  -0.53371
 Alpha  occ. eigenvalues --   -0.53282  -0.52833  -0.52403  -0.52095  -0.51590
 Alpha  occ. eigenvalues --   -0.51037  -0.50750  -0.50408  -0.50195  -0.50056
 Alpha  occ. eigenvalues --   -0.49839  -0.49685  -0.49542  -0.49401  -0.48777
 Alpha  occ. eigenvalues --   -0.48515  -0.48378  -0.47994  -0.47866  -0.47779
 Alpha  occ. eigenvalues --   -0.47595  -0.47551  -0.47115  -0.46966  -0.46631
 Alpha  occ. eigenvalues --   -0.46611  -0.46378  -0.46330  -0.46214  -0.46154
 Alpha  occ. eigenvalues --   -0.45947  -0.45422  -0.45278  -0.45201  -0.45040
 Alpha  occ. eigenvalues --   -0.44901  -0.44766  -0.44370  -0.44329  -0.44183
 Alpha  occ. eigenvalues --   -0.44099  -0.44015  -0.43865  -0.43738  -0.43606
 Alpha  occ. eigenvalues --   -0.43490  -0.43295  -0.43194  -0.43008  -0.42858
 Alpha  occ. eigenvalues --   -0.42822  -0.42608  -0.42601  -0.42438  -0.42054
 Alpha  occ. eigenvalues --   -0.41915  -0.41910  -0.41797  -0.41775  -0.41630
 Alpha  occ. eigenvalues --   -0.41254  -0.41227  -0.40946  -0.40869  -0.40801
 Alpha  occ. eigenvalues --   -0.40686  -0.40496  -0.40102  -0.40037  -0.39868
 Alpha  occ. eigenvalues --   -0.39587  -0.39513  -0.39371  -0.39212  -0.39083
 Alpha  occ. eigenvalues --   -0.39001  -0.38937  -0.38730  -0.38515  -0.38485
 Alpha  occ. eigenvalues --   -0.38316  -0.38237  -0.38106  -0.37936  -0.37817
 Alpha  occ. eigenvalues --   -0.37762  -0.37410  -0.37336  -0.37020  -0.36910
 Alpha  occ. eigenvalues --   -0.36877  -0.36648  -0.36579  -0.36486  -0.36199
 Alpha  occ. eigenvalues --   -0.36009  -0.35928  -0.35755  -0.35668  -0.35612
 Alpha  occ. eigenvalues --   -0.35330  -0.35212  -0.35175  -0.34650  -0.34327
 Alpha  occ. eigenvalues --   -0.34035  -0.33609  -0.33430  -0.33268  -0.32795
 Alpha  occ. eigenvalues --   -0.32613  -0.32563  -0.32169  -0.31884  -0.31750
 Alpha  occ. eigenvalues --   -0.31219  -0.30984  -0.30144  -0.29748  -0.29523
 Alpha  occ. eigenvalues --   -0.29326  -0.28992  -0.28857  -0.27398  -0.27190
 Alpha  occ. eigenvalues --   -0.26338  -0.26048  -0.25812  -0.25705  -0.25546
 Alpha  occ. eigenvalues --   -0.25377  -0.25222  -0.25027  -0.21410  -0.21139
 Alpha  occ. eigenvalues --   -0.19288  -0.19058
 Alpha virt. eigenvalues --   -0.11756  -0.11643  -0.05722  -0.05328  -0.04379
 Alpha virt. eigenvalues --   -0.03930  -0.02698  -0.02259  -0.00692  -0.00379
 Alpha virt. eigenvalues --    0.00132   0.00248   0.00411   0.00633   0.01031

 Mulliken charges:
               1
     1  Mg  12.000657
     2  C    5.998990
     3  C    6.000979
     4  C    6.000960
     5  C    6.000660
     6  N    6.999122
     7  C    6.001820
     8  C    5.999824
     9  C    6.000454
    10  C    5.999443
    11  C    6.000488
    12  C    5.999655
    13  C    5.999889
    14  H    1.000288
    15  N    7.000285
    16  C    5.996577
    17  C    6.001186
    18  C    5.999071
    19  C    5.999290
    20  C    5.999978
    21  C    6.000141
    22  O    7.999664
    23  C    5.999860
    24  N    7.000438
    25  C    5.999186
    26  C    6.000281
    27  C    5.999558
    28  C    6.001049
    29  C    5.999871
    30  C    5.999640
    31  C    5.999715
    32  N    6.999828
    33  C    6.001290
    34  C    6.001328
    35  C    6.000124
    36  C    6.001213
    37  C    5.999826
    38  C    6.000661
    39  O    8.001523
    40  C    6.000154
    41  C    6.000180
    42  O    8.000240
    43  O    8.000113
    44  C    5.999951
    45  H    0.999846
    46  H    1.000098
    47  H    1.000915
    48  H    1.000184
    49  H    1.000414
    50  H    0.999037
    51  H    0.999766
    52  H    1.000275
    53  H    1.000747
    54  H    0.999831
    55  H    0.999873
    56  H    1.000488
    57  H    1.000126
    58  H    0.999649
    59  H    1.000133
    60  H    0.999892
    61  H    1.000074
    62  H    1.000652
    63  H    1.000348
    64  H    1.000402
    65  H    1.000112
    66  H    0.999988
    67  H    1.000428
    68  H    1.000649
    69  H    0.999906
    70  H    1.000085
    71  H    1.000352
    72  H    1.000530
    73  H    1.000898
    74  H    1.000968
    75  H    1.000791
    76  H    1.000579
    77  H    1.000045
    78  H    1.000353
    79  H    1.000232
    80  Mg  11.999603
    81  C    5.998577
    82  C    5.996750
    83  C    6.000445
    84  C    6.001496
    85  N    6.998320
    86  C    5.999317
    87  C    6.000239
    88  C    5.999327
    89  C    6.002797
    90  C    6.000064
    91  C    6.000282
    92  C    6.000432
    93  H    0.999003
    94  N    7.000422
    95  C    6.000840
    96  C    6.001417
    97  C    6.000082
    98  C    6.000916
    99  C    5.999980
   100  C    6.000153
   101  O    8.000282
   102  C    5.999876
   103  N    7.001103
   104  C    6.000628
   105  C    5.999802
   106  C    6.000525
   107  C    5.997895
   108  C    6.000107
   109  C    6.000216
   110  C    6.000018
   111  N    6.999850
   112  C    5.998006
   113  C    5.998481
   114  C    5.999589
   115  C    5.999167
   116  C    5.999954
   117  C    5.999239
   118  O    7.998238
   119  C    6.000321
   120  C    5.999759
   121  O    7.999449
   122  O    7.999869
   123  C    6.000216
   124  H    0.999434
   125  H    1.000139
   126  H    0.999649
   127  H    0.999794
   128  H    0.999730
   129  H    1.000216
   130  H    0.999548
   131  H    0.999993
   132  H    0.999349
   133  H    1.000132
   134  H    0.999906
   135  H    0.999989
   136  H    1.000830
   137  H    1.000171
   138  H    1.000608
   139  H    0.999860
   140  H    1.000130
   141  H    0.999978
   142  H    0.999825
   143  H    0.999722
   144  H    0.999775
   145  H    0.999485
   146  H    1.000213
   147  H    1.000050
   148  H    0.999464
   149  H    0.999779
   150  H    1.000106
   151  H    0.999663
   152  H    0.999288
   153  H    0.999011
   154  H    0.999023
   155  H    0.999130
   156  H    0.999610
   157  H    0.999533
   158  H    0.999697
 Sum of Mulliken charges = 624.00000

 Dipole moment (field-independent basis, Debye):
    X=              1.1092    Y=             -0.2210    Z=              0.1437  Tot=              1.1401
 Quadrupole moment (field-independent basis, Debye-Ang):
   XX=              0.6924   YY=             -0.1221   ZZ=              0.0665
   XY=              0.5525   XZ=             -1.1393   YZ=              0.0839

 Normal termination of Gaussian 16 at Thu Oct 14 16:21:25 2021.
