 Gaussian 16, Revision A.03,
 Gaussian 16:  ES64L-G16RevA.03 25-Dec-2016

 --------------------------------------------------------
 #p PBE1PBE/Def2SVP td=(nstates=5) density=(transition=1)
 --------------------------------------------------------

 --------------------------------
 TDDFT excited states in gaussian
 --------------------------------
 Symbolic Z-matrix:
 Charge =  0 Multiplicity = 1

                         Standard orientation:
 ---------------------------------------------------------------------
 Center     Atomic      Atomic             Coordinates (Angstroms)
 Number     Number       Type             X           Y           Z
 ---------------------------------------------------------------------
      1         12           0       11.020206    0.429833    0.364000
      2          6           0        9.286028   -2.306634   -0.671460
      3          6           0       11.594019    1.249691   -3.028206
      4          6           0       11.730270    3.545447    1.335055
      5          6           0        9.927067   -0.187165    3.750293
      6          7           0       10.509827   -0.461302   -1.553541
      7          6           0        9.819334   -1.525214   -1.798554
      8          6           0        9.894245   -1.982842   -3.298587
      9          6           0       10.893028   -0.968206   -3.974692
     10          6           0       11.077879    0.034720   -2.784217
     11          6           0       12.123043   -1.573953   -4.652165
     12          6           0        8.408367   -2.087318   -3.990079
     13          6           0        7.266506   -1.282277   -3.391061
     14          1           0        6.011025   -0.984926   -4.210950
     15          7           0       11.575401    2.155228   -0.714463
     16          6           0       11.824098    2.283757   -2.059833
     17          6           0       12.169978    3.607173   -2.350222
     18          6           0       12.185902    4.341446   -1.102008
     19          6           0       11.778285    3.352351   -0.069638
     20          6           0       12.622138    4.006250   -3.742953
     21          6           0       12.542693    5.834078   -0.981302
     22          8           0       12.834787    6.450016   -2.030920
     23          6           0       12.568955    6.592688    0.235771
     24          7           0       10.699373    1.611262    2.304284
     25          6           0       11.276681    2.775654    2.394592
     26          6           0       11.312891    3.325642    3.848887
     27          6           0       10.783212    2.110652    4.641488
     28          6           0       10.435113    1.036282    3.533426
     29          6           0       12.660597    3.738718    4.319806
     30          6           0        9.548487    2.478843    5.591935
     31          6           0        9.827924    2.427585    7.150265
     32          7           0        9.957319   -0.982047    1.425419
     33          6           0        9.609649   -1.155626    2.770927
     34          6           0        8.870273   -2.448897    2.909312
     35          6           0        8.706028   -2.872123    1.582735
     36          6           0        9.346332   -1.945262    0.707619
     37          6           0        8.366848   -3.094439    4.106791
     38          6           0        8.084507   -3.876263    0.848110
     39          8           0        7.431478   -4.884692    1.154154
     40          6           0        8.501672   -3.619938   -0.627952
     41          6           0        9.209150   -4.890821   -1.155411
     42          8           0        8.936945   -5.530581   -2.156989
     43          8           0       10.257669   -5.275725   -0.348097
     44          6           0       10.989380   -6.493124   -0.717945
     45          1           0       11.677456    1.440551   -4.100004
     46          1           0       12.099667    4.491735    1.735217
     47          1           0        9.753053   -0.445881    4.796725
     48          1           0       10.443234   -2.924872   -3.299931
     49          1           0       10.405114   -0.354655   -4.732689
     50          1           0       13.023064   -1.265056   -4.120878
     51          1           0       12.234144   -1.236374   -5.683251
     52          1           0       12.118860   -2.658844   -4.757875
     53          1           0        8.246647   -3.165433   -3.976907
     54          1           0        8.348611   -1.733307   -5.019481
     55          1           0        7.749134   -0.344714   -3.116349
     56          1           0        7.019836   -1.790758   -2.458846
     57          1           0       13.597427    4.472755   -3.884243
     58          1           0       11.841313    4.614736   -4.199797
     59          1           0       12.651668    3.116735   -4.371936
     60          1           0       13.269590    6.285776    1.012109
     61          1           0       11.630535    6.473563    0.776387
     62          1           0       12.636485    7.668857    0.079471
     63          1           0       10.723359    4.210725    4.087660
     64          1           0       11.556282    1.602637    5.218142
     65          1           0       12.824678    4.815348    4.362259
     66          1           0       13.422440    3.470889    3.586835
     67          1           0       12.864771    3.307900    5.299879
     68          1           0        8.774722    1.724451    5.443194
     69          1           0        9.171787    3.493300    5.468461
     70          1           0        9.420764    3.320101    7.623724
     71          1           0       10.904503    2.512412    7.298753
     72          1           0        9.269213    1.561152    7.504636
     73          1           0        9.070025   -2.800161    4.886272
     74          1           0        8.381969   -4.179119    3.994425
     75          1           0        7.328339   -2.780429    4.207404
     76          1           0        7.664141   -3.659705   -1.324035
     77          1           0       11.456812   -6.897252    0.180192
     78          1           0       11.819902   -6.402060   -1.417786
     79          1           0       10.374938   -7.240604   -1.220637
     80         12           0      -11.054278    0.408403    0.041564
     81          6           0       -8.002768   -1.180133   -0.873264
     82          6           0      -11.060946   -1.457940    2.929349
     83          6           0      -13.910031    1.937802    0.693099
     84          6           0      -11.180748    1.907837   -3.222640
     85          7           0       -9.684641   -1.246315    0.936469
     86          6           0       -8.467491   -1.600905    0.384087
     87          6           0       -7.807762   -2.602400    1.392964
     88          6           0       -8.836276   -2.734232    2.638664
     89          6           0       -9.921493   -1.776942    2.135484
     90          6           0       -9.289899   -4.164751    2.996887
     91          6           0       -6.298328   -2.333260    1.792917
     92          6           0       -5.337706   -3.447373    1.494243
     93          1           0       -5.732775   -4.899668    1.443634
     94          7           0      -12.302914    0.347610    1.729669
     95          6           0      -12.126420   -0.489463    2.786056
     96          6           0      -13.103296   -0.094979    3.768222
     97          6           0      -13.988208    0.794109    3.120862
     98          6           0      -13.458846    1.080621    1.747899
     99          6           0      -13.127136   -0.776465    5.146797
    100          6           0      -15.311830    1.281450    3.627517
    101          8           0      -16.071477    1.978330    2.913693
    102          6           0      -15.762515    0.884192    4.984171
    103          7           0      -12.373312    1.701936   -1.193378
    104          6           0      -13.413195    2.236053   -0.653937
    105          6           0      -14.234120    3.311198   -1.546862
    106          6           0      -13.351375    3.268725   -2.803488
    107          6           0      -12.271657    2.283879   -2.427101
    108          6           0      -15.712450    2.812617   -1.744592
    109          6           0      -12.751133    4.632884   -3.294467
    110          6           0      -11.610891    5.234915   -2.439404
    111          7           0       -9.951431    0.278078   -1.675335
    112          6           0      -10.160823    0.933042   -2.911779
    113          6           0       -9.015486    0.628897   -3.780355
    114          6           0       -8.145241   -0.186949   -3.018167
    115          6           0       -8.739778   -0.340076   -1.720171
    116          6           0       -8.815677    1.158995   -5.231795
    117          6           0       -6.940731   -0.827758   -3.089246
    118          8           0       -6.141427   -0.966914   -3.992540
    119          6           0       -6.712717   -1.475089   -1.694739
    120          6           0       -6.441998   -2.881730   -1.882348
    121          8           0       -7.305023   -3.764873   -1.940835
    122          8           0       -5.095820   -3.061618   -2.221899
    123          6           0       -4.747081   -4.446963   -2.623501
    124          1           0      -11.311160   -2.150074    3.736544
    125          1           0      -14.926204    2.302252    0.857984
    126          1           0      -11.167983    2.340675   -4.225061
    127          1           0       -7.744238   -3.464328    0.730035
    128          1           0       -8.332662   -2.400782    3.544925
    129          1           0       -9.076770   -4.385740    4.043538
    130          1           0       -8.892143   -4.974018    2.384766
    131          1           0      -10.367672   -4.142734    2.835554
    132          1           0       -6.231997   -2.083826    2.852100
    133          1           0       -5.985713   -1.490418    1.176435
    134          1           0       -4.702273   -3.546480    2.375020
    135          1           0       -4.797183   -3.185261    0.585407
    136          1           0      -12.193523   -1.295693    5.364505
    137          1           0      -13.953478   -1.484720    5.191377
    138          1           0      -13.277938    0.042102    5.849845
    139          1           0      -14.999681    1.227559    5.682971
    140          1           0      -15.819727   -0.200504    5.082835
    141          1           0      -16.762617    1.266628    5.184216
    142          1           0      -14.215401    4.301836   -1.091894
    143          1           0      -13.872919    2.731399   -3.595889
    144          1           0      -15.700820    1.723002   -1.719559
    145          1           0      -16.040575    3.113459   -2.740169
    146          1           0      -16.466621    3.151782   -1.033988
    147          1           0      -13.556844    5.333136   -3.512590
    148          1           0      -12.363431    4.472992   -4.300074
    149          1           0      -11.645882    5.041417   -1.367809
    150          1           0      -11.544132    6.299373   -2.667119
    151          1           0      -10.697358    4.806608   -2.851559
    152          1           0       -7.830205    1.594506   -5.397266
    153          1           0       -9.581708    1.869374   -5.540643
    154          1           0       -8.689262    0.309416   -5.903337
    155          1           0       -5.821583   -0.948459   -1.354796
    156          1           0       -5.199926   -4.693027   -3.583623
    157          1           0       -5.101569   -5.217807   -1.940184
    158          1           0       -3.664247   -4.529069   -2.527969
 ---------------------------------------------------------------------

 SCF Done:  E(RPBE1PBE) =  -4067.34334586     A.U. after   19 cycles

 Excitation energies and oscillator strengths:

 Excited State   1:      Singlet-A      1.6917 eV  732.90 nm  f=0.0000  <S**2>=0.000
     312 -> 313        0.70709
 This state for optimization and/or second-order correction.
 Total Energy, E(TD-HF/TD-DFT) =  -4067.28117758
 Copying the excited state density for this state as the 1-particle RhoCI density.

 Excited State   2:      Singlet-A      1.8533 eV  668.99 nm  f=0.4414  <S**2>=0.000
     309 -> 315        0.15828
     311 -> 313        0.69538
     311 <- 313       -0.12209

 Excited State   3:      Singlet-A      1.8673 eV  663.96 nm  f=0.3348  <S**2>=0.000
     310 -> 316       -0.18648
     312 -> 314        0.68609

 Excited State   4:      Singlet-A      2.1017 eV  589.91 nm  f=0.0000  <S**2>=0.000
     311 -> 314        0.70709

 Excited State   5:      Singlet-A      2.2037 eV  562.61 nm  f=0.0000  <S**2>=0.000
     310 -> 313        0.70709

 The electronic state is 1-A.
 Alpha  occ. eigenvalues --  -46.93684 -46.93112 -19.25450 -19.24845 -19.20275
 Alpha  occ. eigenvalues --  -19.19457 -19.18993 -19.18622 -19.18024 -19.17837
 Alpha  occ. eigenvalues --  -14.42666 -14.41974 -14.41380 -14.41338 -14.40084
 Alpha  occ. eigenvalues --  -14.39574 -14.39439 -14.39210 -10.36699 -10.35539
 Alpha  occ. eigenvalues --  -10.31812 -10.31621 -10.31566 -10.30574 -10.30515
 Alpha  occ. eigenvalues --  -10.29346 -10.29233 -10.29074 -10.28919 -10.28843
 Alpha  occ. eigenvalues --  -10.28717 -10.28656 -10.28651 -10.28567 -10.28548
 Alpha  occ. eigenvalues --  -10.28143 -10.28079 -10.27982 -10.27892 -10.27808
 Alpha  occ. eigenvalues --  -10.27101 -10.27019 -10.27015 -10.26945 -10.26660
 Alpha  occ. eigenvalues --  -10.26534 -10.26497 -10.26294 -10.26291 -10.26116
 Alpha  occ. eigenvalues --  -10.26075 -10.26022 -10.25919 -10.25876 -10.25767
 Alpha  occ. eigenvalues --  -10.25535 -10.25385 -10.25316 -10.25222 -10.25195
 Alpha  occ. eigenvalues --  -10.25060 -10.25039 -10.25016 -10.24924 -10.24864
 Alpha  occ. eigenvalues --  -10.24806 -10.24799 -10.24785 -10.24764 -10.24735
 Alpha  occ. eigenvalues --  -10.24472 -10.24326 -10.24117 -10.24091 -10.23888
 Alpha  occ. eigenvalues --  -10.23689 -10.23587 -10.23583 -10.23514 -10.23322
 Alpha  occ. eigenvalues --  -10.23308 -10.23268 -10.23062 -10.23053 -10.22531
 Alpha  occ. eigenvalues --  -10.21918  -3.15674  -3.15035  -1.88490  -1.88080
 Alpha  occ. eigenvalues --   -1.87889  -1.87861  -1.87444  -1.87214  -1.10819
 Alpha  occ. eigenvalues --   -1.09014  -1.04205  -1.03572  -1.02794  -1.02502
 Alpha  occ. eigenvalues --   -1.02108  -1.01053  -1.00656  -0.99571  -0.99087
 Alpha  occ. eigenvalues --   -0.98174  -0.98096  -0.97505  -0.97097  -0.96507
 Alpha  occ. eigenvalues --   -0.87208  -0.86765  -0.84001  -0.83988  -0.83720
 Alpha  occ. eigenvalues --   -0.83299  -0.82433  -0.82298  -0.82051  -0.81929
 Alpha  occ. eigenvalues --   -0.81313  -0.81026  -0.79845  -0.79723  -0.78976
 Alpha  occ. eigenvalues --   -0.78456  -0.78414  -0.77609  -0.77180  -0.76799
 Alpha  occ. eigenvalues --   -0.76732  -0.76140  -0.75659  -0.74938  -0.74530
 Alpha  occ. eigenvalues --   -0.74300  -0.72829  -0.72359  -0.71805  -0.71685
 Alpha  occ. eigenvalues --   -0.71209  -0.70678  -0.70627  -0.69961  -0.69688
 Alpha  occ. eigenvalues --   -0.69228  -0.67818  -0.66986  -0.66407  -0.65901
 Alpha  occ. eigenvalues --   -0.64716  -0.63951  -0.63447  -0.63265  -0.62711
 Alpha  occ. eigenvalues --   -0.62159  -0.61349  -0.61129  -0.60403  -0.60114
 Alpha  occ. eigenvalues --   -0.59716  -0.59335  -0.59325  -0.59081  -0.59013
 Alpha  occ. eigenvalues --   -0.58682  -0.57807  -0.55962  -0.55382  -0.54557
 Alpha  occ. eigenvalues --   -0.54515  -0.54029  -0.53562  -0.53170  -0.53142
 Alpha  occ. eigenvalues --   -0.52632  -0.52619  -0.52339  -0.52035  -0.51667
 Alpha  occ. eigenvalues --   -0.50996  -0.50752  -0.50468  -0.50231  -0.49953
 Alpha  occ. eigenvalues --   -0.49770  -0.49340  -0.49246  -0.48940  -0.48394
 Alpha  occ. eigenvalues --   -0.48045  -0.48038  -0.47752  -0.47539  -0.47465
 Alpha  occ. eigenvalues --   -0.47441  -0.47213  -0.47111  -0.47092  -0.46692
 Alpha  occ. eigenvalues --   -0.46506  -0.46074  -0.46011  -0.45729  -0.45695
 Alpha  occ. eigenvalues --   -0.45532  -0.45415  -0.45290  -0.44821  -0.44757
 Alpha  occ. eigenvalues --   -0.44482  -0.44370  -0.44150  -0.44023  -0.43862
 Alpha  occ. eigenvalues --   -0.43757  -0.43685  -0.43639  -0.43416  -0.43402
 Alpha  occ. eigenvalues --   -0.43251  -0.43251  -0.43138  -0.42988  -0.42563
 Alpha  occ. eigenvalues --   -0.42410  -0.42361  -0.42088  -0.42083  -0.41899
 Alpha  occ. eigenvalues --   -0.41876  -0.41529  -0.41356  -0.41349  -0.41219
 Alpha  occ. eigenvalues --   -0.41144  -0.40977  -0.40815  -0.40649  -0.40522
 Alpha  occ. eigenvalues --   -0.40472  -0.40199  -0.40036  -0.39800  -0.39691
 Alpha  occ. eigenvalues --   -0.39568  -0.39363  -0.39295  -0.39128  -0.39018
 Alpha  occ. eigenvalues --   -0.38561  -0.38532  -0.38458  -0.38382  -0.37976
 Alpha  occ. eigenvalues --   -0.37901  -0.37581  -0.37535  -0.37446  -0.37298
 Alpha  occ. eigenvalues --   -0.37163  -0.37124  -0.36824  -0.36716  -0.36636
 Alpha  occ. eigenvalues --   -0.36555  -0.36434  -0.36329  -0.36073  -0.35975
 Alpha  occ. eigenvalues --   -0.35889  -0.35788  -0.35688  -0.35545  -0.35409
 Alpha  occ. eigenvalues --   -0.34970  -0.34952  -0.34736  -0.34549  -0.34011
 Alpha  occ. eigenvalues --   -0.33971  -0.33546  -0.33005  -0.32859  -0.31847
 Alpha  occ. eigenvalues --   -0.31784  -0.31619  -0.31544  -0.31406  -0.31274
 Alpha  occ. eigenvalues --   -0.30926  -0.30428  -0.29755  -0.29606  -0.29266
 Alpha  occ. eigenvalues --   -0.29040  -0.28580  -0.28326  -0.27121  -0.26771
 Alpha  occ. eigenvalues --   -0.26366  -0.25835  -0.25670  -0.25553  -0.25411
 Alpha  occ. eigenvalues --   -0.25076  -0.25028  -0.24813  -0.21780  -0.20625
 Alpha  occ. eigenvalues --   -0.19294  -0.18752
 Alpha virt. eigenvalues --   -0.11915  -0.10976  -0.05407  -0.05180  -0.04168
 Alpha virt. eigenvalues --   -0.03948  -0.02340  -0.02018  -0.01984  -0.00088
 Alpha virt. eigenvalues --    0.00496   0.00515   0.00870   0.01505   0.01567

 Mulliken charges:
               1
     1  Mg  12.000000
     2  C    6.000000
     3  C    6.000000
     4  C    6.000000
     5  C    6.000000
     6  N    7.000000
     7  C    6.000000
     8  C    6.000000
     9  C    6.000000
    10  C    6.000000
    11  C    6.000000
    12  C    6.000000
    13  C    6.000000
    14  H    1.000000
    15  N    7.000000
    16  C    6.000000
    17  C    6.000000
    18  C    6.000000
    19  C    6.000000
    20  C    6.000000
    21  C    6.000000
    22  O    8.000000
    23  C    6.000000
    24  N    7.000000
    25  C    6.000000
    26  C    6.000000
    27  C    6.000000
    28  C    6.000000
    29  C    6.000000
    30  C    6.000000
    31  C    6.000000
    32  N    7.000000
    33  C    6.000000
    34  C    6.000000
    35  C    6.000000
    36  C    6.000000
    37  C    6.000000
    38  C    6.000000
    39  O    8.000000
    40  C    6.000000
    41  C    6.000000
    42  O    8.000000
    43  O    8.000000
    44  C    6.000000
    45  H    1.000000
    46  H    1.000000
    47  H    1.000000
    48  H    1.000000
    49  H    1.000000
    50  H    1.000000
    51  H    1.000000
    52  H    1.000000
    53  H    1.000000
    54  H    1.000000
    55  H    1.000000
    56  H    1.000000
    57  H    1.000000
    58  H    1.000000
    59  H    1.000000
    60  H    1.000000
    61  H    1.000000
    62  H    1.000000
    63  H    1.000000
    64  H    1.000000
    65  H    1.000000
    66  H    1.000000
    67  H    1.000000
    68  H    1.000000
    69  H    1.000000
    70  H    1.000000
    71  H    1.000000
    72  H    1.000000
    73  H    1.000000
    74  H    1.000000
    75  H    1.000000
    76  H    1.000000
    77  H    1.000000
    78  H    1.000000
    79  H    1.000000
    80  Mg  12.000000
    81  C    6.000000
    82  C    6.000000
    83  C    6.000000
    84  C    6.000000
    85  N    7.000000
    86  C    6.000000
    87  C    6.000000
    88  C    6.000000
    89  C    6.000000
    90  C    6.000000
    91  C    6.000000
    92  C    6.000000
    93  H    1.000000
    94  N    7.000000
    95  C    6.000000
    96  C    6.000000
    97  C    6.000000
    98  C    6.000000
    99  C    6.000000
   100  C    6.000000
   101  O    8.000000
   102  C    6.000000
   103  N    7.000000
   104  C    6.000000
   105  C    6.000000
   106  C    6.000000
   107  C    6.000000
   108  C    6.000000
   109  C    6.000000
   110  C    6.000000
   111  N    7.000000
   112  C    6.000000
   113  C    6.000000
   114  C    6.000000
   115  C    6.000000
   116  C    6.000000
   117  C    6.000000
   118  O    8.000000
   119  C    6.000000
   120  C    6.000000
   121  O    8.000000
   122  O    8.000000
   123  C    6.000000
   124  H    1.000000
   125  H    1.000000
   126  H    1.000000
   127  H    1.000000
   128  H    1.000000
   129  H    1.000000
   130  H    1.000000
   131  H    1.000000
   132  H    1.000000
   133  H    1.000000
   134  H    1.000000
   135  H    1.000000
   136  H    1.000000
   137  H    1.000000
   138  H    1.000000
   139  H    1.000000
   140  H    1.000000
   141  H    1.000000
   142  H    1.000000
   143  H    1.000000
   144  H    1.000000
   145  H    1.000000
   146  H    1.000000
   147  H    1.000000
   148  H    1.000000
   149  H    1.000000
   150  H    1.000000
   151  H    1.000000
   152  H    1.000000
   153  H    1.000000
   154  H    1.000000
   155  H    1.000000
   156  H    1.000000
   157  H    1.000000
   158  H    1.000000
 Sum of Mulliken charges = 624.00000

 Dipole moment (field-independent basis, Debye):
    X=              0.0000    Y=              0.0000    Z=             -0.0000  Tot=              0.0000
 Quadrupole moment (field-independent basis, Debye-Ang):
   XX=             -0.0000   YY=              0.0000   ZZ=              0.0000
   XY=              0.0000   XZ=              0.0000   YZ=             -0.0000

 Normal termination of Gaussian 16 at Thu Oct 14 05:15:52 2021.
