 Gaussian 16, Revision A.03,
 Gaussian 16:  ES64L-G16RevA.03 25-Dec-2016

 --------------------------------------------------------
 #p PBE1PBE/Def2SVP td=(nstates=5) density=(transition=1)
 --------------------------------------------------------

 --------------------------------
 TDDFT excited states in gaussian
 --------------------------------
 Symbolic Z-matrix:
 Charge =  0 Multiplicity = 1

                         Standard orientation:
 ---------------------------------------------------------------------
 Center     Atomic      Atomic             Coordinates (Angstroms)
 Number     Number       Type             X           Y           Z
 ---------------------------------------------------------------------
      1         12           0      -21.734579    0.399775   -0.290745
      2          6           0      -18.240648    0.512774    0.500507
      3          6           0      -20.818639   -1.121194   -3.351264
      4          6           0      -24.955811   -0.424734   -0.742560
      5          6           0      -22.411393    1.263169    2.981846
      6          7           0      -19.746994   -0.236161   -1.341854
      7          6           0      -18.522086   -0.088276   -0.753715
      8          6           0      -17.480987   -0.868291   -1.540822
      9          6           0      -18.316132   -1.103070   -2.868526
     10          6           0      -19.738430   -0.823774   -2.563439
     11          6           0      -17.885941   -0.295032   -4.138666
     12          6           0      -16.991502   -2.098816   -0.711755
     13          6           0      -15.444821   -2.430398   -0.630455
     14          1           0      -14.921828   -3.769357   -1.180943
     15          7           0      -22.765083   -0.422193   -1.835011
     16          6           0      -22.236289   -0.983010   -3.027420
     17          6           0      -23.307993   -1.441732   -3.891816
     18          6           0      -24.514910   -1.237170   -3.106917
     19          6           0      -24.085503   -0.663788   -1.845181
     20          6           0      -23.037478   -2.102650   -5.178740
     21          6           0      -25.919585   -1.576512   -3.635205
     22          8           0      -25.970349   -2.147226   -4.763734
     23          6           0      -27.247372   -1.277807   -2.907163
     24          7           0      -23.484163    0.142770    1.005500
     25          6           0      -24.710160   -0.030466    0.550256
     26          6           0      -25.658623    0.037094    1.703378
     27          6           0      -24.811302    0.638346    2.856490
     28          6           0      -23.428262    0.611574    2.282153
     29          6           0      -27.052514    0.781574    1.541824
     30          6           0      -24.910741   -0.143641    4.266291
     31          6           0      -25.533047    0.593191    5.477597
     32          7           0      -20.642115    0.990097    1.326775
     33          6           0      -21.033846    1.307305    2.572372
     34          6           0      -19.930744    1.644611    3.395338
     35          6           0      -18.816497    1.386171    2.593639
     36          6           0      -19.292419    0.940772    1.334520
     37          6           0      -19.873728    2.153501    4.779546
     38          6           0      -17.387410    1.392736    2.654744
     39          8           0      -16.674777    1.643940    3.600576
     40          6           0      -16.926453    0.737352    1.203920
     41          6           0      -16.084316    1.690420    0.471307
     42          8           0      -16.298972    2.904342    0.362522
     43          8           0      -15.051322    0.962225   -0.079307
     44          6           0      -14.071193    1.714197   -0.861091
     45          1           0      -20.600841   -1.590690   -4.311772
     46          1           0      -25.991776   -0.765391   -0.792338
     47          1           0      -22.577432    1.756643    3.941918
     48          1           0      -16.702522   -0.153065   -1.807667
     49          1           0      -18.211524   -2.187566   -2.917592
     50          1           0      -18.757340    0.268887   -4.474536
     51          1           0      -17.578887   -0.915633   -4.980203
     52          1           0      -17.120662    0.464775   -3.977190
     53          1           0      -17.510484   -2.890272   -1.251996
     54          1           0      -17.352461   -2.155890    0.314913
     55          1           0      -15.199369   -2.336630    0.427243
     56          1           0      -14.896852   -1.582640   -1.040594
     57          1           0      -22.335746   -2.909422   -4.965802
     58          1           0      -22.511200   -1.418821   -5.844384
     59          1           0      -23.890542   -2.414840   -5.781737
     60          1           0      -27.327489   -1.961568   -2.061925
     61          1           0      -27.977646   -1.198459   -3.711790
     62          1           0      -27.094029   -0.262289   -2.540492
     63          1           0      -25.948750   -0.989056    1.925665
     64          1           0      -25.108880    1.686551    2.825260
     65          1           0      -27.712028    0.271504    2.244390
     66          1           0      -27.371713    0.694827    0.503341
     67          1           0      -26.889143    1.812374    1.856727
     68          1           0      -23.879351   -0.430205    4.471098
     69          1           0      -25.399031   -1.098962    4.074288
     70          1           0      -24.917853    0.526409    6.373923
     71          1           0      -26.518362    0.168822    5.672192
     72          1           0      -25.755973    1.642721    5.284623
     73          1           0      -18.911391    2.613722    5.001360
     74          1           0      -20.016706    1.199856    5.288028
     75          1           0      -20.821399    2.646923    4.994943
     76          1           0      -16.504764   -0.258471    1.335582
     77          1           0      -13.687169    2.572436   -0.309215
     78          1           0      -14.518382    2.033609   -1.803573
     79          1           0      -13.223662    1.063024   -1.075157
     80         12           0       20.915990   -0.807274    0.018734
     81          6           0       21.653197    2.406518   -0.976248
     82          6           0       17.660012    0.336641    0.945205
     83          6           0       20.256574   -3.747018    1.317096
     84          6           0       24.160250   -1.833989   -0.745577
     85          7           0       19.862589    1.167269   -0.052838
     86          6           0       20.347023    2.319155   -0.526188
     87          6           0       19.212636    3.394801   -0.497460
     88          6           0       17.997043    2.689217    0.261312
     89          6           0       18.564110    1.269824    0.456712
     90          6           0       17.662767    3.198633    1.650159
     91          6           0       18.857270    3.994097   -1.866479
     92          6           0       18.864483    5.512965   -1.825492
     93          1           0       18.000671    6.335998   -2.792220
     94          7           0       19.161102   -1.600045    0.921099
     95          6           0       17.945369   -1.029774    1.166734
     96          6           0       17.037432   -1.932568    1.719474
     97          6           0       17.785840   -3.135291    1.969827
     98          6           0       19.144168   -2.873857    1.379781
     99          6           0       15.584198   -1.601672    2.026867
    100          6           0       17.355210   -4.394365    2.704429
    101          8           0       18.218295   -5.256436    2.959903
    102          6           0       15.985880   -4.567166    3.222524
    103          7           0       22.038219   -2.493356    0.202435
    104          6           0       21.542817   -3.666475    0.733610
    105          6           0       22.579161   -4.849689    0.788350
    106          6           0       23.710654   -4.240706   -0.145217
    107          6           0       23.300617   -2.758871   -0.226182
    108          6           0       23.169106   -5.368146    2.158969
    109          6           0       24.051982   -4.985506   -1.514931
    110          6           0       23.078369   -4.753581   -2.640096
    111          7           0       22.612375    0.054508   -0.567430
    112          6           0       23.873496   -0.435506   -0.848672
    113          6           0       24.744784    0.566235   -1.310570
    114          6           0       23.891573    1.671810   -1.404062
    115          6           0       22.585397    1.331815   -0.945810
    116          6           0       26.130378    0.279563   -1.706675
    117          6           0       23.965171    3.051406   -1.696889
    118          8           0       24.968543    3.709255   -1.979565
    119          6           0       22.478449    3.643101   -1.463367
    120          6           0       22.542781    4.716402   -0.487097
    121          8           0       22.690597    4.602192    0.708187
    122          8           0       22.529875    5.895923   -1.095685
    123          6           0       22.709772    7.083249   -0.316131
    124          1           0       16.686580    0.706694    1.272453
    125          1           0       20.186734   -4.763265    1.709748
    126          1           0       25.165772   -2.196690   -0.969013
    127          1           0       19.664290    4.127426    0.170637
    128          1           0       17.116157    2.914394   -0.340923
    129          1           0       18.226026    4.080257    1.957533
    130          1           0       17.903971    2.442005    2.396291
    131          1           0       16.582388    3.301964    1.755594
    132          1           0       17.907150    3.659285   -2.283105
    133          1           0       19.596757    3.636609   -2.582658
    134          1           0       19.875005    5.811998   -2.106275
    135          1           0       18.599049    5.784981   -0.804072
    136          1           0       15.280782   -0.658532    1.572298
    137          1           0       15.489061   -1.404853    3.094947
    138          1           0       14.934373   -2.448915    1.810966
    139          1           0       15.963453   -5.313099    4.017795
    140          1           0       15.387650   -4.968884    2.404107
    141          1           0       15.602442   -3.621039    3.603753
    142          1           0       22.250188   -5.715180    0.212313
    143          1           0       24.668667   -4.347323    0.362120
    144          1           0       22.711430   -4.785039    2.957131
    145          1           0       24.205826   -5.039369    2.241431
    146          1           0       23.104730   -6.433824    2.380613
    147          1           0       23.985304   -6.051487   -1.298729
    148          1           0       25.072529   -4.830368   -1.862871
    149          1           0       23.650405   -4.805241   -3.565833
    150          1           0       22.441379   -3.870188   -2.659936
    151          1           0       22.355283   -5.567738   -2.590908
    152          1           0       26.365313   -0.702680   -2.115898
    153          1           0       26.903133    0.587928   -1.003534
    154          1           0       26.268557    1.010836   -2.502666
    155          1           0       22.125437    4.035912   -2.416683
    156          1           0       21.765701    7.480779    0.058181
    157          1           0       23.112325    7.841876   -0.987098
    158          1           0       23.357914    6.872905    0.534749
 ---------------------------------------------------------------------

 SCF Done:  E(RPBE1PBE) =  -4067.37432239     A.U. after   16 cycles

 Excitation energies and oscillator strengths:

 Excited State   1:      Singlet-A      1.8632 eV  665.44 nm  f=0.4040  <S**2>=0.000
     309 -> 315       -0.17937
     312 -> 314        0.68883
     312 <- 314       -0.10858
 This state for optimization and/or second-order correction.
 Total Energy, E(TD-HF/TD-DFT) =  -4067.30585163
 Copying the excited state density for this state as the 1-particle RhoCI density.

 Excited State   2:      Singlet-A      1.8681 eV  663.69 nm  f=0.3759  <S**2>=0.000
     310 -> 316       -0.16467
     311 -> 313        0.68953
     311 <- 313       -0.11055

 Excited State   3:      Singlet-A      1.9489 eV  636.16 nm  f=0.0000  <S**2>=0.000
     312 -> 313        0.70711

 Excited State   4:      Singlet-A      2.0144 eV  615.50 nm  f=0.0000  <S**2>=0.000
     311 -> 314        0.70711

 Excited State   5:      Singlet-A      2.2662 eV  547.11 nm  f=0.1243  <S**2>=0.000
     309 -> 314        0.64981
     312 -> 315        0.26976

 The electronic state is 1-A.
 Alpha  occ. eigenvalues --  -46.92318 -46.91104 -19.26892 -19.25414 -19.20753
 Alpha  occ. eigenvalues --  -19.19996 -19.18912 -19.18802 -19.18450 -19.18420
 Alpha  occ. eigenvalues --  -14.41840 -14.41679 -14.41417 -14.40993 -14.39630
 Alpha  occ. eigenvalues --  -14.39475 -14.39334 -14.38674 -10.37060 -10.35221
 Alpha  occ. eigenvalues --  -10.32612 -10.32502 -10.31942 -10.31698 -10.29656
 Alpha  occ. eigenvalues --  -10.29223 -10.28957 -10.28922 -10.28903 -10.28520
 Alpha  occ. eigenvalues --  -10.28409 -10.28387 -10.28307 -10.28143 -10.28073
 Alpha  occ. eigenvalues --  -10.28061 -10.27943 -10.27463 -10.26990 -10.26799
 Alpha  occ. eigenvalues --  -10.26793 -10.26785 -10.26514 -10.26394 -10.26351
 Alpha  occ. eigenvalues --  -10.26326 -10.26134 -10.25986 -10.25902 -10.25880
 Alpha  occ. eigenvalues --  -10.25821 -10.25794 -10.25635 -10.25500 -10.25481
 Alpha  occ. eigenvalues --  -10.25473 -10.25448 -10.25387 -10.25221 -10.25199
 Alpha  occ. eigenvalues --  -10.25133 -10.25102 -10.25058 -10.24995 -10.24938
 Alpha  occ. eigenvalues --  -10.24926 -10.24830 -10.24830 -10.24454 -10.24321
 Alpha  occ. eigenvalues --  -10.24184 -10.24163 -10.24030 -10.23930 -10.23920
 Alpha  occ. eigenvalues --  -10.23828 -10.23725 -10.23660 -10.23540 -10.23523
 Alpha  occ. eigenvalues --  -10.23226 -10.23048 -10.22556 -10.22452 -10.22386
 Alpha  occ. eigenvalues --  -10.22316  -3.14452  -3.13463  -1.87281  -1.86813
 Alpha  occ. eigenvalues --   -1.86692  -1.86304  -1.85856  -1.85691  -1.12692
 Alpha  occ. eigenvalues --   -1.11276  -1.05607  -1.03652  -1.03164  -1.02939
 Alpha  occ. eigenvalues --   -1.02570  -1.02011  -1.00142  -0.99432  -0.99288
 Alpha  occ. eigenvalues --   -0.98369  -0.98364  -0.97936  -0.97211  -0.97060
 Alpha  occ. eigenvalues --   -0.87514  -0.86447  -0.83698  -0.83666  -0.83027
 Alpha  occ. eigenvalues --   -0.82640  -0.82619  -0.82444  -0.82318  -0.81947
 Alpha  occ. eigenvalues --   -0.81892  -0.81846  -0.81070  -0.80370  -0.78969
 Alpha  occ. eigenvalues --   -0.78865  -0.78137  -0.78130  -0.77231  -0.77005
 Alpha  occ. eigenvalues --   -0.76523  -0.76241  -0.75726  -0.75558  -0.74975
 Alpha  occ. eigenvalues --   -0.74820  -0.72609  -0.72604  -0.71986  -0.71665
 Alpha  occ. eigenvalues --   -0.71224  -0.71222  -0.70609  -0.70274  -0.69737
 Alpha  occ. eigenvalues --   -0.69629  -0.67924  -0.67697  -0.66693  -0.65889
 Alpha  occ. eigenvalues --   -0.64191  -0.64005  -0.63870  -0.63307  -0.62881
 Alpha  occ. eigenvalues --   -0.62170  -0.61472  -0.61245  -0.60615  -0.60181
 Alpha  occ. eigenvalues --   -0.59855  -0.59680  -0.59431  -0.59320  -0.59147
 Alpha  occ. eigenvalues --   -0.58896  -0.57529  -0.56900  -0.54946  -0.54747
 Alpha  occ. eigenvalues --   -0.54593  -0.54583  -0.54082  -0.53584  -0.53500
 Alpha  occ. eigenvalues --   -0.53163  -0.52951  -0.52835  -0.52250  -0.52211
 Alpha  occ. eigenvalues --   -0.51134  -0.50803  -0.50610  -0.50452  -0.50189
 Alpha  occ. eigenvalues --   -0.49666  -0.49466  -0.49167  -0.49145  -0.48924
 Alpha  occ. eigenvalues --   -0.48346  -0.48120  -0.47998  -0.47800  -0.47590
 Alpha  occ. eigenvalues --   -0.47310  -0.47124  -0.46921  -0.46799  -0.46644
 Alpha  occ. eigenvalues --   -0.46635  -0.46387  -0.46342  -0.45958  -0.45903
 Alpha  occ. eigenvalues --   -0.45876  -0.45197  -0.44986  -0.44931  -0.44793
 Alpha  occ. eigenvalues --   -0.44608  -0.44551  -0.44519  -0.44290  -0.44255
 Alpha  occ. eigenvalues --   -0.44078  -0.44063  -0.43904  -0.43748  -0.43548
 Alpha  occ. eigenvalues --   -0.43508  -0.43184  -0.43081  -0.42825  -0.42591
 Alpha  occ. eigenvalues --   -0.42458  -0.42447  -0.42385  -0.42355  -0.42187
 Alpha  occ. eigenvalues --   -0.42007  -0.41780  -0.41635  -0.41402  -0.41244
 Alpha  occ. eigenvalues --   -0.41166  -0.41122  -0.40819  -0.40805  -0.40719
 Alpha  occ. eigenvalues --   -0.40402  -0.40238  -0.40210  -0.40085  -0.39879
 Alpha  occ. eigenvalues --   -0.39814  -0.39704  -0.39345  -0.39317  -0.39215
 Alpha  occ. eigenvalues --   -0.38674  -0.38600  -0.38463  -0.38410  -0.38383
 Alpha  occ. eigenvalues --   -0.38288  -0.38125  -0.38071  -0.37951  -0.37798
 Alpha  occ. eigenvalues --   -0.37676  -0.37529  -0.37385  -0.37252  -0.36872
 Alpha  occ. eigenvalues --   -0.36454  -0.36343  -0.36322  -0.36154  -0.36109
 Alpha  occ. eigenvalues --   -0.35946  -0.35945  -0.35863  -0.35732  -0.35397
 Alpha  occ. eigenvalues --   -0.35312  -0.35210  -0.34136  -0.33968  -0.33817
 Alpha  occ. eigenvalues --   -0.33773  -0.33254  -0.33123  -0.32743  -0.32675
 Alpha  occ. eigenvalues --   -0.32617  -0.32207  -0.31626  -0.31552  -0.31347
 Alpha  occ. eigenvalues --   -0.31167  -0.30892  -0.29955  -0.29444  -0.29303
 Alpha  occ. eigenvalues --   -0.28872  -0.28668  -0.28468  -0.27109  -0.27023
 Alpha  occ. eigenvalues --   -0.26147  -0.25864  -0.25744  -0.25500  -0.25432
 Alpha  occ. eigenvalues --   -0.25273  -0.25228  -0.24932  -0.21177  -0.21096
 Alpha  occ. eigenvalues --   -0.19096  -0.18975
 Alpha virt. eigenvalues --   -0.11500  -0.11381  -0.05251  -0.05037  -0.03958
 Alpha virt. eigenvalues --   -0.03715  -0.02071  -0.01909  -0.00583  -0.00222
 Alpha virt. eigenvalues --    0.00247   0.00860   0.01239   0.01767   0.01801

 Mulliken charges:
               1
     1  Mg  11.999506
     2  C    6.013163
     3  C    5.981734
     4  C    5.984631
     5  C    6.019746
     6  N    6.995957
     7  C    5.974383
     8  C    6.007237
     9  C    5.991606
    10  C    6.029513
    11  C    5.997774
    12  C    6.007215
    13  C    6.000587
    14  H    0.990337
    15  N    6.997087
    16  C    6.045520
    17  C    6.019354
    18  C    6.011676
    19  C    6.031469
    20  C    5.996192
    21  C    6.012592
    22  O    8.021952
    23  C    6.001826
    24  N    7.000207
    25  C    6.031173
    26  C    5.989748
    27  C    6.010624
    28  C    5.965853
    29  C    5.998581
    30  C    6.001517
    31  C    6.001128
    32  N    7.000423
    33  C    5.965206
    34  C    5.972292
    35  C    5.995884
    36  C    5.972401
    37  C    5.998694
    38  C    5.984332
    39  O    7.973715
    40  C    5.996130
    41  C    5.995108
    42  O    7.995595
    43  O    7.997468
    44  C    6.002229
    45  H    1.008130
    46  H    1.007164
    47  H    0.993573
    48  H    1.000332
    49  H    1.001918
    50  H    0.995151
    51  H    1.001406
    52  H    1.012141
    53  H    0.988207
    54  H    1.005065
    55  H    1.003420
    56  H    1.000056
    57  H    1.018825
    58  H    1.019412
    59  H    1.013149
    60  H    1.010381
    61  H    1.011448
    62  H    1.007476
    63  H    1.001028
    64  H    0.997831
    65  H    1.005238
    66  H    0.992669
    67  H    1.006774
    68  H    1.005697
    69  H    0.990991
    70  H    1.002148
    71  H    0.994408
    72  H    0.998790
    73  H    0.987444
    74  H    0.981501
    75  H    0.981599
    76  H    0.990619
    77  H    0.998152
    78  H    0.993632
    79  H    0.994861
    80  Mg  11.999732
    81  C    6.001687
    82  C    5.998872
    83  C    5.997725
    84  C    6.000384
    85  N    7.000810
    86  C    5.997206
    87  C    6.000747
    88  C    5.998473
    89  C    6.002932
    90  C    5.999670
    91  C    6.000100
    92  C    6.000119
    93  H    0.999572
    94  N    6.999506
    95  C    6.003691
    96  C    6.001764
    97  C    6.001682
    98  C    6.003450
    99  C    5.999720
   100  C    6.001398
   101  O    8.003196
   102  C    5.999437
   103  N    6.999838
   104  C    6.003880
   105  C    5.998493
   106  C    6.001000
   107  C    5.997258
   108  C    6.000057
   109  C    6.000515
   110  C    6.000313
   111  N    7.000103
   112  C    5.996625
   113  C    5.997193
   114  C    5.999861
   115  C    5.996679
   116  C    6.000427
   117  C    5.998218
   118  O    7.996788
   119  C    5.999667
   120  C    5.999611
   121  O    7.999256
   122  O    7.999866
   123  C    6.000269
   124  H    1.001102
   125  H    1.000533
   126  H    0.998807
   127  H    1.000250
   128  H    1.000802
   129  H    1.001469
   130  H    0.999648
   131  H    1.000289
   132  H    0.999187
   133  H    1.000646
   134  H    1.000592
   135  H    0.999557
   136  H    1.001687
   137  H    1.001895
   138  H    1.001539
   139  H    1.001515
   140  H    1.001115
   141  H    1.000605
   142  H    1.000292
   143  H    0.999739
   144  H    0.999633
   145  H    1.001070
   146  H    1.000048
   147  H    0.998898
   148  H    1.000163
   149  H    0.999967
   150  H    1.000045
   151  H    0.998927
   152  H    0.998046
   153  H    0.997743
   154  H    0.998586
   155  H    0.999079
   156  H    0.999273
   157  H    0.999637
   158  H    0.999826
 Sum of Mulliken charges = 624.00000

 Dipole moment (field-independent basis, Debye):
    X=             -6.8846    Y=             -3.6800    Z=             -7.3081  Tot=             10.6934
 Quadrupole moment (field-independent basis, Debye-Ang):
   XX=            218.1261   YY=             -0.6550   ZZ=              4.8658
   XY=             60.6956   XZ=            179.2040   YZ=              0.2493

 Normal termination of Gaussian 16 at Thu Oct 14 11:02:49 2021.
