 Gaussian 16, Revision A.03,
 Gaussian 16:  ES64L-G16RevA.03 25-Dec-2016

 --------------------------------------------------------
 #p PBE1PBE/Def2SVP td=(nstates=5) density=(transition=1)
 --------------------------------------------------------

 --------------------------------
 TDDFT excited states in gaussian
 --------------------------------
 Symbolic Z-matrix:
 Charge =  0 Multiplicity = 1

                         Standard orientation:
 ---------------------------------------------------------------------
 Center     Atomic      Atomic             Coordinates (Angstroms)
 Number     Number       Type             X           Y           Z
 ---------------------------------------------------------------------
      1         12           0      -10.976563    0.530014    0.249169
      2          6           0       -8.031085   -0.641782   -1.243648
      3          6           0      -11.403242   -2.680154    1.680517
      4          6           0      -14.003769    1.523939    1.422888
      5          6           0      -10.812929    3.320247   -1.777861
      6          7           0       -9.755244   -1.317768    0.326624
      7          6           0       -8.485232   -1.460524   -0.239667
      8          6           0       -7.764568   -2.692621    0.417028
      9          6           0       -8.887072   -3.334825    1.240370
     10          6           0      -10.134956   -2.406025    1.038961
     11          6           0       -9.159520   -4.781839    0.748274
     12          6           0       -6.556402   -2.189967    1.197844
     13          6           0       -5.374958   -3.130599    1.369866
     14          1           0       -5.575028   -4.625456    1.032571
     15          7           0      -12.514508   -0.396747    1.402114
     16          6           0      -12.509819   -1.726805    1.863626
     17          6           0      -13.740550   -2.025067    2.574782
     18          6           0      -14.530428   -0.808902    2.600565
     19          6           0      -13.695881    0.163462    1.772280
     20          6           0      -14.011120   -3.336819    3.322673
     21          6           0      -15.862434   -0.503355    3.258318
     22          8           0      -16.352757    0.614467    3.170237
     23          6           0      -16.446439   -1.506531    4.177197
     24          7           0      -12.186665    2.250408   -0.100174
     25          6           0      -13.348014    2.461226    0.579703
     26          6           0      -13.870331    3.893121    0.291797
     27          6           0      -12.810180    4.516647   -0.696761
     28          6           0      -11.789255    3.355180   -0.811464
     29          6           0      -15.298358    3.837410   -0.279825
     30          6           0      -12.099016    5.792577   -0.172964
     31          6           0      -12.719845    7.019383   -0.833897
     32          7           0       -9.781235    1.236371   -1.316045
     33          6           0       -9.840799    2.332995   -2.109676
     34          6           0       -8.825933    2.161774   -3.177616
     35          6           0       -8.040384    1.100881   -2.833563
     36          6           0       -8.701327    0.544414   -1.708798
     37          6           0       -8.658670    3.188208   -4.285402
     38          6           0       -6.839623    0.313532   -3.143726
     39          8           0       -6.045066    0.444916   -4.066904
     40          6           0       -6.775334   -0.758670   -2.073200
     41          6           0       -6.600190   -2.027328   -2.797737
     42          8           0       -7.424740   -2.721061   -3.408137
     43          8           0       -5.256351   -2.338949   -2.765438
     44          6           0       -4.846182   -3.525500   -3.484455
     45          1           0      -11.458335   -3.654422    2.170181
     46          1           0      -14.933135    1.799050    1.925994
     47          1           0      -10.882695    4.184892   -2.441281
     48          1           0       -7.507974   -3.265949   -0.474610
     49          1           0       -8.478008   -3.474078    2.241011
     50          1           0      -10.117977   -4.924615    0.248910
     51          1           0       -9.343853   -5.373738    1.644362
     52          1           0       -8.387633   -5.137389    0.066000
     53          1           0       -6.975280   -1.850617    2.145688
     54          1           0       -6.208015   -1.262077    0.745782
     55          1           0       -4.997682   -3.030989    2.386731
     56          1           0       -4.643270   -2.670570    0.704778
     57          1           0      -13.260641   -4.108180    3.148761
     58          1           0      -14.975230   -3.745425    3.017028
     59          1           0      -14.142632   -3.111471    4.380326
     60          1           0      -15.787981   -1.610849    5.039910
     61          1           0      -16.741056   -2.407356    3.638905
     62          1           0      -17.374980   -1.152761    4.625365
     63          1           0      -13.939958    4.414080    1.246433
     64          1           0      -13.339860    4.630173   -1.643524
     65          1           0      -15.453778    4.305053   -1.251637
     66          1           0      -15.804867    4.446264    0.468766
     67          1           0      -15.682705    2.831192   -0.444495
     68          1           0      -11.089088    5.854352   -0.578733
     69          1           0      -12.132115    5.900779    0.911313
     70          1           0      -12.887633    7.701240   -0.000361
     71          1           0      -13.729290    6.861542   -1.212870
     72          1           0      -12.111666    7.495653   -1.603419
     73          1           0       -9.466442    3.915206   -4.373456
     74          1           0       -8.525245    2.730150   -5.264678
     75          1           0       -7.828752    3.843199   -4.017882
     76          1           0       -5.925319   -0.532466   -1.430276
     77          1           0       -5.254550   -3.456189   -4.493012
     78          1           0       -5.196985   -4.452824   -3.031037
     79          1           0       -3.794910   -3.355389   -3.714323
     80         12           0       11.059303    0.116124    0.571473
     81          6           0        8.882449   -1.872625   -1.272326
     82          6           0       11.934095    1.706235   -2.383179
     83          6           0       12.736270    2.420904    2.245086
     84          6           0        9.743300   -1.196169    3.491157
     85          7           0       10.368080    0.055928   -1.540134
     86          6           0        9.572421   -0.930331   -2.086131
     87          6           0        9.530477   -0.881561   -3.584853
     88          6           0       10.803350    0.017601   -3.911344
     89          6           0       11.049570    0.677469   -2.561082
     90          6           0       12.078498   -0.563536   -4.688113
     91          6           0        8.145330   -0.392554   -4.215924
     92          6           0        7.311341    0.649932   -3.413348
     93          1           0        6.687973    1.732153   -4.261765
     94          7           0       12.092681    1.907052    0.027201
     95          6           0       12.353336    2.379027   -1.265284
     96          6           0       13.060795    3.629773   -1.237412
     97          6           0       13.298260    3.887432    0.133830
     98          6           0       12.692108    2.754568    0.894850
     99          6           0       13.619653    4.228424   -2.529206
    100          6           0       14.086641    5.131145    0.603685
    101          8           0       14.461777    6.005634   -0.183911
    102          6           0       14.412522    5.182996    2.036949
    103          7           0       11.080948    0.577431    2.586456
    104          6           0       12.088485    1.414542    3.035451
    105          6           0       12.239120    1.405505    4.572635
    106          6           0       11.074135    0.386968    4.909649
    107          6           0       10.564333   -0.072105    3.616450
    108          6           0       13.550155    1.018682    5.180909
    109          6           0        9.872486    1.061599    5.745915
    110          6           0        9.462699    0.191044    6.905092
    111          7           0        9.733831   -1.409181    1.080226
    112          6           0        9.295846   -1.829031    2.322561
    113          6           0        8.302069   -2.915609    2.165818
    114          6           0        8.109058   -2.969326    0.741506
    115          6           0        8.988846   -2.043816    0.168180
    116          6           0        7.451117   -3.586233    3.166315
    117          6           0        7.340624   -3.543275   -0.383598
    118          8           0        6.408244   -4.313047   -0.361136
    119          6           0        7.835413   -2.892623   -1.715390
    120          6           0        8.281830   -3.925977   -2.650485
    121          8           0        7.851977   -4.224709   -3.764935
    122          8           0        9.164143   -4.774846   -1.932041
    123          6           0        9.779074   -5.864081   -2.720543
    124          1           0       12.364960    2.001149   -3.342796
    125          1           0       13.402941    2.996585    2.890344
    126          1           0        9.451380   -1.592995    4.465106
    127          1           0        9.655801   -1.882214   -3.998332
    128          1           0       10.349978    0.766557   -4.561153
    129          1           0       11.982775   -1.582970   -5.061446
    130          1           0       12.976665   -0.625163   -4.073759
    131          1           0       12.206344   -0.018733   -5.623902
    132          1           0        7.523450   -1.246512   -4.482460
    133          1           0        8.393462    0.034461   -5.187588
    134          1           0        7.915335    1.102925   -2.626569
    135          1           0        6.480825    0.151499   -2.914198
    136          1           0       13.668911    5.317758   -2.524362
    137          1           0       12.934990    4.010850   -3.348544
    138          1           0       14.626839    3.823388   -2.630102
    139          1           0       15.159674    4.418857    2.249244
    140          1           0       13.503896    5.054445    2.625980
    141          1           0       14.840384    6.173512    2.191329
    142          1           0       11.859822    2.358911    4.941140
    143          1           0       11.620151   -0.462005    5.320955
    144          1           0       13.353601    0.881667    6.244377
    145          1           0       14.198671    1.892730    5.120860
    146          1           0       13.963716    0.145559    4.674816
    147          1           0        9.065647    1.237037    5.034463
    148          1           0       10.026519    2.080902    6.102281
    149          1           0        8.470388   -0.204514    6.689733
    150          1           0        9.231290    0.771462    7.798832
    151          1           0       10.125707   -0.671325    6.971604
    152          1           0        7.596433   -3.272607    4.201126
    153          1           0        7.727927   -4.639403    3.133085
    154          1           0        6.473649   -3.199039    2.879374
    155          1           0        6.964475   -2.360395   -2.097166
    156          1           0       10.821306   -5.808372   -2.404214
    157          1           0        9.754233   -5.853289   -3.810243
    158          1           0        9.427355   -6.776272   -2.238209
 ---------------------------------------------------------------------

 SCF Done:  E(RPBE1PBE) =  -4067.37300715     A.U. after   16 cycles

 Excitation energies and oscillator strengths:

 Excited State   1:      Singlet-A      1.8194 eV  681.45 nm  f=0.0000  <S**2>=0.000
     312 -> 313        0.70709
 This state for optimization and/or second-order correction.
 Total Energy, E(TD-HF/TD-DFT) =  -4067.30614524
 Copying the excited state density for this state as the 1-particle RhoCI density.

 Excited State   2:      Singlet-A      1.8261 eV  678.94 nm  f=0.3880  <S**2>=0.000
     310 -> 316       -0.16164
     312 -> 314        0.69454
     312 <- 314       -0.11154

 Excited State   3:      Singlet-A      1.8710 eV  662.66 nm  f=0.3515  <S**2>=0.000
     309 -> 315       -0.17699
     311 -> 313        0.68989
     311 <- 313       -0.10396

 Excited State   4:      Singlet-A      1.9775 eV  626.98 nm  f=0.0000  <S**2>=0.000
     311 -> 314        0.70709

 Excited State   5:      Singlet-A      2.2006 eV  563.42 nm  f=0.1151  <S**2>=0.000
     310 -> 314        0.65495
     312 -> 316        0.24442

 The electronic state is 1-A.
 Alpha  occ. eigenvalues --  -46.92489 -46.92401 -19.25002 -19.24949 -19.20742
 Alpha  occ. eigenvalues --  -19.19887 -19.19495 -19.19168 -19.19130 -19.19103
 Alpha  occ. eigenvalues --  -14.41741 -14.41678 -14.41594 -14.41149 -14.39577
 Alpha  occ. eigenvalues --  -14.39237 -14.38881 -14.38814 -10.36722 -10.36231
 Alpha  occ. eigenvalues --  -10.32518 -10.32346 -10.32306 -10.32166 -10.29454
 Alpha  occ. eigenvalues --  -10.29327 -10.28949 -10.28722 -10.28527 -10.28515
 Alpha  occ. eigenvalues --  -10.28420 -10.28412 -10.28254 -10.28246 -10.27969
 Alpha  occ. eigenvalues --  -10.27951 -10.27900 -10.27897 -10.27240 -10.26917
 Alpha  occ. eigenvalues --  -10.26859 -10.26710 -10.26464 -10.26380 -10.26353
 Alpha  occ. eigenvalues --  -10.26320 -10.26283 -10.26008 -10.25969 -10.25925
 Alpha  occ. eigenvalues --  -10.25880 -10.25867 -10.25728 -10.25686 -10.25575
 Alpha  occ. eigenvalues --  -10.25573 -10.25473 -10.25412 -10.25410 -10.25375
 Alpha  occ. eigenvalues --  -10.25272 -10.25076 -10.24943 -10.24865 -10.24776
 Alpha  occ. eigenvalues --  -10.24757 -10.24577 -10.24501 -10.24429 -10.24359
 Alpha  occ. eigenvalues --  -10.24229 -10.24110 -10.23889 -10.23750 -10.23710
 Alpha  occ. eigenvalues --  -10.23612 -10.23535 -10.23330 -10.23270 -10.23233
 Alpha  occ. eigenvalues --  -10.23215 -10.22950 -10.22832 -10.22651 -10.22555
 Alpha  occ. eigenvalues --  -10.22396  -3.14595  -3.14382  -1.87419  -1.87236
 Alpha  occ. eigenvalues --   -1.86984  -1.86810  -1.86714  -1.86636  -1.10394
 Alpha  occ. eigenvalues --   -1.09526  -1.05181  -1.04905  -1.04710  -1.04020
 Alpha  occ. eigenvalues --   -1.01709  -1.01523  -0.99686  -0.99040  -0.98350
 Alpha  occ. eigenvalues --   -0.97836  -0.97288  -0.97085  -0.96956  -0.96064
 Alpha  occ. eigenvalues --   -0.87684  -0.86814  -0.83962  -0.83513  -0.83373
 Alpha  occ. eigenvalues --   -0.82984  -0.82268  -0.82100  -0.81932  -0.81338
 Alpha  occ. eigenvalues --   -0.81249  -0.80955  -0.80427  -0.79832  -0.79036
 Alpha  occ. eigenvalues --   -0.78763  -0.78460  -0.78031  -0.76949  -0.76891
 Alpha  occ. eigenvalues --   -0.76557  -0.76336  -0.75185  -0.75122  -0.74485
 Alpha  occ. eigenvalues --   -0.74257  -0.72694  -0.72151  -0.71774  -0.71481
 Alpha  occ. eigenvalues --   -0.71073  -0.70984  -0.70501  -0.70154  -0.70087
 Alpha  occ. eigenvalues --   -0.68789  -0.67110  -0.66898  -0.66571  -0.65332
 Alpha  occ. eigenvalues --   -0.63738  -0.63663  -0.63342  -0.62779  -0.62574
 Alpha  occ. eigenvalues --   -0.62219  -0.61306  -0.61236  -0.60866  -0.59702
 Alpha  occ. eigenvalues --   -0.59358  -0.59173  -0.59065  -0.59052  -0.58534
 Alpha  occ. eigenvalues --   -0.58338  -0.57064  -0.56576  -0.54793  -0.54462
 Alpha  occ. eigenvalues --   -0.54114  -0.53974  -0.53538  -0.53451  -0.53174
 Alpha  occ. eigenvalues --   -0.52885  -0.52884  -0.52147  -0.52102  -0.51765
 Alpha  occ. eigenvalues --   -0.50889  -0.50405  -0.50362  -0.50180  -0.49897
 Alpha  occ. eigenvalues --   -0.49633  -0.49490  -0.49169  -0.49089  -0.48369
 Alpha  occ. eigenvalues --   -0.48070  -0.47909  -0.47722  -0.47641  -0.47608
 Alpha  occ. eigenvalues --   -0.47382  -0.47315  -0.47259  -0.47021  -0.46727
 Alpha  occ. eigenvalues --   -0.46489  -0.46375  -0.46256  -0.46243  -0.45889
 Alpha  occ. eigenvalues --   -0.45716  -0.45391  -0.45278  -0.45038  -0.44778
 Alpha  occ. eigenvalues --   -0.44722  -0.44299  -0.44201  -0.44197  -0.44043
 Alpha  occ. eigenvalues --   -0.43919  -0.43874  -0.43653  -0.43519  -0.43470
 Alpha  occ. eigenvalues --   -0.43179  -0.43118  -0.42945  -0.42782  -0.42768
 Alpha  occ. eigenvalues --   -0.42390  -0.42365  -0.41947  -0.41888  -0.41640
 Alpha  occ. eigenvalues --   -0.41597  -0.41353  -0.41238  -0.40965  -0.40958
 Alpha  occ. eigenvalues --   -0.40911  -0.40690  -0.40458  -0.40449  -0.40141
 Alpha  occ. eigenvalues --   -0.39887  -0.39854  -0.39810  -0.39695  -0.39524
 Alpha  occ. eigenvalues --   -0.39507  -0.39397  -0.39355  -0.39106  -0.39058
 Alpha  occ. eigenvalues --   -0.38919  -0.38731  -0.38304  -0.38277  -0.38057
 Alpha  occ. eigenvalues --   -0.37942  -0.37823  -0.37821  -0.37712  -0.37680
 Alpha  occ. eigenvalues --   -0.37532  -0.37319  -0.37230  -0.37152  -0.36992
 Alpha  occ. eigenvalues --   -0.36769  -0.36658  -0.36595  -0.36516  -0.36267
 Alpha  occ. eigenvalues --   -0.36077  -0.36036  -0.35629  -0.35305  -0.35135
 Alpha  occ. eigenvalues --   -0.34874  -0.34661  -0.34031  -0.33743  -0.33506
 Alpha  occ. eigenvalues --   -0.33367  -0.32953  -0.32893  -0.32812  -0.32603
 Alpha  occ. eigenvalues --   -0.32437  -0.31950  -0.31569  -0.31447  -0.31054
 Alpha  occ. eigenvalues --   -0.30789  -0.30551  -0.30296  -0.29697  -0.29258
 Alpha  occ. eigenvalues --   -0.28917  -0.28881  -0.28126  -0.26906  -0.26802
 Alpha  occ. eigenvalues --   -0.26293  -0.26052  -0.25881  -0.25812  -0.25745
 Alpha  occ. eigenvalues --   -0.25526  -0.25428  -0.25339  -0.20995  -0.20609
 Alpha  occ. eigenvalues --   -0.18863  -0.18455
 Alpha virt. eigenvalues --   -0.11157  -0.10997  -0.05709  -0.04936  -0.03902
 Alpha virt. eigenvalues --   -0.03525  -0.02318  -0.01952  -0.01109  -0.00492
 Alpha virt. eigenvalues --   -0.00310   0.00742   0.00806   0.01281   0.01610

 Mulliken charges:
               1
     1  Mg  12.000000
     2  C    6.000000
     3  C    6.000000
     4  C    6.000000
     5  C    6.000000
     6  N    7.000000
     7  C    6.000000
     8  C    6.000000
     9  C    6.000000
    10  C    6.000000
    11  C    6.000000
    12  C    6.000000
    13  C    6.000000
    14  H    1.000000
    15  N    7.000000
    16  C    6.000000
    17  C    6.000000
    18  C    6.000000
    19  C    6.000000
    20  C    6.000000
    21  C    6.000000
    22  O    8.000000
    23  C    6.000000
    24  N    7.000000
    25  C    6.000000
    26  C    6.000000
    27  C    6.000000
    28  C    6.000000
    29  C    6.000000
    30  C    6.000000
    31  C    6.000000
    32  N    7.000000
    33  C    6.000000
    34  C    6.000000
    35  C    6.000000
    36  C    6.000000
    37  C    6.000000
    38  C    6.000000
    39  O    8.000000
    40  C    6.000000
    41  C    6.000000
    42  O    8.000000
    43  O    8.000000
    44  C    6.000000
    45  H    1.000000
    46  H    1.000000
    47  H    1.000000
    48  H    1.000000
    49  H    1.000000
    50  H    1.000000
    51  H    1.000000
    52  H    1.000000
    53  H    1.000000
    54  H    1.000000
    55  H    1.000000
    56  H    1.000000
    57  H    1.000000
    58  H    1.000000
    59  H    1.000000
    60  H    1.000000
    61  H    1.000000
    62  H    1.000000
    63  H    1.000000
    64  H    1.000000
    65  H    1.000000
    66  H    1.000000
    67  H    1.000000
    68  H    1.000000
    69  H    1.000000
    70  H    1.000000
    71  H    1.000000
    72  H    1.000000
    73  H    1.000000
    74  H    1.000000
    75  H    1.000000
    76  H    1.000000
    77  H    1.000000
    78  H    1.000000
    79  H    1.000000
    80  Mg  12.000000
    81  C    6.000000
    82  C    6.000000
    83  C    6.000000
    84  C    6.000000
    85  N    7.000000
    86  C    6.000000
    87  C    6.000000
    88  C    6.000000
    89  C    6.000000
    90  C    6.000000
    91  C    6.000000
    92  C    6.000000
    93  H    1.000000
    94  N    7.000000
    95  C    6.000000
    96  C    6.000000
    97  C    6.000000
    98  C    6.000000
    99  C    6.000000
   100  C    6.000000
   101  O    8.000000
   102  C    6.000000
   103  N    7.000000
   104  C    6.000000
   105  C    6.000000
   106  C    6.000000
   107  C    6.000000
   108  C    6.000000
   109  C    6.000000
   110  C    6.000000
   111  N    7.000000
   112  C    6.000000
   113  C    6.000000
   114  C    6.000000
   115  C    6.000000
   116  C    6.000000
   117  C    6.000000
   118  O    8.000000
   119  C    6.000000
   120  C    6.000000
   121  O    8.000000
   122  O    8.000000
   123  C    6.000000
   124  H    1.000000
   125  H    1.000000
   126  H    1.000000
   127  H    1.000000
   128  H    1.000000
   129  H    1.000000
   130  H    1.000000
   131  H    1.000000
   132  H    1.000000
   133  H    1.000000
   134  H    1.000000
   135  H    1.000000
   136  H    1.000000
   137  H    1.000000
   138  H    1.000000
   139  H    1.000000
   140  H    1.000000
   141  H    1.000000
   142  H    1.000000
   143  H    1.000000
   144  H    1.000000
   145  H    1.000000
   146  H    1.000000
   147  H    1.000000
   148  H    1.000000
   149  H    1.000000
   150  H    1.000000
   151  H    1.000000
   152  H    1.000000
   153  H    1.000000
   154  H    1.000000
   155  H    1.000000
   156  H    1.000000
   157  H    1.000000
   158  H    1.000000
 Sum of Mulliken charges = 624.00000

 Dipole moment (field-independent basis, Debye):
    X=              0.0000    Y=              0.0000    Z=             -0.0000  Tot=              0.0000
 Quadrupole moment (field-independent basis, Debye-Ang):
   XX=             -0.0000   YY=              0.0000   ZZ=              0.0000
   XY=             -0.0000   XZ=              0.0000   YZ=             -0.0000

 Normal termination of Gaussian 16 at Fri Oct 15 02:46:01 2021.
