 Gaussian 16, Revision A.03,
 Gaussian 16:  ES64L-G16RevA.03 25-Dec-2016

 --------------------------------------------------------
 #p PBE1PBE/Def2SVP td=(nstates=5) density=(transition=1)
 --------------------------------------------------------

 --------------------------------
 TDDFT excited states in gaussian
 --------------------------------
 Symbolic Z-matrix:
 Charge =  0 Multiplicity = 1

                         Standard orientation:
 ---------------------------------------------------------------------
 Center     Atomic      Atomic             Coordinates (Angstroms)
 Number     Number       Type             X           Y           Z
 ---------------------------------------------------------------------
      1         12           0      -30.486762    0.109549    0.047624
      2          6           0      -27.285099   -1.326803   -0.064300
      3          6           0      -30.816687   -1.093420    3.207742
      4          6           0      -33.245378    1.862430    0.165273
      5          6           0      -29.468368    1.907401   -2.901445
      6          7           0      -29.223563   -1.113048    1.344529
      7          6           0      -27.956900   -1.571173    1.115353
      8          6           0      -27.381879   -2.078222    2.446367
      9          6           0      -28.645337   -2.475740    3.201577
     10          6           0      -29.596622   -1.422200    2.602370
     11          6           0      -29.110142   -3.915241    2.881525
     12          6           0      -26.570036   -0.952481    3.187645
     13          6           0      -24.982872   -1.140591    3.357110
     14          1           0      -24.035935   -0.109023    2.720519
     15          7           0      -31.817403    0.400115    1.504936
     16          6           0      -31.798666   -0.203032    2.741535
     17          6           0      -33.022105    0.113379    3.409753
     18          6           0      -33.852599    0.885064    2.531366
     19          6           0      -32.995723    1.101150    1.329639
     20          6           0      -33.362124   -0.375115    4.859465
     21          6           0      -35.326761    1.329599    2.847320
     22          8           0      -35.866872    0.946597    3.839130
     23          6           0      -36.096657    1.970176    1.787967
     24          7           0      -31.109270    1.899321   -1.026758
     25          6           0      -32.445163    2.112921   -0.965498
     26          6           0      -33.012249    2.728014   -2.233962
     27          6           0      -31.767909    3.075747   -3.036657
     28          6           0      -30.679301    2.242633   -2.274885
     29          6           0      -33.969749    1.753039   -3.014015
     30          6           0      -31.346171    4.609759   -3.215814
     31          6           0      -31.494474    5.329420   -4.529461
     32          7           0      -28.870857    0.140143   -1.339395
     33          6           0      -28.591156    0.908515   -2.476775
     34          6           0      -27.281813    0.608995   -3.014853
     35          6           0      -26.756755   -0.281624   -2.111033
     36          6           0      -27.718359   -0.543860   -1.080330
     37          6           0      -26.685707    1.228025   -4.209999
     38          6           0      -25.576939   -1.075280   -1.803070
     39          8           0      -24.540474   -1.234364   -2.459706
     40          6           0      -25.906516   -1.854880   -0.547516
     41          6           0      -25.855752   -3.335547   -0.908198
     42          8           0      -26.575342   -3.794133   -1.792546
     43          8           0      -24.833078   -4.001781   -0.215221
     44          6           0      -24.706053   -5.398795   -0.533864
     45          1           0      -30.952759   -1.623132    4.152578
     46          1           0      -34.293911    2.158721    0.108123
     47          1           0      -29.214002    2.373807   -3.855714
     48          1           0      -26.646577   -2.843843    2.197602
     49          1           0      -28.452267   -2.357665    4.267096
     50          1           0      -29.235892   -4.274813    3.902199
     51          1           0      -28.268374   -4.365348    2.354534
     52          1           0      -30.018790   -4.019314    2.288422
     53          1           0      -26.957270   -0.893563    4.204763
     54          1           0      -26.820020   -0.001867    2.717205
     55          1           0      -24.749467   -2.072231    2.841123
     56          1           0      -24.648724   -1.279748    4.384562
     57          1           0      -33.712805    0.363850    5.579256
     58          1           0      -32.440001   -0.812469    5.243617
     59          1           0      -34.112387   -1.165927    4.871536
     60          1           0      -35.653494    2.888222    1.401480
     61          1           0      -37.090926    2.194128    2.174367
     62          1           0      -36.359529    1.241374    1.022483
     63          1           0      -33.642159    3.595408   -2.033818
     64          1           0      -31.825261    2.634878   -4.031883
     65          1           0      -35.026049    1.940351   -2.821780
     66          1           0      -33.651602    0.723221   -2.851733
     67          1           0      -33.817342    1.941888   -4.077628
     68          1           0      -30.402213    4.935954   -2.780520
     69          1           0      -32.112799    5.002116   -2.547123
     70          1           0      -32.238778    6.124811   -4.507841
     71          1           0      -31.803216    4.622238   -5.299693
     72          1           0      -30.498617    5.721427   -4.734824
     73          1           0      -27.150812    2.205045   -4.343973
     74          1           0      -26.989053    0.596970   -5.045855
     75          1           0      -25.598416    1.244306   -4.150483
     76          1           0      -25.073723   -1.604421    0.108225
     77          1           0      -25.458441   -6.039765   -0.073555
     78          1           0      -23.735722   -5.791846   -0.231744
     79          1           0      -24.746993   -5.622313   -1.599570
     80         12           0       30.353654    0.475661    0.068931
     81          6           0       27.460190   -0.840008   -1.394463
     82          6           0       31.713664   -2.657801    0.180296
     83          6           0       32.903485    1.739170    1.755081
     84          6           0       28.734900    3.662515    0.064960
     85          7           0       29.611670   -1.530825   -0.510082
     86          6           0       28.440594   -1.865040   -1.153179
     87          6           0       28.498597   -3.296578   -1.653470
     88          6           0       29.740293   -3.892804   -0.879790
     89          6           0       30.440245   -2.558444   -0.450485
     90          6           0       29.358059   -4.756909    0.315175
     91          6           0       28.476107   -3.317470   -3.225391
     92          6           0       28.746509   -4.723891   -3.828371
     93          1           0       28.307908   -5.914228   -3.000923
     94          7           0       32.020159   -0.317418    0.816116
     95          6           0       32.382750   -1.657414    0.868698
     96          6           0       33.653138   -1.850972    1.589694
     97          6           0       34.005508   -0.531912    2.011120
     98          6           0       32.949379    0.356075    1.532345
     99          6           0       34.322913   -3.167732    1.717252
    100          6           0       35.225740   -0.151340    2.809346
    101          8           0       35.485393    1.048898    3.101433
    102          6           0       36.238192   -1.182583    3.228338
    103          7           0       30.781717    2.461397    0.759742
    104          6           0       31.918646    2.667989    1.424756
    105          6           0       31.975453    4.161181    1.973641
    106          6           0       30.568987    4.794214    1.448220
    107          6           0       29.981573    3.578520    0.730059
    108          6           0       32.130129    4.112063    3.548938
    109          6           0       30.731373    5.994906    0.421031
    110          6           0       30.903151    7.406891    1.051140
    111          7           0       28.509434    1.282540   -0.449075
    112          6           0       28.006873    2.608942   -0.514823
    113          6           0       26.621378    2.598604   -1.159461
    114          6           0       26.331416    1.270083   -1.453504
    115          6           0       27.555054    0.519813   -1.071830
    116          6           0       25.746783    3.771993   -1.472747
    117          6           0       25.386954    0.351500   -2.045010
    118          8           0       24.265636    0.517223   -2.535495
    119          6           0       26.157047   -1.052152   -2.202675
    120          6           0       25.336494   -2.226923   -1.721602
    121          8           0       25.307527   -2.605659   -0.581866
    122          8           0       24.805861   -2.957294   -2.808886
    123          6           0       24.381126   -4.340822   -2.547782
    124          1           0       31.985524   -3.715734    0.187407
    125          1           0       33.740635    2.147333    2.325473
    126          1           0       28.143041    4.578305    0.125652
    127          1           0       27.583256   -3.791699   -1.331770
    128          1           0       30.456636   -4.442341   -1.491352
    129          1           0       29.828386   -5.724243    0.139304
    130          1           0       28.272166   -4.757046    0.406876
    131          1           0       29.864854   -4.457192    1.232159
    132          1           0       29.094453   -2.450954   -3.457616
    133          1           0       27.469144   -3.005372   -3.500330
    134          1           0       29.826098   -4.721695   -3.978912
    135          1           0       28.229901   -4.783699   -4.786201
    136          1           0       34.287112   -3.343263    2.792292
    137          1           0       35.329010   -3.181415    1.298957
    138          1           0       33.855051   -4.052089    1.282788
    139          1           0       36.696661   -1.609334    2.337323
    140          1           0       35.572082   -1.837758    3.791095
    141          1           0       37.007774   -0.852081    3.925365
    142          1           0       32.835185    4.532649    1.414631
    143          1           0       29.782564    4.956538    2.186529
    144          1           0       32.144104    3.107401    3.971152
    145          1           0       31.298411    4.637914    4.018562
    146          1           0       33.115848    4.527851    3.755595
    147          1           0       29.999229    5.952253   -0.384842
    148          1           0       31.668937    5.806907   -0.101155
    149          1           0       31.826035    7.819110    0.644679
    150          1           0       30.878814    7.305998    2.136265
    151          1           0       30.095061    8.082115    0.768773
    152          1           0       25.784642    3.896147   -2.555210
    153          1           0       26.103264    4.659335   -0.948237
    154          1           0       24.684038    3.689540   -1.245938
    155          1           0       26.399806   -1.142606   -3.261045
    156          1           0       23.410388   -4.245269   -2.062055
    157          1           0       25.157032   -4.889459   -2.013482
    158          1           0       24.308080   -4.822919   -3.522272
 ---------------------------------------------------------------------

 SCF Done:  E(RPBE1PBE) =  -4067.39417833     A.U. after   16 cycles

 Excitation energies and oscillator strengths:

 Excited State   1:      Singlet-A      1.8621 eV  665.84 nm  f=0.3790  <S**2>=0.000
     310 -> 316        0.19126
     312 -> 314        0.68810
     312 <- 314       -0.10015
 This state for optimization and/or second-order correction.
 Total Energy, E(TD-HF/TD-DFT) =  -4067.32574849
 Copying the excited state density for this state as the 1-particle RhoCI density.

 Excited State   2:      Singlet-A      1.8785 eV  660.00 nm  f=0.3503  <S**2>=0.000
     309 -> 315       -0.18341
     311 -> 313        0.68998
     311 <- 313       -0.10094

 Excited State   3:      Singlet-A      1.9237 eV  644.50 nm  f=0.0000  <S**2>=0.000
     312 -> 313        0.70711

 Excited State   4:      Singlet-A      2.1666 eV  572.26 nm  f=0.0000  <S**2>=0.000
     311 -> 314        0.70711

 Excited State   5:      Singlet-A      2.2825 eV  543.18 nm  f=0.0466  <S**2>=0.000
     310 -> 314        0.61492
     312 -> 316       -0.34315

 The electronic state is 1-A.
 Alpha  occ. eigenvalues --  -46.92064 -46.91492 -19.26648 -19.24627 -19.20758
 Alpha  occ. eigenvalues --  -19.20460 -19.19409 -19.19300 -19.18907 -19.18586
 Alpha  occ. eigenvalues --  -14.41627 -14.41595 -14.41579 -14.41133 -14.39644
 Alpha  occ. eigenvalues --  -14.39514 -14.39063 -14.38983 -10.37246 -10.36405
 Alpha  occ. eigenvalues --  -10.32680 -10.32330 -10.32205 -10.31632 -10.28962
 Alpha  occ. eigenvalues --  -10.28865 -10.28853 -10.28764 -10.28697 -10.28582
 Alpha  occ. eigenvalues --  -10.28517 -10.28448 -10.28385 -10.28324 -10.28076
 Alpha  occ. eigenvalues --  -10.28068 -10.27908 -10.27748 -10.27424 -10.27282
 Alpha  occ. eigenvalues --  -10.27274 -10.27136 -10.26849 -10.26796 -10.26761
 Alpha  occ. eigenvalues --  -10.26215 -10.26170 -10.26167 -10.26105 -10.25976
 Alpha  occ. eigenvalues --  -10.25967 -10.25942 -10.25925 -10.25701 -10.25673
 Alpha  occ. eigenvalues --  -10.25587 -10.25583 -10.25506 -10.25366 -10.25271
 Alpha  occ. eigenvalues --  -10.25228 -10.24954 -10.24869 -10.24775 -10.24735
 Alpha  occ. eigenvalues --  -10.24538 -10.24507 -10.24494 -10.24467 -10.24366
 Alpha  occ. eigenvalues --  -10.24346 -10.24129 -10.24068 -10.23761 -10.23724
 Alpha  occ. eigenvalues --  -10.23670 -10.23642 -10.23597 -10.23339 -10.23232
 Alpha  occ. eigenvalues --  -10.23107 -10.23073 -10.22991 -10.22883 -10.22841
 Alpha  occ. eigenvalues --  -10.22761  -3.14253  -3.13750  -1.87067  -1.86643
 Alpha  occ. eigenvalues --   -1.86597  -1.86476  -1.86110  -1.86005  -1.10689
 Alpha  occ. eigenvalues --   -1.10185  -1.06692  -1.03846  -1.03767  -1.02981
 Alpha  occ. eigenvalues --   -1.02592  -1.02448  -0.99364  -0.98922  -0.98876
 Alpha  occ. eigenvalues --   -0.98095  -0.97476  -0.97445  -0.96767  -0.96071
 Alpha  occ. eigenvalues --   -0.87360  -0.85949  -0.83435  -0.83252  -0.83156
 Alpha  occ. eigenvalues --   -0.82847  -0.82828  -0.82098  -0.81904  -0.81864
 Alpha  occ. eigenvalues --   -0.81437  -0.81043  -0.80658  -0.79313  -0.78838
 Alpha  occ. eigenvalues --   -0.78503  -0.78503  -0.77234  -0.76802  -0.76745
 Alpha  occ. eigenvalues --   -0.76322  -0.76172  -0.75363  -0.75168  -0.75044
 Alpha  occ. eigenvalues --   -0.74330  -0.73208  -0.72329  -0.71761  -0.71514
 Alpha  occ. eigenvalues --   -0.71272  -0.70693  -0.70570  -0.70076  -0.69437
 Alpha  occ. eigenvalues --   -0.68904  -0.67297  -0.66583  -0.66524  -0.65907
 Alpha  occ. eigenvalues --   -0.63711  -0.63394  -0.63013  -0.62978  -0.62772
 Alpha  occ. eigenvalues --   -0.62479  -0.61483  -0.61216  -0.60247  -0.60070
 Alpha  occ. eigenvalues --   -0.59931  -0.59647  -0.59393  -0.59013  -0.58463
 Alpha  occ. eigenvalues --   -0.58286  -0.57260  -0.55846  -0.55188  -0.54741
 Alpha  occ. eigenvalues --   -0.54598  -0.54063  -0.53723  -0.53468  -0.53259
 Alpha  occ. eigenvalues --   -0.52944  -0.52271  -0.52198  -0.52176  -0.51354
 Alpha  occ. eigenvalues --   -0.50834  -0.50747  -0.50660  -0.50308  -0.49785
 Alpha  occ. eigenvalues --   -0.49376  -0.49157  -0.48737  -0.48563  -0.48466
 Alpha  occ. eigenvalues --   -0.48124  -0.47965  -0.47846  -0.47677  -0.47596
 Alpha  occ. eigenvalues --   -0.47426  -0.47154  -0.47140  -0.46779  -0.46733
 Alpha  occ. eigenvalues --   -0.46502  -0.46345  -0.46301  -0.45973  -0.45735
 Alpha  occ. eigenvalues --   -0.45595  -0.45478  -0.45344  -0.45109  -0.45036
 Alpha  occ. eigenvalues --   -0.44734  -0.44588  -0.44445  -0.44138  -0.44091
 Alpha  occ. eigenvalues --   -0.44035  -0.43885  -0.43882  -0.43656  -0.43637
 Alpha  occ. eigenvalues --   -0.43516  -0.43286  -0.43161  -0.42990  -0.42782
 Alpha  occ. eigenvalues --   -0.42729  -0.42696  -0.42225  -0.42018  -0.41828
 Alpha  occ. eigenvalues --   -0.41526  -0.41287  -0.41013  -0.40987  -0.40923
 Alpha  occ. eigenvalues --   -0.40841  -0.40767  -0.40696  -0.40460  -0.40322
 Alpha  occ. eigenvalues --   -0.40115  -0.39992  -0.39976  -0.39858  -0.39655
 Alpha  occ. eigenvalues --   -0.39428  -0.39202  -0.39057  -0.38984  -0.38974
 Alpha  occ. eigenvalues --   -0.38810  -0.38627  -0.38366  -0.38302  -0.38123
 Alpha  occ. eigenvalues --   -0.37977  -0.37884  -0.37827  -0.37724  -0.37474
 Alpha  occ. eigenvalues --   -0.37378  -0.37222  -0.37170  -0.37028  -0.37014
 Alpha  occ. eigenvalues --   -0.36818  -0.36539  -0.36434  -0.36266  -0.36068
 Alpha  occ. eigenvalues --   -0.35996  -0.35791  -0.35754  -0.35578  -0.35277
 Alpha  occ. eigenvalues --   -0.35266  -0.35069  -0.34920  -0.34129  -0.34051
 Alpha  occ. eigenvalues --   -0.33881  -0.33463  -0.33242  -0.32997  -0.32967
 Alpha  occ. eigenvalues --   -0.32455  -0.32049  -0.31751  -0.31701  -0.31582
 Alpha  occ. eigenvalues --   -0.31191  -0.30927  -0.29898  -0.29689  -0.29386
 Alpha  occ. eigenvalues --   -0.29358  -0.28996  -0.28687  -0.26943  -0.26834
 Alpha  occ. eigenvalues --   -0.26386  -0.26103  -0.25837  -0.25758  -0.25591
 Alpha  occ. eigenvalues --   -0.25565  -0.25250  -0.25191  -0.21271  -0.20884
 Alpha  occ. eigenvalues --   -0.18656  -0.18156
 Alpha virt. eigenvalues --   -0.10866  -0.10475  -0.05630  -0.05536  -0.04401
 Alpha virt. eigenvalues --   -0.03690  -0.02189  -0.01864  -0.00858  -0.00337
 Alpha virt. eigenvalues --   -0.00188   0.00611   0.00769   0.01098   0.01726

 Mulliken charges:
               1
     1  Mg  11.999990
     2  C    5.999726
     3  C    6.000214
     4  C    6.000251
     5  C    5.999851
     6  N    6.999940
     7  C    6.000410
     8  C    6.000000
     9  C    6.000091
    10  C    5.999603
    11  C    6.000028
    12  C    5.999983
    13  C    5.999995
    14  H    0.999974
    15  N    7.000071
    16  C    5.999483
    17  C    5.999732
    18  C    5.999852
    19  C    5.999491
    20  C    6.000073
    21  C    5.999809
    22  O    7.999745
    23  C    6.000117
    24  N    6.999967
    25  C    5.999586
    26  C    6.000121
    27  C    5.999947
    28  C    6.000407
    29  C    6.000050
    30  C    5.999879
    31  C    6.000007
    32  N    7.000015
    33  C    6.000435
    34  C    6.000392
    35  C    5.999981
    36  C    6.000433
    37  C    5.999922
    38  C    6.000329
    39  O    8.000440
    40  C    5.999910
    41  C    6.000092
    42  O    8.000019
    43  O    8.000040
    44  C    5.999958
    45  H    0.999845
    46  H    0.999870
    47  H    1.000127
    48  H    0.999943
    49  H    0.999970
    50  H    0.999976
    51  H    0.999802
    52  H    0.999999
    53  H    1.000155
    54  H    0.999994
    55  H    0.999972
    56  H    1.000058
    57  H    0.999762
    58  H    0.999800
    59  H    0.999738
    60  H    0.999873
    61  H    0.999810
    62  H    0.999865
    63  H    0.999991
    64  H    0.999983
    65  H    1.000013
    66  H    0.999961
    67  H    0.999848
    68  H    1.000009
    69  H    1.000167
    70  H    1.000062
    71  H    1.000015
    72  H    0.999999
    73  H    1.000226
    74  H    1.000257
    75  H    1.000217
    76  H    1.000156
    77  H    1.000075
    78  H    1.000084
    79  H    1.000019
    80  Mg  12.001672
    81  C    6.021854
    82  C    5.992659
    83  C    5.979081
    84  C    6.008543
    85  N    7.010457
    86  C    5.965963
    87  C    6.006516
    88  C    5.992209
    89  C    6.028703
    90  C    5.998199
    91  C    6.003135
    92  C    5.999612
    93  H    0.995365
    94  N    6.995213
    95  C    6.034332
    96  C    6.024050
    97  C    6.014431
    98  C    6.025484
    99  C    5.995250
   100  C    6.011902
   101  O    8.030978
   102  C    5.997397
   103  N    6.996459
   104  C    6.028856
   105  C    5.994998
   106  C    6.008692
   107  C    5.967285
   108  C    5.997512
   109  C    6.006641
   110  C    5.998305
   111  N    7.001652
   112  C    5.965651
   113  C    5.969255
   114  C    5.996692
   115  C    5.975364
   116  C    6.004134
   117  C    5.982044
   118  O    7.969893
   119  C    5.997517
   120  C    5.998772
   121  O    7.992233
   122  O    7.999252
   123  C    6.001858
   124  H    1.012336
   125  H    1.004588
   126  H    0.991219
   127  H    1.000494
   128  H    1.000245
   129  H    1.003382
   130  H    1.014031
   131  H    0.994868
   132  H    0.997921
   133  H    1.006598
   134  H    0.993722
   135  H    1.001401
   136  H    1.016755
   137  H    1.018136
   138  H    1.017230
   139  H    1.006879
   140  H    1.004140
   141  H    1.014014
   142  H    0.997128
   143  H    1.000518
   144  H    0.993724
   145  H    1.009029
   146  H    0.998762
   147  H    1.004508
   148  H    0.990949
   149  H    0.994988
   150  H    0.995521
   151  H    1.000399
   152  H    0.981508
   153  H    0.983781
   154  H    0.982462
   155  H    0.994004
   156  H    0.998668
   157  H    0.993753
   158  H    0.996269
 Sum of Mulliken charges = 624.00000

 Dipole moment (field-independent basis, Debye):
    X=              8.7649    Y=             -4.2261    Z=              3.5563  Tot=             10.3601
 Quadrupole moment (field-independent basis, Debye-Ang):
   XX=            515.6222   YY=             -5.8540   ZZ=              1.7008
   XY=           -126.0836   XZ=            114.8069   YZ=             -0.7349

 Normal termination of Gaussian 16 at Fri Oct 15 16:03:34 2021.
