 Gaussian 16, Revision A.03,
 Gaussian 16:  ES64L-G16RevA.03 25-Dec-2016

 --------------------------------------------------------
 #p PBE1PBE/Def2SVP td=(nstates=5) density=(transition=1)
 --------------------------------------------------------

 --------------------------------
 TDDFT excited states in gaussian
 --------------------------------
 Symbolic Z-matrix:
 Charge =  0 Multiplicity = 1

                         Standard orientation:
 ---------------------------------------------------------------------
 Center     Atomic      Atomic             Coordinates (Angstroms)
 Number     Number       Type             X           Y           Z
 ---------------------------------------------------------------------
      1         12           0      -30.291163   -0.544884    0.598573
      2          6           0      -30.546356    2.388521   -1.473192
      3          6           0      -28.386092   -1.924287   -1.875653
      4          6           0      -30.313321   -3.376401    2.396763
      5          6           0      -32.588057    0.845941    2.682091
      6          7           0      -29.491165    0.231257   -1.502680
      7          6           0      -29.725303    1.464401   -2.038372
      8          6           0      -28.872599    1.586043   -3.243958
      9          6           0      -28.278042    0.168471   -3.470585
     10          6           0      -28.753996   -0.650150   -2.239406
     11          6           0      -28.795307   -0.474646   -4.796592
     12          6           0      -27.822627    2.667956   -3.201782
     13          6           0      -27.066925    3.018312   -4.473437
     14          1           0      -26.986805    4.443994   -4.826907
     15          7           0      -29.384034   -2.329479    0.356361
     16          6           0      -28.697048   -2.761382   -0.811670
     17          6           0      -28.141314   -4.092175   -0.502212
     18          6           0      -28.775045   -4.508073    0.665827
     19          6           0      -29.596801   -3.391897    1.167848
     20          6           0      -27.228888   -4.807771   -1.476325
     21          6           0      -28.639634   -5.836995    1.440136
     22          8           0      -29.413906   -6.199374    2.345623
     23          6           0      -27.497793   -6.699974    1.086850
     24          7           0      -31.360823   -1.235354    2.292206
     25          6           0      -31.225237   -2.403705    2.885233
     26          6           0      -32.149722   -2.580218    4.121048
     27          6           0      -32.649381   -1.145866    4.307267
     28          6           0      -32.141389   -0.462184    3.058569
     29          6           0      -33.306145   -3.596624    3.834736
     30          6           0      -32.219573   -0.430323    5.568078
     31          6           0      -33.295763    0.397216    6.293067
     32          7           0      -31.266842    1.266489    0.650031
     33          6           0      -32.178987    1.685137    1.593954
     34          6           0      -32.630189    3.084865    1.330442
     35          6           0      -31.993282    3.307376    0.126234
     36          6           0      -31.235961    2.202522   -0.281267
     37          6           0      -33.410305    3.997622    2.221112
     38          6           0      -31.833580    4.324472   -0.902592
     39          8           0      -32.297145    5.459261   -0.910676
     40          6           0      -30.883766    3.785638   -1.996832
     41          6           0      -31.550040    3.995703   -3.256784
     42          8           0      -32.499175    3.324860   -3.729261
     43          8           0      -30.896940    4.944825   -3.982796
     44          6           0      -31.238854    5.108756   -5.378834
     45          1           0      -27.705790   -2.347095   -2.617518
     46          1           0      -30.454556   -4.338998    2.892348
     47          1           0      -33.475272    1.097163    3.266736
     48          1           0      -29.596733    1.807346   -4.026927
     49          1           0      -27.189262    0.177809   -3.524188
     50          1           0      -28.138335   -0.906921   -5.551989
     51          1           0      -29.332126    0.335404   -5.290043
     52          1           0      -29.600801   -1.199398   -4.675199
     53          1           0      -27.004196    2.397257   -2.534490
     54          1           0      -28.158965    3.540517   -2.642455
     55          1           0      -27.520559    2.533298   -5.336476
     56          1           0      -26.019251    2.826745   -4.242983
     57          1           0      -27.486720   -5.852872   -1.646488
     58          1           0      -26.174951   -4.778246   -1.200577
     59          1           0      -27.253423   -4.422226   -2.495865
     60          1           0      -26.590281   -6.096542    1.111215
     61          1           0      -27.737708   -6.991589    0.064945
     62          1           0      -27.409223   -7.432913    1.887913
     63          1           0      -31.503314   -2.905995    4.936704
     64          1           0      -33.729405   -1.005969    4.271750
     65          1           0      -34.276745   -3.102331    3.805820
     66          1           0      -33.385790   -4.339480    4.628430
     67          1           0      -33.078649   -4.021548    2.856974
     68          1           0      -31.359632    0.215610    5.393836
     69          1           0      -31.697847   -1.198227    6.138320
     70          1           0      -33.019569    0.412927    7.346928
     71          1           0      -34.310975    0.065445    6.073237
     72          1           0      -33.172897    1.365697    5.808704
     73          1           0      -32.802868    4.724314    2.760915
     74          1           0      -34.042797    3.341195    2.818059
     75          1           0      -34.196116    4.479056    1.637704
     76          1           0      -30.061521    4.500925   -2.014116
     77          1           0      -31.932437    4.362852   -5.767910
     78          1           0      -30.338939    5.190117   -5.987838
     79          1           0      -31.729868    6.063375   -5.569604
     80         12           0       30.979050    0.639125   -0.178957
     81          6           0       28.412777   -1.786630   -0.792440
     82          6           0       28.599637    2.420925    1.740068
     83          6           0       33.490121    2.498640    1.044570
     84          6           0       33.265365   -1.574495   -1.515380
     85          7           0       28.735175    0.372273    0.415648
     86          6           0       27.997772   -0.715930    0.041175
     87          6           0       26.698930   -0.748064    0.831001
     88          6           0       26.717698    0.741011    1.376609
     89          6           0       28.089909    1.270045    1.200039
     90          6           0       25.687394    1.744497    0.757954
     91          6           0       26.714636   -1.938660    1.842620
     92          6           0       25.438163   -2.864607    1.991015
     93          1           0       24.704781   -2.941806    3.342148
     94          7           0       31.051360    2.290879    0.999520
     95          6           0       29.977694    2.903515    1.698016
     96          6           0       30.440192    4.081542    2.408298
     97          6           0       31.879338    4.084550    2.199947
     98          6           0       32.172086    2.926302    1.376603
     99          6           0       29.537423    4.885123    3.248198
    100          6           0       32.801317    5.176201    2.770567
    101          8           0       32.255245    6.029996    3.528661
    102          6           0       34.313834    5.307487    2.492453
    103          7           0       33.148077    0.399748    0.034034
    104          6           0       33.955820    1.372397    0.410640
    105          6           0       35.366894    0.908022    0.246133
    106          6           0       35.246523   -0.367693   -0.629758
    107          6           0       33.767141   -0.600915   -0.650203
    108          6           0       36.471118    1.905931   -0.308982
    109          6           0       36.067712   -1.651816   -0.095334
    110          6           0       37.230976   -2.196972   -0.959665
    111          7           0       30.892182   -1.152135   -1.149610
    112          6           0       31.876768   -1.928349   -1.633005
    113          6           0       31.365867   -3.112268   -2.220542
    114          6           0       29.996978   -3.064673   -1.946797
    115          6           0       29.745251   -1.859058   -1.244382
    116          6           0       32.040151   -4.195275   -2.962625
    117          6           0       28.810208   -3.845538   -2.113815
    118          8           0       28.696467   -4.949646   -2.597091
    119          6           0       27.659432   -3.001369   -1.271203
    120          6           0       26.558562   -2.628459   -2.167460
    121          8           0       26.684687   -2.183473   -3.315327
    122          8           0       25.390145   -2.843564   -1.468139
    123          6           0       24.145936   -2.540648   -2.173467
    124          1           0       27.912289    3.017338    2.341966
    125          1           0       34.347594    3.001681    1.495611
    126          1           0       33.908346   -2.192200   -2.146126
    127          1           0       25.895644   -0.779505    0.094452
    128          1           0       26.602965    0.510230    2.436353
    129          1           0       26.255026    2.584362    0.354751
    130          1           0       24.986081    2.165460    1.478067
    131          1           0       25.119054    1.370992   -0.094406
    132          1           0       26.875120   -1.381145    2.765132
    133          1           0       27.558669   -2.623064    1.760199
    134          1           0       25.781261   -3.854824    1.691819
    135          1           0       24.756584   -2.631755    1.173453
    136          1           0       29.050295    4.185877    3.928208
    137          1           0       28.740910    5.309509    2.637350
    138          1           0       29.949983    5.762430    3.747110
    139          1           0       34.823673    4.504834    3.025545
    140          1           0       34.516337    6.369191    2.629554
    141          1           0       34.374480    5.127116    1.418663
    142          1           0       35.730497    0.664270    1.243604
    143          1           0       35.483882    0.021584   -1.619902
    144          1           0       37.400519    1.553837    0.139318
    145          1           0       36.200944    2.919239   -0.012216
    146          1           0       36.496174    1.766747   -1.389909
    147          1           0       35.295167   -2.408238    0.041882
    148          1           0       36.383919   -1.433868    0.924687
    149          1           0       37.174501   -3.273868   -1.112729
    150          1           0       38.172897   -1.940819   -0.473895
    151          1           0       37.320197   -1.710513   -1.931183
    152          1           0       31.335306   -4.780290   -3.552581
    153          1           0       32.427739   -4.738783   -2.100760
    154          1           0       32.960750   -3.791057   -3.383393
    155          1           0       27.368685   -3.527494   -0.362645
    156          1           0       24.106610   -3.025396   -3.149219
    157          1           0       24.035011   -1.460312   -2.277588
    158          1           0       23.311443   -2.926492   -1.587887
 ---------------------------------------------------------------------

 SCF Done:  E(RPBE1PBE) =  -4067.36950763     A.U. after   16 cycles

 Excitation energies and oscillator strengths:

 Excited State   1:      Singlet-A      1.8632 eV  665.42 nm  f=0.3773  <S**2>=0.000
     309 -> 316       -0.18034
     311 -> 313        0.69249
     311 <- 313       -0.10916
 This state for optimization and/or second-order correction.
 Total Energy, E(TD-HF/TD-DFT) =  -4067.30103461
 Copying the excited state density for this state as the 1-particle RhoCI density.

 Excited State   2:      Singlet-A      1.9149 eV  647.47 nm  f=0.0000  <S**2>=0.000
     312 -> 313        0.70711

 Excited State   3:      Singlet-A      1.9171 eV  646.72 nm  f=0.3714  <S**2>=0.000
     310 -> 315       -0.19068
     312 -> 314        0.68791

 Excited State   4:      Singlet-A      2.1870 eV  566.92 nm  f=0.0000  <S**2>=0.000
     311 -> 314        0.70711

 Excited State   5:      Singlet-A      2.2662 eV  547.11 nm  f=0.1241  <S**2>=0.000
     309 -> 313        0.64980
     311 -> 316        0.26975

 The electronic state is 1-A.
 Alpha  occ. eigenvalues --  -46.92303 -46.91911 -19.26872 -19.25829 -19.20734
 Alpha  occ. eigenvalues --  -19.19979 -19.19225 -19.19097 -19.18866 -19.18436
 Alpha  occ. eigenvalues --  -14.41418 -14.41401 -14.40978 -14.40628 -14.39615
 Alpha  occ. eigenvalues --  -14.39460 -14.39434 -14.39271 -10.37041 -10.36131
 Alpha  occ. eigenvalues --  -10.32595 -10.32488 -10.32342 -10.31655 -10.29634
 Alpha  occ. eigenvalues --  -10.28941 -10.28506 -10.28466 -10.28447 -10.28415
 Alpha  occ. eigenvalues --  -10.28292 -10.28271 -10.28227 -10.28159 -10.28127
 Alpha  occ. eigenvalues --  -10.28058 -10.28051 -10.28045 -10.27828 -10.27448
 Alpha  occ. eigenvalues --  -10.26769 -10.26647 -10.26494 -10.26334 -10.26308
 Alpha  occ. eigenvalues --  -10.26136 -10.26090 -10.25919 -10.25836 -10.25806
 Alpha  occ. eigenvalues --  -10.25784 -10.25617 -10.25596 -10.25456 -10.25434
 Alpha  occ. eigenvalues --  -10.25393 -10.25373 -10.25205 -10.25115 -10.25087
 Alpha  occ. eigenvalues --  -10.25024 -10.24974 -10.24956 -10.24933 -10.24923
 Alpha  occ. eigenvalues --  -10.24913 -10.24815 -10.24704 -10.24509 -10.24308
 Alpha  occ. eigenvalues --  -10.24170 -10.24017 -10.23913 -10.23884 -10.23709
 Alpha  occ. eigenvalues --  -10.23688 -10.23604 -10.23528 -10.23497 -10.23492
 Alpha  occ. eigenvalues --  -10.23421 -10.23334 -10.23185 -10.22542 -10.22361
 Alpha  occ. eigenvalues --  -10.22300  -3.14436  -3.14095  -1.87265  -1.86945
 Alpha  occ. eigenvalues --   -1.86798  -1.86677  -1.86460  -1.86331  -1.11255
 Alpha  occ. eigenvalues --   -1.10900  -1.05589  -1.04240  -1.03730  -1.02920
 Alpha  occ. eigenvalues --   -1.01997  -1.00752  -1.00445  -1.00126  -0.99417
 Alpha  occ. eigenvalues --   -0.99326  -0.98348  -0.97691  -0.97045  -0.96822
 Alpha  occ. eigenvalues --   -0.87565  -0.87497  -0.84438  -0.83683  -0.83594
 Alpha  occ. eigenvalues --   -0.82791  -0.82624  -0.82428  -0.82302  -0.81876
 Alpha  occ. eigenvalues --   -0.81830  -0.81405  -0.80987  -0.80355  -0.78994
 Alpha  occ. eigenvalues --   -0.78953  -0.78351  -0.78121  -0.77226  -0.76990
 Alpha  occ. eigenvalues --   -0.76760  -0.76225  -0.75710  -0.75603  -0.75287
 Alpha  occ. eigenvalues --   -0.74805  -0.72950  -0.72594  -0.72048  -0.71969
 Alpha  occ. eigenvalues --   -0.71774  -0.71206  -0.70886  -0.70592  -0.69722
 Alpha  occ. eigenvalues --   -0.69617  -0.67681  -0.67479  -0.66677  -0.66423
 Alpha  occ. eigenvalues --   -0.64177  -0.63941  -0.63854  -0.63665  -0.62863
 Alpha  occ. eigenvalues --   -0.62510  -0.61229  -0.60949  -0.60866  -0.60600
 Alpha  occ. eigenvalues --   -0.60164  -0.59864  -0.59669  -0.59664  -0.59304
 Alpha  occ. eigenvalues --   -0.59133  -0.57511  -0.57155  -0.54938  -0.54731
 Alpha  occ. eigenvalues --   -0.54568  -0.54515  -0.54076  -0.54066  -0.53483
 Alpha  occ. eigenvalues --   -0.53418  -0.52933  -0.52868  -0.52244  -0.52235
 Alpha  occ. eigenvalues --   -0.51074  -0.50787  -0.50435  -0.50267  -0.50170
 Alpha  occ. eigenvalues --   -0.50106  -0.49451  -0.49129  -0.48981  -0.48586
 Alpha  occ. eigenvalues --   -0.48455  -0.48330  -0.47982  -0.47955  -0.47759
 Alpha  occ. eigenvalues --   -0.47574  -0.47481  -0.47110  -0.46661  -0.46618
 Alpha  occ. eigenvalues --   -0.46504  -0.46329  -0.46245  -0.45941  -0.45887
 Alpha  occ. eigenvalues --   -0.45807  -0.45435  -0.45181  -0.45049  -0.44972
 Alpha  occ. eigenvalues --   -0.44883  -0.44605  -0.44592  -0.44535  -0.44254
 Alpha  occ. eigenvalues --   -0.44239  -0.44046  -0.43649  -0.43493  -0.43294
 Alpha  occ. eigenvalues --   -0.43169  -0.43042  -0.43006  -0.42585  -0.42574
 Alpha  occ. eigenvalues --   -0.42444  -0.42408  -0.42370  -0.42341  -0.42171
 Alpha  occ. eigenvalues --   -0.42031  -0.41915  -0.41766  -0.41719  -0.41386
 Alpha  occ. eigenvalues --   -0.41294  -0.41149  -0.40976  -0.40861  -0.40802
 Alpha  occ. eigenvalues --   -0.40704  -0.40403  -0.40386  -0.40068  -0.39967
 Alpha  occ. eigenvalues --   -0.39890  -0.39800  -0.39343  -0.39328  -0.38780
 Alpha  occ. eigenvalues --   -0.38583  -0.38575  -0.38525  -0.38447  -0.38366
 Alpha  occ. eigenvalues --   -0.38136  -0.38111  -0.38042  -0.37936  -0.37780
 Alpha  occ. eigenvalues --   -0.37660  -0.37361  -0.37238  -0.37220  -0.36933
 Alpha  occ. eigenvalues --   -0.36604  -0.36478  -0.36440  -0.36387  -0.36139
 Alpha  occ. eigenvalues --   -0.36090  -0.35996  -0.35930  -0.35753  -0.35715
 Alpha  occ. eigenvalues --   -0.35295  -0.35195  -0.35055  -0.34911  -0.33951
 Alpha  occ. eigenvalues --   -0.33758  -0.33753  -0.33237  -0.32927  -0.32658
 Alpha  occ. eigenvalues --   -0.32598  -0.32137  -0.31535  -0.31081  -0.31003
 Alpha  occ. eigenvalues --   -0.30877  -0.30604  -0.29936  -0.29288  -0.29085
 Alpha  occ. eigenvalues --   -0.28652  -0.28591  -0.28198  -0.27181  -0.27007
 Alpha  occ. eigenvalues --   -0.26210  -0.26129  -0.25889  -0.25752  -0.25728
 Alpha  occ. eigenvalues --   -0.25415  -0.25214  -0.24918  -0.21161  -0.21021
 Alpha  occ. eigenvalues --   -0.18960  -0.18618
 Alpha virt. eigenvalues --   -0.11366  -0.10707  -0.05252  -0.05236  -0.03942
 Alpha virt. eigenvalues --   -0.03519  -0.02056  -0.01929  -0.00566  -0.00205
 Alpha virt. eigenvalues --   -0.00142   0.00369   0.00879   0.01435   0.01817

 Mulliken charges:
               1
     1  Mg  12.000010
     2  C    6.000069
     3  C    5.999996
     4  C    5.999917
     5  C    6.000018
     6  N    6.999985
     7  C    5.999912
     8  C    6.000005
     9  C    5.999985
    10  C    6.000082
    11  C    5.999983
    12  C    6.000015
    13  C    5.999993
    14  H    0.999995
    15  N    6.999980
    16  C    6.000094
    17  C    6.000073
    18  C    5.999997
    19  C    6.000115
    20  C    5.999956
    21  C    6.000062
    22  O    8.000059
    23  C    5.999986
    24  N    6.999980
    25  C    6.000078
    26  C    5.999983
    27  C    6.000017
    28  C    5.999887
    29  C    6.000008
    30  C    6.000033
    31  C    6.000005
    32  N    6.999975
    33  C    5.999998
    34  C    5.999879
    35  C    6.000067
    36  C    5.999904
    37  C    6.000024
    38  C    5.999897
    39  O    7.999929
    40  C    6.000023
    41  C    5.999996
    42  O    7.999985
    43  O    7.999994
    44  C    6.000010
    45  H    1.000036
    46  H    1.000016
    47  H    0.999958
    48  H    1.000005
    49  H    1.000014
    50  H    1.000021
    51  H    1.000027
    52  H    1.000003
    53  H    0.999983
    54  H    1.000012
    55  H    1.000000
    56  H    0.999997
    57  H    1.000054
    58  H    1.000059
    59  H    1.000047
    60  H    1.000023
    61  H    1.000026
    62  H    1.000046
    63  H    0.999996
    64  H    0.999998
    65  H    1.000018
    66  H    1.000000
    67  H    0.999985
    68  H    0.999989
    69  H    0.999964
    70  H    0.999976
    71  H    0.999990
    72  H    1.000010
    73  H    0.999934
    74  H    0.999961
    75  H    0.999950
    76  H    0.999978
    77  H    0.999994
    78  H    0.999988
    79  H    0.999984
    80  Mg  11.999546
    81  C    6.013487
    82  C    5.981820
    83  C    5.984566
    84  C    6.019868
    85  N    6.995804
    86  C    5.974076
    87  C    6.007276
    88  C    5.991508
    89  C    6.029767
    90  C    5.997801
    91  C    6.007265
    92  C    6.000597
    93  H    0.990277
    94  N    6.997201
    95  C    6.045650
    96  C    6.019591
    97  C    6.011415
    98  C    6.031595
    99  C    5.996100
   100  C    6.012749
   101  O    8.022113
   102  C    6.001858
   103  N    7.000214
   104  C    6.031443
   105  C    5.989627
   106  C    6.010737
   107  C    5.965548
   108  C    5.998486
   109  C    6.001484
   110  C    6.001099
   111  N    7.000385
   112  C    5.964915
   113  C    5.972090
   114  C    5.996052
   115  C    5.972150
   116  C    5.998781
   117  C    5.984205
   118  O    7.973554
   119  C    5.995982
   120  C    5.995069
   121  O    7.995593
   122  O    7.997447
   123  C    6.002249
   124  H    1.008132
   125  H    1.007219
   126  H    0.993587
   127  H    1.000323
   128  H    1.001912
   129  H    0.995104
   130  H    1.001413
   131  H    1.012190
   132  H    0.988146
   133  H    1.005119
   134  H    1.003467
   135  H    1.000065
   136  H    1.018927
   137  H    1.019518
   138  H    1.013205
   139  H    1.010438
   140  H    1.011488
   141  H    1.007507
   142  H    1.001065
   143  H    0.997852
   144  H    1.005288
   145  H    0.992625
   146  H    1.006827
   147  H    1.005765
   148  H    0.990968
   149  H    1.002156
   150  H    0.994380
   151  H    0.998781
   152  H    0.987394
   153  H    0.981418
   154  H    0.981506
   155  H    0.990598
   156  H    0.998162
   157  H    0.993573
   158  H    0.994843
 Sum of Mulliken charges = 624.00000

 Dipole moment (field-independent basis, Debye):
    X=              1.0721    Y=              8.9027    Z=              5.1359  Tot=             10.3337
 Quadrupole moment (field-independent basis, Debye-Ang):
   XX=             61.7075   YY=              9.1693   ZZ=              1.0272
   XY=            276.1999   XZ=            158.9902   YZ=              4.4774

 Normal termination of Gaussian 16 at Fri Oct 15 04:38:44 2021.
