 Gaussian 16, Revision A.03,
 Gaussian 16:  ES64L-G16RevA.03 25-Dec-2016

 --------------------------------------------------------
 #p PBE1PBE/Def2SVP td=(nstates=5) density=(transition=1)
 --------------------------------------------------------

 --------------------------------
 TDDFT excited states in gaussian
 --------------------------------
 Symbolic Z-matrix:
 Charge =  0 Multiplicity = 1

                         Standard orientation:
 ---------------------------------------------------------------------
 Center     Atomic      Atomic             Coordinates (Angstroms)
 Number     Number       Type             X           Y           Z
 ---------------------------------------------------------------------
      1         12           0       -8.658928    0.423920   -0.424652
      2          6           0       -7.382948   -0.589418    2.564498
      3          6           0       -7.214382    3.521081    0.167057
      4          6           0       -9.589518    1.295125   -3.530711
      5          6           0       -9.491249   -2.902815   -1.215756
      6          7           0       -7.210112    1.268098    1.085403
      7          6           0       -6.895791    0.632944    2.232207
      8          6           0       -5.939570    1.404128    3.066648
      9          6           0       -6.209623    2.908874    2.437910
     10          6           0       -6.937660    2.575881    1.118590
     11          6           0       -6.995725    3.837971    3.409413
     12          6           0       -4.523452    0.912991    2.811394
     13          6           0       -3.960700    0.894271    1.315166
     14          1           0       -2.521659    1.303844    1.027404
     15          7           0       -8.439513    2.149659   -1.531528
     16          6           0       -7.928976    3.386483   -1.062596
     17          6           0       -8.223084    4.363185   -2.057435
     18          6           0       -8.850669    3.777102   -3.149675
     19          6           0       -9.041210    2.361823   -2.790148
     20          6           0       -7.810374    5.796574   -1.791249
     21          6           0       -9.200139    4.425192   -4.468037
     22          8           0       -8.895051    5.639188   -4.574578
     23          6           0       -9.640118    3.751696   -5.643561
     24          7           0       -9.230636   -0.718246   -2.200000
     25          6           0       -9.627342   -0.090516   -3.344066
     26          6           0      -10.105681   -1.109345   -4.406083
     27          6           0      -10.059939   -2.463618   -3.621328
     28          6           0       -9.490051   -2.027761   -2.282054
     29          6           0      -11.460442   -0.777789   -4.994512
     30          6           0       -9.155006   -3.561377   -4.398219
     31          6           0       -9.751126   -4.973685   -4.400971
     32          7           0       -8.510439   -1.474516    0.460448
     33          6           0       -9.051936   -2.678954    0.143034
     34          6           0       -8.952487   -3.504112    1.316106
     35          6           0       -8.331647   -2.746104    2.368472
     36          6           0       -8.063662   -1.525985    1.770188
     37          6           0       -9.187461   -4.975333    1.355679
     38          6           0       -7.796349   -2.717601    3.691607
     39          8           0       -7.862897   -3.656952    4.494445
     40          6           0       -7.207199   -1.330620    3.870651
     41          6           0       -7.880610   -0.676343    5.018794
     42          8           0       -7.856252   -1.216750    6.107066
     43          8           0       -8.404250    0.550391    4.745840
     44          6           0       -9.051531    1.216501    5.877758
     45          1           0       -7.008239    4.550512    0.467056
     46          1           0      -10.095796    1.646276   -4.432093
     47          1           0       -9.885485   -3.916494   -1.316388
     48          1           0       -6.064725    1.379863    4.149215
     49          1           0       -5.276195    3.466426    2.350487
     50          1           0       -6.412299    4.733087    3.621893
     51          1           0       -7.112900    3.288744    4.343986
     52          1           0       -7.991541    4.119816    3.064880
     53          1           0       -4.433287   -0.060368    3.294059
     54          1           0       -3.944391    1.519692    3.507496
     55          1           0       -4.499281    1.515370    0.599316
     56          1           0       -4.014411   -0.167524    1.076503
     57          1           0       -6.769550    5.860674   -2.109102
     58          1           0       -7.848925    5.980887   -0.718363
     59          1           0       -8.399789    6.570394   -2.283988
     60          1           0       -9.325853    4.270704   -6.549632
     61          1           0      -10.700651    3.497031   -5.630184
     62          1           0       -9.040086    2.843452   -5.679861
     63          1           0       -9.316365   -1.068333   -5.157495
     64          1           0      -11.076984   -2.796176   -3.414555
     65          1           0      -11.862551    0.181486   -4.669719
     66          1           0      -12.273807   -1.502872   -4.986481
     67          1           0      -11.212487   -0.536561   -6.028574
     68          1           0       -8.146010   -3.664141   -3.998747
     69          1           0       -8.947728   -3.266795   -5.426831
     70          1           0      -10.114347   -5.183682   -5.406623
     71          1           0      -10.635507   -4.970243   -3.763465
     72          1           0       -9.033997   -5.739288   -4.104460
     73          1           0      -10.212724   -5.325111    1.241046
     74          1           0       -8.780531   -5.301647    2.313515
     75          1           0       -8.656170   -5.497237    0.559712
     76          1           0       -6.153534   -1.478668    4.109030
     77          1           0       -8.314119    1.306487    6.675913
     78          1           0       -9.966126    0.722878    6.206709
     79          1           0       -9.469361    2.175313    5.571189
     80         12           0        8.911904    0.137986    0.024537
     81          6           0        6.508669   -2.359867    0.304918
     82          6           0        6.770069    2.309067    1.587167
     83          6           0       11.174511    2.617011   -0.566454
     84          6           0       10.853733   -2.218353   -1.794884
     85          7           0        6.871335    0.003310    0.815925
     86          6           0        6.156493   -1.160926    0.917592
     87          6           0        4.877754   -0.818369    1.686015
     88          6           0        4.859560    0.695337    1.802781
     89          6           0        6.293476    1.024242    1.403182
     90          6           0        3.828167    1.493173    1.051001
     91          6           0        4.677319   -1.594552    3.073679
     92          6           0        3.496668   -1.097733    3.968601
     93          1           0        2.107007   -1.766333    3.801629
     94          7           0        9.003828    2.132657    0.589922
     95          6           0        8.023012    2.849395    1.193106
     96          6           0        8.504014    4.202747    1.293822
     97          6           0        9.779242    4.282445    0.660850
     98          6           0       10.037308    3.003386    0.171198
     99          6           0        7.676010    5.253248    1.967347
    100          6           0       10.610278    5.576432    0.420771
    101          8           0       11.499165    5.623204   -0.410650
    102          6           0       10.323850    6.847624    1.065677
    103          7           0       10.641975    0.164450   -0.969186
    104          6           0       11.461062    1.289319   -1.061354
    105          6           0       12.772435    1.003441   -1.813543
    106          6           0       12.740994   -0.559299   -1.918731
    107          6           0       11.323233   -0.894096   -1.485453
    108          6           0       13.042679    1.823641   -3.006499
    109          6           0       13.881691   -1.434164   -1.154829
    110          6           0       14.802989   -2.371065   -1.941771
    111          7           0        8.722729   -1.926756   -0.698714
    112          6           0        9.591772   -2.694660   -1.421847
    113          6           0        9.062661   -3.997196   -1.649031
    114          6           0        7.825953   -3.952589   -0.898682
    115          6           0        7.641641   -2.625859   -0.418074
    116          6           0        9.771221   -5.070339   -2.384130
    117          6           0        6.727099   -4.766506   -0.432127
    118          8           0        6.456223   -5.948515   -0.513305
    119          6           0        5.793636   -3.700012    0.393122
    120          6           0        4.377794   -3.757651   -0.051705
    121          8           0        4.004012   -3.416090   -1.152320
    122          8           0        3.554814   -4.217415    0.907025
    123          6           0        2.067043   -4.081305    0.665847
    124          1           0        6.113721    2.991275    2.131967
    125          1           0       11.879243    3.430936   -0.748079
    126          1           0       11.602553   -2.791994   -2.345361
    127          1           0        4.133320   -1.175002    0.974300
    128          1           0        4.667104    0.973673    2.838623
    129          1           0        4.468300    1.914272    0.276364
    130          1           0        3.317528    2.220739    1.682036
    131          1           0        3.119386    0.859254    0.517767
    132          1           0        5.629890   -1.403189    3.568187
    133          1           0        4.543169   -2.659084    2.885296
    134          1           0        3.286300   -0.041241    3.807048
    135          1           0        3.802195   -1.201511    5.009739
    136          1           0        6.746836    4.948371    2.449797
    137          1           0        7.357041    5.926170    1.172085
    138          1           0        8.248999    5.871143    2.658998
    139          1           0        9.305647    7.235028    1.080675
    140          1           0       10.958008    7.680619    0.762538
    141          1           0       10.658146    6.659985    2.085824
    142          1           0       13.457083    1.285129   -1.013071
    143          1           0       12.747144   -0.653492   -3.004517
    144          1           0       13.909859    2.483423   -2.967534
    145          1           0       12.160726    2.439219   -3.185408
    146          1           0       13.237226    1.245145   -3.909514
    147          1           0       13.373365   -2.056490   -0.418586
    148          1           0       14.606889   -0.892150   -0.546675
    149          1           0       14.557607   -3.430390   -1.861779
    150          1           0       15.868237   -2.185975   -1.806543
    151          1           0       14.613546   -2.194867   -3.000711
    152          1           0       10.190907   -4.644849   -3.295373
    153          1           0        9.137222   -5.934238   -2.581885
    154          1           0       10.689588   -5.283857   -1.836273
    155          1           0        5.807702   -4.046283    1.426055
    156          1           0        1.659232   -4.819909    1.355591
    157          1           0        1.860925   -4.314740   -0.378527
    158          1           0        1.791495   -3.075034    0.981772
 ---------------------------------------------------------------------

 SCF Done:  E(RPBE1PBE) =  -4067.37998254     A.U. after   16 cycles

 Excitation energies and oscillator strengths:

 Excited State   1:      Singlet-A      1.7289 eV  717.11 nm  f=0.0000  <S**2>=0.000
     312 -> 313        0.70708
 This state for optimization and/or second-order correction.
 Total Energy, E(TD-HF/TD-DFT) =  -4067.31644535
 Copying the excited state density for this state as the 1-particle RhoCI density.

 Excited State   2:      Singlet-A      1.8564 eV  667.87 nm  f=0.3127  <S**2>=0.000
     310 -> 316       -0.17148
     312 -> 314        0.68855
     312 <- 314       -0.11090

 Excited State   3:      Singlet-A      1.8914 eV  655.50 nm  f=0.4254  <S**2>=0.000
     309 -> 315       -0.16914
     311 -> 313        0.68741
     311 <- 313       -0.10752

 Excited State   4:      Singlet-A      2.0067 eV  617.85 nm  f=0.0000  <S**2>=0.000
     311 -> 314        0.70709

 Excited State   5:      Singlet-A      2.2081 eV  561.50 nm  f=0.1198  <S**2>=0.000
     309 -> 313        0.65823
     311 -> 315        0.22015

 The electronic state is 1-A.
 Alpha  occ. eigenvalues --  -46.92536 -46.91227 -19.27146 -19.24973 -19.19848
 Alpha  occ. eigenvalues --  -19.19249 -19.18876 -19.18754 -19.18403 -19.18294
 Alpha  occ. eigenvalues --  -14.42182 -14.41626 -14.41558 -14.41505 -14.39446
 Alpha  occ. eigenvalues --  -14.38692 -14.38446 -14.38062 -10.36606 -10.34879
 Alpha  occ. eigenvalues --  -10.32665 -10.31863 -10.31803 -10.31760 -10.30067
 Alpha  occ. eigenvalues --  -10.29322 -10.29289 -10.29217 -10.28894 -10.28821
 Alpha  occ. eigenvalues --  -10.28805 -10.28738 -10.28375 -10.28108 -10.28051
 Alpha  occ. eigenvalues --  -10.27937 -10.27407 -10.27285 -10.27194 -10.27048
 Alpha  occ. eigenvalues --  -10.26777 -10.26702 -10.26337 -10.26279 -10.26266
 Alpha  occ. eigenvalues --  -10.26241 -10.26137 -10.26006 -10.25960 -10.25907
 Alpha  occ. eigenvalues --  -10.25763 -10.25754 -10.25749 -10.25719 -10.25283
 Alpha  occ. eigenvalues --  -10.25277 -10.25081 -10.25060 -10.25053 -10.24982
 Alpha  occ. eigenvalues --  -10.24965 -10.24943 -10.24940 -10.24856 -10.24731
 Alpha  occ. eigenvalues --  -10.24692 -10.24673 -10.24666 -10.24637 -10.24540
 Alpha  occ. eigenvalues --  -10.24476 -10.24471 -10.24332 -10.24002 -10.23904
 Alpha  occ. eigenvalues --  -10.23687 -10.23659 -10.23394 -10.23164 -10.23060
 Alpha  occ. eigenvalues --  -10.23002 -10.22998 -10.22924 -10.22921 -10.22606
 Alpha  occ. eigenvalues --  -10.22528  -3.14571  -3.13465  -1.87386  -1.86964
 Alpha  occ. eigenvalues --   -1.86776  -1.86323  -1.85842  -1.85690  -1.12302
 Alpha  occ. eigenvalues --   -1.10530  -1.05667  -1.04224  -1.03979  -1.02999
 Alpha  occ. eigenvalues --   -1.02969  -1.01473  -0.99815  -0.99642  -0.99197
 Alpha  occ. eigenvalues --   -0.98761  -0.97911  -0.97616  -0.96964  -0.96040
 Alpha  occ. eigenvalues --   -0.88618  -0.86756  -0.83604  -0.83431  -0.83348
 Alpha  occ. eigenvalues --   -0.83134  -0.82993  -0.82608  -0.82172  -0.81844
 Alpha  occ. eigenvalues --   -0.81220  -0.80963  -0.80577  -0.80233  -0.79458
 Alpha  occ. eigenvalues --   -0.78864  -0.78490  -0.77952  -0.77558  -0.77134
 Alpha  occ. eigenvalues --   -0.76764  -0.76658  -0.75875  -0.75663  -0.75343
 Alpha  occ. eigenvalues --   -0.75042  -0.73093  -0.73041  -0.72310  -0.72081
 Alpha  occ. eigenvalues --   -0.71524  -0.71422  -0.70561  -0.70142  -0.69486
 Alpha  occ. eigenvalues --   -0.69353  -0.67200  -0.67071  -0.66620  -0.66231
 Alpha  occ. eigenvalues --   -0.64549  -0.63689  -0.63633  -0.63256  -0.63233
 Alpha  occ. eigenvalues --   -0.62677  -0.61596  -0.61311  -0.61003  -0.60051
 Alpha  occ. eigenvalues --   -0.59894  -0.59879  -0.59846  -0.59063  -0.59005
 Alpha  occ. eigenvalues --   -0.58712  -0.58483  -0.55926  -0.55037  -0.54846
 Alpha  occ. eigenvalues --   -0.54312  -0.54240  -0.53896  -0.53552  -0.53405
 Alpha  occ. eigenvalues --   -0.53323  -0.53082  -0.52734  -0.52534  -0.51635
 Alpha  occ. eigenvalues --   -0.51367  -0.51189  -0.50935  -0.50489  -0.50297
 Alpha  occ. eigenvalues --   -0.49791  -0.49693  -0.49318  -0.49230  -0.49030
 Alpha  occ. eigenvalues --   -0.48948  -0.48508  -0.48349  -0.47844  -0.47745
 Alpha  occ. eigenvalues --   -0.47741  -0.47325  -0.47101  -0.47030  -0.46874
 Alpha  occ. eigenvalues --   -0.46679  -0.46570  -0.46441  -0.46129  -0.45842
 Alpha  occ. eigenvalues --   -0.45830  -0.45564  -0.45563  -0.45387  -0.45039
 Alpha  occ. eigenvalues --   -0.44814  -0.44779  -0.44525  -0.44269  -0.44109
 Alpha  occ. eigenvalues --   -0.44015  -0.43881  -0.43856  -0.43648  -0.43538
 Alpha  occ. eigenvalues --   -0.43437  -0.43405  -0.43279  -0.43163  -0.42873
 Alpha  occ. eigenvalues --   -0.42827  -0.42383  -0.42322  -0.42108  -0.41832
 Alpha  occ. eigenvalues --   -0.41764  -0.41554  -0.41541  -0.41311  -0.41179
 Alpha  occ. eigenvalues --   -0.41174  -0.41068  -0.40930  -0.40807  -0.40751
 Alpha  occ. eigenvalues --   -0.40578  -0.40499  -0.40090  -0.39870  -0.39777
 Alpha  occ. eigenvalues --   -0.39654  -0.39540  -0.39519  -0.39500  -0.39388
 Alpha  occ. eigenvalues --   -0.39196  -0.39008  -0.38835  -0.38477  -0.38471
 Alpha  occ. eigenvalues --   -0.38411  -0.38046  -0.37769  -0.37624  -0.37498
 Alpha  occ. eigenvalues --   -0.37452  -0.37191  -0.37139  -0.36826  -0.36743
 Alpha  occ. eigenvalues --   -0.36692  -0.36608  -0.36259  -0.36205  -0.36149
 Alpha  occ. eigenvalues --   -0.36085  -0.35870  -0.35775  -0.35312  -0.35246
 Alpha  occ. eigenvalues --   -0.35057  -0.34528  -0.34415  -0.34174  -0.34146
 Alpha  occ. eigenvalues --   -0.33780  -0.33719  -0.32899  -0.32786  -0.32654
 Alpha  occ. eigenvalues --   -0.32551  -0.32266  -0.32042  -0.31879  -0.31302
 Alpha  occ. eigenvalues --   -0.31133  -0.30908  -0.29848  -0.29446  -0.29257
 Alpha  occ. eigenvalues --   -0.29213  -0.28632  -0.27819  -0.27441  -0.26573
 Alpha  occ. eigenvalues --   -0.26034  -0.25644  -0.25506  -0.25403  -0.25308
 Alpha  occ. eigenvalues --   -0.25152  -0.24871  -0.24635  -0.21265  -0.21081
 Alpha  occ. eigenvalues --   -0.19320  -0.18735
 Alpha virt. eigenvalues --   -0.11634  -0.11194  -0.05462  -0.05335  -0.04111
 Alpha virt. eigenvalues --   -0.03553  -0.02417  -0.01686  -0.01444   0.00429
 Alpha virt. eigenvalues --    0.00618   0.00870   0.01218   0.01402   0.01689

 Mulliken charges:
               1
     1  Mg  12.000000
     2  C    6.000001
     3  C    6.000001
     4  C    5.999999
     5  C    5.999998
     6  N    7.000001
     7  C    6.000000
     8  C    6.000000
     9  C    6.000000
    10  C    5.999998
    11  C    6.000000
    12  C    6.000000
    13  C    5.999999
    14  H    0.999998
    15  N    7.000000
    16  C    5.999998
    17  C    5.999999
    18  C    5.999999
    19  C    5.999999
    20  C    6.000000
    21  C    5.999999
    22  O    7.999999
    23  C    6.000000
    24  N    6.999999
    25  C    5.999999
    26  C    6.000000
    27  C    6.000000
    28  C    6.000001
    29  C    6.000000
    30  C    6.000000
    31  C    6.000000
    32  N    7.000000
    33  C    6.000001
    34  C    6.000000
    35  C    6.000000
    36  C    6.000000
    37  C    6.000000
    38  C    6.000000
    39  O    8.000001
    40  C    6.000000
    41  C    6.000000
    42  O    8.000000
    43  O    8.000000
    44  C    6.000000
    45  H    1.000000
    46  H    0.999999
    47  H    1.000000
    48  H    1.000000
    49  H    1.000000
    50  H    1.000000
    51  H    1.000000
    52  H    1.000000
    53  H    1.000000
    54  H    1.000001
    55  H    1.000001
    56  H    1.000000
    57  H    0.999999
    58  H    0.999999
    59  H    1.000000
    60  H    1.000000
    61  H    1.000000
    62  H    1.000000
    63  H    1.000000
    64  H    1.000000
    65  H    1.000000
    66  H    1.000000
    67  H    1.000000
    68  H    1.000000
    69  H    1.000000
    70  H    1.000000
    71  H    1.000000
    72  H    1.000000
    73  H    1.000001
    74  H    1.000000
    75  H    1.000001
    76  H    1.000000
    77  H    1.000000
    78  H    1.000000
    79  H    1.000000
    80  Mg  12.000000
    81  C    5.999999
    82  C    6.000002
    83  C    6.000000
    84  C    6.000000
    85  N    6.999999
    86  C    6.000004
    87  C    6.000000
    88  C    5.999999
    89  C    5.999999
    90  C    6.000008
    91  C    6.000000
    92  C    6.000000
    93  H    1.000000
    94  N    7.000000
    95  C    5.999997
    96  C    6.000000
    97  C    6.000000
    98  C    6.000000
    99  C    6.000000
   100  C    6.000000
   101  O    7.999999
   102  C    6.000000
   103  N    7.000001
   104  C    5.999999
   105  C    6.000000
   106  C    5.999999
   107  C    6.000003
   108  C    6.000000
   109  C    6.000000
   110  C    6.000000
   111  N    6.999999
   112  C    6.000003
   113  C    6.000002
   114  C    6.000001
   115  C    6.000002
   116  C    6.000000
   117  C    6.000001
   118  O    8.000002
   119  C    6.000001
   120  C    6.000000
   121  O    8.000001
   122  O    8.000000
   123  C    6.000000
   124  H    1.000000
   125  H    0.999999
   126  H    1.000000
   127  H    1.000001
   128  H    1.000001
   129  H    0.999999
   130  H    0.999997
   131  H    0.999992
   132  H    1.000000
   133  H    1.000000
   134  H    1.000000
   135  H    1.000000
   136  H    0.999999
   137  H    0.999999
   138  H    0.999999
   139  H    1.000000
   140  H    0.999999
   141  H    1.000000
   142  H    1.000000
   143  H    1.000000
   144  H    1.000000
   145  H    1.000000
   146  H    0.999999
   147  H    1.000000
   148  H    1.000001
   149  H    1.000000
   150  H    1.000000
   151  H    1.000000
   152  H    1.000001
   153  H    1.000001
   154  H    1.000001
   155  H    1.000000
   156  H    1.000000
   157  H    1.000000
   158  H    1.000000
 Sum of Mulliken charges = 624.00000

 Dipole moment (field-independent basis, Debye):
    X=              0.0009    Y=             -0.0008    Z=              0.0001  Tot=              0.0012
 Quadrupole moment (field-independent basis, Debye-Ang):
   XX=              0.0004   YY=             -0.0002   ZZ=             -0.0002
   XY=             -0.0030   XZ=             -0.0037   YZ=              0.0005

 Normal termination of Gaussian 16 at Fri Oct 15 00:08:08 2021.
