 Gaussian 16, Revision A.03,
 Gaussian 16:  ES64L-G16RevA.03 25-Dec-2016

 --------------------------------------------------------
 #p PBE1PBE/Def2SVP td=(nstates=5) density=(transition=1)
 --------------------------------------------------------

 --------------------------------
 TDDFT excited states in gaussian
 --------------------------------
 Symbolic Z-matrix:
 Charge =  0 Multiplicity = 1

                         Standard orientation:
 ---------------------------------------------------------------------
 Center     Atomic      Atomic             Coordinates (Angstroms)
 Number     Number       Type             X           Y           Z
 ---------------------------------------------------------------------
      1         12           0       22.019403   -0.676792    0.395776
      2          6           0       22.001177    2.290888   -1.437437
      3          6           0       22.310526    1.063624    3.217668
      4          6           0       23.343536   -3.478119    1.839498
      5          6           0       21.765132   -2.455423   -2.588866
      6          7           0       21.975226    1.472890    0.853317
      7          6           0       21.946257    2.457778   -0.036259
      8          6           0       21.802289    3.826447    0.722534
      9          6           0       22.017270    3.405618    2.196105
     10          6           0       22.135138    1.886785    2.111580
     11          6           0       23.394303    3.938618    2.835030
     12          6           0       20.407420    4.574609    0.517783
     13          6           0       20.574387    6.045055    0.342241
     14          1           0       19.756424    6.999598    1.198410
     15          7           0       22.701760   -1.130715    2.278734
     16          6           0       22.722405   -0.265512    3.340427
     17          6           0       22.953554   -1.037421    4.569356
     18          6           0       23.254812   -2.363787    4.151608
     19          6           0       23.150655   -2.339696    2.683149
     20          6           0       22.978402   -0.391870    5.991568
     21          6           0       23.687358   -3.583700    5.019663
     22          8           0       23.923603   -4.699357    4.569832
     23          6           0       23.794688   -3.390192    6.485026
     24          7           0       22.507138   -2.609877   -0.248059
     25          6           0       23.116649   -3.622939    0.498217
     26          6           0       23.506958   -4.794995   -0.439793
     27          6           0       22.442392   -4.675626   -1.616771
     28          6           0       22.226940   -3.145074   -1.446169
     29          6           0       24.992773   -4.771463   -0.858297
     30          6           0       21.152902   -5.429573   -1.456236
     31          6           0       20.056581   -4.910361   -0.574129
     32          7           0       21.701550   -0.260908   -1.602135
     33          6           0       21.656809   -1.064083   -2.718178
     34          6           0       21.465326   -0.287932   -3.945481
     35          6           0       21.697567    1.093256   -3.508134
     36          6           0       21.843867    1.018443   -2.068243
     37          6           0       21.357080   -0.810122   -5.285497
     38          6           0       21.836927    2.479475   -3.937425
     39          8           0       21.865364    2.982824   -4.997361
     40          6           0       21.963234    3.328173   -2.567063
     41          6           0       23.088352    4.331968   -2.559166
     42          8           0       24.223473    4.120257   -2.142810
     43          8           0       22.594144    5.555535   -3.010047
     44          6           0       23.528485    6.694982   -3.052120
     45          1           0       22.229838    1.448926    4.236593
     46          1           0       23.786721   -4.328488    2.362634
     47          1           0       21.593488   -3.073842   -3.471940
     48          1           0       22.606344    4.520051    0.475287
     49          1           0       21.257644    3.730084    2.907272
     50          1           0       23.168037    4.889101    3.318662
     51          1           0       24.181949    4.170652    2.118643
     52          1           0       23.713376    3.217174    3.588147
     53          1           0       19.741659    4.426570    1.368210
     54          1           0       19.802278    4.220739   -0.317011
     55          1           0       20.203087    6.213781   -0.668216
     56          1           0       21.584644    6.452161    0.373236
     57          1           0       24.014408   -0.101417    6.163737
     58          1           0       22.571763   -1.065608    6.746156
     59          1           0       22.531807    0.602001    6.036348
     60          1           0       24.224222   -2.484454    6.912804
     61          1           0       24.367889   -4.208091    6.920878
     62          1           0       22.845136   -3.655916    6.950493
     63          1           0       23.280250   -5.678850    0.155758
     64          1           0       22.860754   -4.955334   -2.583477
     65          1           0       25.199435   -4.799914   -1.928166
     66          1           0       25.616969   -5.464291   -0.293520
     67          1           0       25.447919   -3.829792   -0.551886
     68          1           0       21.273716   -6.452571   -1.101948
     69          1           0       20.710317   -5.538579   -2.446460
     70          1           0       19.420895   -4.382888   -1.285083
     71          1           0       20.355880   -4.182380    0.180223
     72          1           0       19.535457   -5.751626   -0.116038
     73          1           0       20.656472   -0.153737   -5.801963
     74          1           0       20.921677   -1.805950   -5.206517
     75          1           0       22.327655   -0.782914   -5.779838
     76          1           0       21.035076    3.888862   -2.456294
     77          1           0       24.401575    6.367379   -3.617116
     78          1           0       23.868505    6.955087   -2.050051
     79          1           0       23.200654    7.645097   -3.474235
     80         12           0      -22.046871   -0.635672   -0.480828
     81          6           0      -23.681217    2.014661    1.137727
     82          6           0      -20.477097    1.485388   -2.520050
     83          6           0      -20.698808   -3.211879   -1.901920
     84          6           0      -24.535788   -2.766951    1.052671
     85          7           0      -22.193365    1.503162   -0.695805
     86          6           0      -22.749829    2.402344    0.125553
     87          6           0      -22.545766    3.813575   -0.361910
     88          6           0      -21.860879    3.590292   -1.769687
     89          6           0      -21.469275    2.128891   -1.666974
     90          6           0      -22.685912    3.909011   -3.058598
     91          6           0      -21.539503    4.609919    0.616201
     92          6           0      -22.059411    6.027610    1.023136
     93          1           0      -21.184515    6.658704    2.236670
     94          7           0      -20.620404   -0.818256   -1.788896
     95          6           0      -20.029527    0.188743   -2.532924
     96          6           0      -18.877014   -0.353350   -3.198440
     97          6           0      -18.847866   -1.798319   -3.031587
     98          6           0      -20.025699   -2.025771   -2.109457
     99          6           0      -18.007634    0.587051   -4.081708
    100          6           0      -17.955449   -2.936608   -3.513047
    101          8           0      -18.042176   -4.133180   -3.182962
    102          6           0      -16.837381   -2.461124   -4.371627
    103          7           0      -22.700301   -2.636837   -0.504280
    104          6           0      -21.893978   -3.485890   -1.221355
    105          6           0      -22.468821   -4.902741   -1.237558
    106          6           0      -23.482012   -4.833431   -0.064936
    107          6           0      -23.647910   -3.328205    0.152954
    108          6           0      -23.003400   -5.252639   -2.682875
    109          6           0      -23.061360   -5.589150    1.266420
    110          6           0      -24.199331   -6.030579    2.200638
    111          7           0      -23.750201   -0.470697    0.861445
    112          6           0      -24.605926   -1.407462    1.356628
    113          6           0      -25.506776   -0.830666    2.329292
    114          6           0      -25.103412    0.517006    2.306928
    115          6           0      -24.084405    0.703922    1.361996
    116          6           0      -26.627469   -1.446535    3.198165
    117          6           0      -25.365195    1.790707    2.916950
    118          8           0      -26.013504    2.133560    3.870751
    119          6           0      -24.536008    2.856926    2.029666
    120          6           0      -23.966285    3.702139    3.082332
    121          8           0      -22.935366    3.514966    3.776754
    122          8           0      -24.802467    4.750494    3.175099
    123          6           0      -24.522543    5.772916    4.184231
    124          1           0      -19.891145    2.176696   -3.129558
    125          1           0      -20.199918   -4.088968   -2.319861
    126          1           0      -25.200164   -3.470205    1.559122
    127          1           0      -23.449720    4.420659   -0.418360
    128          1           0      -20.912800    4.104647   -1.927934
    129          1           0      -22.909762    2.962374   -3.550370
    130          1           0      -22.017724    4.504268   -3.680682
    131          1           0      -23.642719    4.419364   -2.954029
    132          1           0      -20.511204    4.705841    0.265636
    133          1           0      -21.374538    3.958082    1.474175
    134          1           0      -23.099427    5.975771    1.344624
    135          1           0      -21.975266    6.792131    0.251159
    136          1           0      -17.226592    1.009746   -3.451227
    137          1           0      -18.507140    1.517609   -4.354043
    138          1           0      -17.718752    0.217122   -5.065199
    139          1           0      -16.151142   -1.770491   -3.882800
    140          1           0      -17.372432   -2.028570   -5.217917
    141          1           0      -16.234807   -3.266571   -4.792412
    142          1           0      -21.624030   -5.555478   -1.017246
    143          1           0      -24.415094   -5.307262   -0.369664
    144          1           0      -24.093293   -5.255623   -2.690950
    145          1           0      -22.732589   -6.211999   -3.123011
    146          1           0      -22.798827   -4.526942   -3.470307
    147          1           0      -22.547444   -4.809413    1.829215
    148          1           0      -22.409582   -6.457724    1.169824
    149          1           0      -24.180105   -5.497299    3.151969
    150          1           0      -24.284862   -7.082382    2.474346
    151          1           0      -25.112934   -5.676407    1.725217
    152          1           0      -26.956707   -2.338253    2.664737
    153          1           0      -27.451492   -0.744444    3.331982
    154          1           0      -26.160452   -1.731154    4.140968
    155          1           0      -25.228766    3.463510    1.446094
    156          1           0      -24.212069    6.684662    3.674211
    157          1           0      -23.846150    5.413812    4.959154
    158          1           0      -25.464124    6.045206    4.660918
 ---------------------------------------------------------------------

 SCF Done:  E(RPBE1PBE) =  -4067.37822673     A.U. after   16 cycles

 Excitation energies and oscillator strengths:

 Excited State   1:      Singlet-A      1.8399 eV  673.85 nm  f=0.3602  <S**2>=0.000
     310 -> 316       -0.17114
     312 -> 314        0.69448
     312 <- 314       -0.11328
 This state for optimization and/or second-order correction.
 Total Energy, E(TD-HF/TD-DFT) =  -4067.31061006
 Copying the excited state density for this state as the 1-particle RhoCI density.

 Excited State   2:      Singlet-A      1.8754 eV  661.09 nm  f=0.3745  <S**2>=0.000
     309 -> 315        0.18965
     311 -> 313        0.68797

 Excited State   3:      Singlet-A      1.9404 eV  638.95 nm  f=0.0000  <S**2>=0.000
     312 -> 313        0.70711

 Excited State   4:      Singlet-A      2.0566 eV  602.85 nm  f=0.0000  <S**2>=0.000
     311 -> 314        0.70711

 Excited State   5:      Singlet-A      2.2462 eV  551.98 nm  f=0.0666  <S**2>=0.000
     309 -> 313        0.63543
     311 -> 315       -0.29950

 The electronic state is 1-A.
 Alpha  occ. eigenvalues --  -46.91343 -46.90998 -19.25627 -19.25526 -19.20238
 Alpha  occ. eigenvalues --  -19.19825 -19.19770 -19.19467 -19.19302 -19.18694
 Alpha  occ. eigenvalues --  -14.42075 -14.41635 -14.41296 -14.41031 -14.39130
 Alpha  occ. eigenvalues --  -14.38935 -14.38917 -14.38103 -10.36623 -10.35567
 Alpha  occ. eigenvalues --  -10.33040 -10.32840 -10.32540 -10.31851 -10.29453
 Alpha  occ. eigenvalues --  -10.29020 -10.28995 -10.28974 -10.28498 -10.28400
 Alpha  occ. eigenvalues --  -10.28301 -10.28237 -10.28231 -10.28081 -10.27834
 Alpha  occ. eigenvalues --  -10.27733 -10.27660 -10.27615 -10.27363 -10.27232
 Alpha  occ. eigenvalues --  -10.27136 -10.27035 -10.26971 -10.26587 -10.26582
 Alpha  occ. eigenvalues --  -10.26243 -10.26229 -10.26189 -10.26098 -10.25974
 Alpha  occ. eigenvalues --  -10.25951 -10.25753 -10.25747 -10.25678 -10.25615
 Alpha  occ. eigenvalues --  -10.25589 -10.25555 -10.25525 -10.25518 -10.25395
 Alpha  occ. eigenvalues --  -10.25208 -10.25063 -10.25046 -10.24941 -10.24922
 Alpha  occ. eigenvalues --  -10.24469 -10.24458 -10.24322 -10.24142 -10.24116
 Alpha  occ. eigenvalues --  -10.23988 -10.23951 -10.23799 -10.23734 -10.23506
 Alpha  occ. eigenvalues --  -10.23469 -10.23445 -10.23386 -10.23269 -10.23174
 Alpha  occ. eigenvalues --  -10.23151 -10.23111 -10.23037 -10.22847 -10.22244
 Alpha  occ. eigenvalues --  -10.21961  -3.13621  -3.13412  -1.86466  -1.86239
 Alpha  occ. eigenvalues --   -1.85972  -1.85872  -1.85799  -1.85651  -1.10718
 Alpha  occ. eigenvalues --   -1.09835  -1.07633  -1.05575  -1.04950  -1.04037
 Alpha  occ. eigenvalues --   -1.02207  -1.00325  -0.99859  -0.99801  -0.98998
 Alpha  occ. eigenvalues --   -0.98283  -0.98223  -0.97583  -0.97047  -0.96806
 Alpha  occ. eigenvalues --   -0.87114  -0.86145  -0.83436  -0.83327  -0.82860
 Alpha  occ. eigenvalues --   -0.82542  -0.82376  -0.82365  -0.81804  -0.81442
 Alpha  occ. eigenvalues --   -0.81249  -0.81182  -0.80631  -0.80612  -0.78825
 Alpha  occ. eigenvalues --   -0.78463  -0.78129  -0.77863  -0.76826  -0.76702
 Alpha  occ. eigenvalues --   -0.76471  -0.76075  -0.75641  -0.75290  -0.74725
 Alpha  occ. eigenvalues --   -0.74636  -0.72582  -0.72471  -0.71646  -0.71565
 Alpha  occ. eigenvalues --   -0.71220  -0.71048  -0.70248  -0.70108  -0.69747
 Alpha  occ. eigenvalues --   -0.69235  -0.67258  -0.66694  -0.66608  -0.65928
 Alpha  occ. eigenvalues --   -0.63606  -0.63602  -0.63216  -0.62944  -0.62316
 Alpha  occ. eigenvalues --   -0.62109  -0.61632  -0.61155  -0.60490  -0.60135
 Alpha  occ. eigenvalues --   -0.60016  -0.59443  -0.59185  -0.59023  -0.58807
 Alpha  occ. eigenvalues --   -0.58561  -0.56370  -0.56365  -0.54789  -0.54759
 Alpha  occ. eigenvalues --   -0.54387  -0.54105  -0.53772  -0.53454  -0.53276
 Alpha  occ. eigenvalues --   -0.52765  -0.52638  -0.52314  -0.51631  -0.51572
 Alpha  occ. eigenvalues --   -0.50919  -0.50447  -0.50405  -0.50077  -0.50056
 Alpha  occ. eigenvalues --   -0.49829  -0.49333  -0.48890  -0.48607  -0.48502
 Alpha  occ. eigenvalues --   -0.48186  -0.47945  -0.47929  -0.47677  -0.47482
 Alpha  occ. eigenvalues --   -0.47468  -0.47106  -0.47065  -0.46779  -0.46734
 Alpha  occ. eigenvalues --   -0.46241  -0.46237  -0.46169  -0.45963  -0.45891
 Alpha  occ. eigenvalues --   -0.45759  -0.45601  -0.45234  -0.45048  -0.44993
 Alpha  occ. eigenvalues --   -0.44774  -0.44756  -0.44632  -0.44583  -0.44171
 Alpha  occ. eigenvalues --   -0.44145  -0.44037  -0.43836  -0.43730  -0.43528
 Alpha  occ. eigenvalues --   -0.43282  -0.43089  -0.42988  -0.42718  -0.42662
 Alpha  occ. eigenvalues --   -0.42648  -0.42453  -0.42131  -0.41976  -0.41660
 Alpha  occ. eigenvalues --   -0.41604  -0.41411  -0.41333  -0.41211  -0.41111
 Alpha  occ. eigenvalues --   -0.41009  -0.40802  -0.40611  -0.40488  -0.40447
 Alpha  occ. eigenvalues --   -0.40282  -0.40232  -0.39954  -0.39813  -0.39700
 Alpha  occ. eigenvalues --   -0.39659  -0.39477  -0.39161  -0.38962  -0.38924
 Alpha  occ. eigenvalues --   -0.38590  -0.38585  -0.38403  -0.38292  -0.38189
 Alpha  occ. eigenvalues --   -0.38098  -0.37944  -0.37717  -0.37703  -0.37665
 Alpha  occ. eigenvalues --   -0.37518  -0.37435  -0.37052  -0.36874  -0.36756
 Alpha  occ. eigenvalues --   -0.36695  -0.36417  -0.36325  -0.36240  -0.36188
 Alpha  occ. eigenvalues --   -0.36025  -0.36023  -0.35703  -0.35529  -0.35407
 Alpha  occ. eigenvalues --   -0.35209  -0.35177  -0.34526  -0.34049  -0.33689
 Alpha  occ. eigenvalues --   -0.33627  -0.33004  -0.32839  -0.32698  -0.32448
 Alpha  occ. eigenvalues --   -0.32026  -0.31939  -0.31631  -0.31449  -0.30947
 Alpha  occ. eigenvalues --   -0.30484  -0.30366  -0.29531  -0.29466  -0.29252
 Alpha  occ. eigenvalues --   -0.29190  -0.28370  -0.27879  -0.26991  -0.26806
 Alpha  occ. eigenvalues --   -0.26415  -0.26223  -0.26034  -0.25979  -0.25677
 Alpha  occ. eigenvalues --   -0.25581  -0.25219  -0.25158  -0.21119  -0.20915
 Alpha  occ. eigenvalues --   -0.18799  -0.18444
 Alpha virt. eigenvalues --   -0.11016  -0.10946  -0.05752  -0.04914  -0.04477
 Alpha virt. eigenvalues --   -0.03843  -0.01959  -0.01939  -0.00169   0.00145
 Alpha virt. eigenvalues --    0.00162   0.00833   0.00948   0.01403   0.01482

 Mulliken charges:
               1
     1  Mg  12.001677
     2  C    5.975762
     3  C    5.995322
     4  C    6.028998
     5  C    6.007056
     6  N    6.988054
     7  C    6.033244
     8  C    5.990446
     9  C    6.008201
    10  C    5.974193
    11  C    6.006276
    12  C    5.998370
    13  C    5.999915
    14  H    1.005215
    15  N    7.004621
    16  C    5.966946
    17  C    5.977997
    18  C    5.988371
    19  C    5.960707
    20  C    6.001461
    21  C    5.986175
    22  O    7.972235
    23  C    6.009605
    24  N    7.017902
    25  C    5.963919
    26  C    6.003870
    27  C    5.991760
    28  C    6.020583
    29  C    5.998939
    30  C    5.994534
    31  C    5.996842
    32  N    6.997853
    33  C    6.023906
    34  C    6.035954
    35  C    6.003853
    36  C    6.027341
    37  C    5.995292
    38  C    6.014939
    39  O    8.023781
    40  C    6.004259
    41  C    6.002785
    42  O    8.008601
    43  O    8.000156
    44  C    5.997954
    45  H    0.988645
    46  H    0.996062
    47  H    1.014248
    48  H    1.000170
    49  H    0.995594
    50  H    0.990179
    51  H    0.988037
    52  H    1.007003
    53  H    1.007048
    54  H    0.993181
    55  H    0.995425
    56  H    1.001031
    57  H    0.982706
    58  H    0.985156
    59  H    0.983821
    60  H    0.994429
    61  H    0.986045
    62  H    0.989262
    63  H    1.003670
    64  H    1.001987
    65  H    0.989465
    66  H    1.003038
    67  H    1.001606
    68  H    1.011580
    69  H    0.998638
    70  H    0.993590
    71  H    1.011984
    72  H    1.007278
    73  H    1.017952
    74  H    1.015462
    75  H    1.023394
    76  H    1.006173
    77  H    1.000795
    78  H    1.006110
    79  H    1.003364
    80  Mg  12.000024
    81  C    5.999804
    82  C    6.000134
    83  C    6.000101
    84  C    5.999809
    85  N    6.999996
    86  C    6.000362
    87  C    5.999887
    88  C    6.000074
    89  C    5.999641
    90  C    6.000025
    91  C    5.999982
    92  C    5.999976
    93  H    1.000062
    94  N    7.000026
    95  C    5.999712
    96  C    5.999752
    97  C    5.999810
    98  C    5.999832
    99  C    6.000071
   100  C    5.999843
   101  O    7.999702
   102  C    6.000063
   103  N    6.999905
   104  C    5.999770
   105  C    6.000073
   106  C    5.999906
   107  C    6.000351
   108  C    6.000039
   109  C    5.999974
   110  C    5.999983
   111  N    7.000031
   112  C    6.000334
   113  C    6.000316
   114  C    6.000003
   115  C    6.000267
   116  C    5.999987
   117  C    6.000205
   118  O    8.000294
   119  C    6.000000
   120  C    6.000033
   121  O    8.000087
   122  O    8.000005
   123  C    5.999960
   124  H    0.999884
   125  H    0.999930
   126  H    1.000115
   127  H    1.000013
   128  H    1.000006
   129  H    1.000001
   130  H    0.999960
   131  H    0.999881
   132  H    1.000101
   133  H    0.999985
   134  H    0.999965
   135  H    1.000034
   136  H    0.999799
   137  H    0.999810
   138  H    0.999800
   139  H    0.999898
   140  H    0.999920
   141  H    0.999808
   142  H    1.000028
   143  H    1.000043
   144  H    0.999896
   145  H    0.999974
   146  H    1.000036
   147  H    1.000022
   148  H    1.000118
   149  H    0.999992
   150  H    1.000074
   151  H    0.999972
   152  H    1.000148
   153  H    1.000146
   154  H    1.000199
   155  H    1.000077
   156  H    1.000059
   157  H    1.000046
   158  H    1.000046
 Sum of Mulliken charges = 624.00000

 Dipole moment (field-independent basis, Debye):
    X=             -2.0073    Y=              1.4274    Z=             -9.8575  Tot=             10.1606
 Quadrupole moment (field-independent basis, Debye-Ang):
   XX=            -82.8650   YY=              0.5543   ZZ=             -7.1475
   XY=             35.3419   XZ=           -224.8749   YZ=              6.6112

 Normal termination of Gaussian 16 at Thu Oct 14 03:59:41 2021.
