 Gaussian 16, Revision A.03,
 Gaussian 16:  ES64L-G16RevA.03 25-Dec-2016

 ---------------------------------------------------
 #p PBE1PBE/Def2SVP td=(nstates=5) density=(current)
 ---------------------------------------------------

 --------------------------------
 TDDFT excited states in gaussian
 --------------------------------
 Symbolic Z-matrix:
 Charge =  0 Multiplicity = 1

                         Standard orientation:
 ---------------------------------------------------------------------
 Center     Atomic      Atomic             Coordinates (Angstroms)
 Number     Number       Type             X           Y           Z
 ---------------------------------------------------------------------
      1         12           0       -0.617414   -0.003160   -0.204000
      2          6           0        2.858463   -0.024695    0.207207
      3          6           0       -0.487750   -3.392977    0.469052
      4          6           0       -3.955218   -0.023627   -0.229476
      5          6           0       -0.596427    3.487371   -0.013895
      6          7           0        1.124587   -1.536149    0.505438
      7          6           0        2.450485   -1.302971    0.466746
      8          6           0        3.286687   -2.510832    0.815264
      9          6           0        2.156498   -3.585028    0.584382
     10          6           0        0.820990   -2.848642    0.562210
     11          6           0        2.357383   -4.278149   -0.789671
     12          6           0        3.939171   -2.359296    2.195220
     13          6           0        3.143243   -1.725766    3.355229
     14          1           0        3.159561   -2.492983    4.672041
     15          7           0       -2.012613   -1.474990    0.064123
     16          6           0       -1.737109   -2.808991    0.207853
     17          6           0       -2.938566   -3.581749   -0.133425
     18          6           0       -4.036194   -2.632828   -0.193597
     19          6           0       -3.334093   -1.314538   -0.133653
     20          6           0       -3.001357   -5.153566   -0.027823
     21          6           0       -5.528301   -2.958221   -0.297555
     22          8           0       -5.896502   -4.085854   -0.475401
     23          6           0       -6.544559   -1.855357   -0.224185
     24          7           0       -2.071951    1.585255    0.090635
     25          6           0       -3.450166    1.352619   -0.072912
     26          6           0       -4.311947    2.684981   -0.035032
     27          6           0       -3.161143    3.800412   -0.027317
     28          6           0       -1.836612    2.907923   -0.024104
     29          6           0       -5.457221    2.944967   -1.136198
     30          6           0       -3.198588    4.889149    1.139830
     31          6           0       -2.652085    6.305540    0.609569
     32          7           0        0.813667    1.507115   -0.007713
     33          6           0        0.672833    2.879635   -0.038526
     34          6           0        1.993906    3.495988   -0.026258
     35          6           0        2.934224    2.433973    0.003379
     36          6           0        2.153226    1.225701    0.094273
     37          6           0        2.303530    4.958874   -0.207862
     38          6           0        4.366801    2.002190    0.098824
     39          8           0        5.374525    2.659585    0.234558
     40          6           0        4.317455    0.416997    0.173859
     41          6           0        5.051552   -0.092551   -1.035902
     42          8           0        6.303437   -0.110733   -1.141985
     43          8           0        4.148738   -0.661244   -1.922627
     44          6           0        4.725943   -1.387270   -3.004169
     45          1           0       -0.440863   -4.477317    0.590031
     46          1           0       -5.019938    0.092335   -0.443564
     47          1           0       -0.597792    4.570068   -0.156989
     48          1           0        4.037484   -2.715806    0.052352
     49          1           0        2.058205   -4.387126    1.314617
     50          1           0        1.356040   -4.503438   -1.157432
     51          1           0        3.029469   -5.129790   -0.694195
     52          1           0        2.729065   -3.692671   -1.631192
     53          1           0        4.770627   -1.670193    2.050410
     54          1           0        4.312835   -3.336614    2.500951
     55          1           0        2.093365   -1.664795    3.069694
     56          1           0        3.581650   -0.752275    3.572917
     57          1           0       -3.095869   -5.545325    0.985307
     58          1           0       -2.115982   -5.585133   -0.494806
     59          1           0       -3.780907   -5.641785   -0.611536
     60          1           0       -7.562046   -2.241804   -0.156771
     61          1           0       -6.498328   -1.171841   -1.072224
     62          1           0       -6.334015   -1.426462    0.755879
     63          1           0       -4.761401    2.575281    0.951196
     64          1           0       -3.144713    4.350758   -0.967594
     65          1           0       -6.382903    2.531697   -0.737366
     66          1           0       -5.206725    2.482607   -2.090562
     67          1           0       -5.533628    4.019229   -1.305437
     68          1           0       -2.487575    4.642515    1.928250
     69          1           0       -4.193955    4.960588    1.578981
     70          1           0       -1.763958    6.613042    1.161783
     71          1           0       -3.422636    7.063926    0.745017
     72          1           0       -2.271959    6.378309   -0.408823
     73          1           0        1.804932    5.515775    0.584739
     74          1           0        1.915073    5.298004   -1.168411
     75          1           0        3.368925    5.171665   -0.121347
     76          1           0        4.950658    0.177777    1.027928
     77          1           0        3.933007   -1.868109   -3.576552
     78          1           0        5.515506   -2.053547   -2.656222
     79          1           0        5.160015   -0.726888   -3.754839
 ---------------------------------------------------------------------

 SCF Done:  E(RPBE1PBE) =  -2033.68213762     A.U. after   16 cycles

 Excitation energies and oscillator strengths:

 Excited State   1:      Singlet-A      1.8968 eV  653.64 nm  f=0.3484  <S**2>=0.000
     155 ->158        -0.18772
     156 ->157         0.68733
 This state for optimization and/or second-order correction.
 Total Energy, E(TD-HF/TD-DFT) =  -2033.61243075
 Copying the excited state density for this state as the 1-particle RhoCI density.

 Excited State   2:      Singlet-A      2.2341 eV  554.97 nm  f=0.1044  <S**2>=0.000
     155 ->157         0.64924
     156 ->158         0.26858

 Excited State   3:      Singlet-A      3.0771 eV  402.92 nm  f=0.0013  <S**2>=0.000
     152 ->157        -0.22014
     152 ->159        -0.10017
     154 ->157         0.63400
     156 ->158        -0.14701

 Excited State   4:      Singlet-A      3.1273 eV  396.46 nm  f=0.0002  <S**2>=0.000
     151 ->157        -0.15786
     153 ->157         0.65278
     153 ->159        -0.12831
     153 ->160        -0.10024

 Excited State   5:      Singlet-A      3.2175 eV  385.35 nm  f=0.0005  <S**2>=0.000
     151 ->157        -0.13805
     152 ->157         0.62128
     152 ->159         0.10759
     154 ->157         0.23918

 The electronic state is 1-A.
 Alpha  occ. eigenvalues --  -46.93791 -19.26697 -19.20284 -19.19884 -19.19113
 Alpha  occ. eigenvalues --  -14.41864 -14.41199 -14.40061 -14.39226 -10.37026
 Alpha  occ. eigenvalues --  -10.33082 -10.32325 -10.30488 -10.29304 -10.29188
 Alpha  occ. eigenvalues --  -10.28738 -10.28447 -10.28361 -10.28061 -10.27710
 Alpha  occ. eigenvalues --  -10.27507 -10.27193 -10.27052 -10.26871 -10.26241
 Alpha  occ. eigenvalues --  -10.26226 -10.26148 -10.26020 -10.26019 -10.25701
 Alpha  occ. eigenvalues --  -10.25582 -10.25505 -10.25463 -10.25283 -10.25209
 Alpha  occ. eigenvalues --  -10.24486 -10.23941 -10.23886 -10.23817 -10.23801
 Alpha  occ. eigenvalues --  -10.23606 -10.23524 -10.23459  -3.15738  -1.88539
 Alpha  occ. eigenvalues --   -1.88131  -1.87949  -1.11230  -1.06146  -1.05528
 Alpha  occ. eigenvalues --   -1.01864  -0.99340  -0.98439  -0.97687  -0.96634
 Alpha  occ. eigenvalues --   -0.86890  -0.83277  -0.82596  -0.82007  -0.81702
 Alpha  occ. eigenvalues --   -0.80492  -0.79815  -0.79105  -0.77667  -0.76872
 Alpha  occ. eigenvalues --   -0.76074  -0.75149  -0.74739  -0.71845  -0.71604
 Alpha  occ. eigenvalues --   -0.70929  -0.70716  -0.69659  -0.67311  -0.66473
 Alpha  occ. eigenvalues --   -0.64250  -0.63776  -0.62758  -0.61546  -0.60345
 Alpha  occ. eigenvalues --   -0.59431  -0.59324  -0.59168  -0.58302  -0.54568
 Alpha  occ. eigenvalues --   -0.53881  -0.53466  -0.52824  -0.52304  -0.51913
 Alpha  occ. eigenvalues --   -0.50774  -0.50623  -0.50069  -0.49634  -0.48839
 Alpha  occ. eigenvalues --   -0.48351  -0.47797  -0.47500  -0.47316  -0.46541
 Alpha  occ. eigenvalues --   -0.46176  -0.46024  -0.45748  -0.45342  -0.45166
 Alpha  occ. eigenvalues --   -0.44627  -0.44545  -0.44328  -0.44126  -0.43601
 Alpha  occ. eigenvalues --   -0.43365  -0.43062  -0.42224  -0.41967  -0.41906
 Alpha  occ. eigenvalues --   -0.41590  -0.41347  -0.41080  -0.40790  -0.40493
 Alpha  occ. eigenvalues --   -0.40264  -0.40118  -0.39954  -0.39620  -0.39031
 Alpha  occ. eigenvalues --   -0.38807  -0.38673  -0.38439  -0.38168  -0.37992
 Alpha  occ. eigenvalues --   -0.37799  -0.37638  -0.37195  -0.37042  -0.36856
 Alpha  occ. eigenvalues --   -0.36627  -0.36149  -0.35274  -0.34838  -0.34190
 Alpha  occ. eigenvalues --   -0.33893  -0.33147  -0.32254  -0.32211  -0.31728
 Alpha  occ. eigenvalues --   -0.31375  -0.29796  -0.29453  -0.28703  -0.26926
 Alpha  occ. eigenvalues --   -0.26185  -0.26069  -0.25764  -0.25448  -0.20982
 Alpha  occ. eigenvalues --   -0.19034
 Alpha virt. eigenvalues --   -0.11163  -0.05540  -0.04132  -0.02402  -0.01983
 Alpha virt. eigenvalues --   -0.00128   0.01142   0.01976   0.03012   0.04280
 Alpha virt. eigenvalues --    0.04527   0.05080   0.05666   0.05859   0.07029

 Mulliken charges:
               1
     1  Mg   0.949896
     2  C    0.102913
     3  C   -0.080114
     4  C   -0.098804
     5  C   -0.081702
     6  N   -0.328828
     7  C   -0.051997
     8  C   -0.004736
     9  C   -0.143739
    10  C    0.050845
    11  C    0.007013
    12  C    0.007841
    13  C   -0.155127
    14  H    0.040964
    15  N   -0.491212
    16  C    0.184558
    17  C   -0.154705
    18  C   -0.102671
    19  C    0.214987
    20  C    0.034498
    21  C    0.036055
    22  O   -0.210321
    23  C   -0.026845
    24  N   -0.404187
    25  C    0.031796
    26  C   -0.086343
    27  C   -0.111647
    28  C    0.092727
    29  C   -0.007664
    30  C   -0.023960
    31  C   -0.109135
    32  N   -0.474811
    33  C    0.157179
    34  C   -0.219041
    35  C   -0.014009
    36  C    0.107362
    37  C    0.062145
    38  C    0.150990
    39  O   -0.185142
    40  C   -0.248936
    41  C    0.319217
    42  O   -0.272169
    43  O   -0.353857
    44  C    0.128504
    45  H    0.011366
    46  H   -0.011416
    47  H   -0.007775
    48  H    0.046490
    49  H    0.038216
    50  H    0.036159
    51  H    0.055400
    52  H    0.035628
    53  H    0.050264
    54  H    0.053906
    55  H    0.083200
    56  H    0.066503
    57  H    0.064261
    58  H    0.029427
    59  H    0.057716
    60  H    0.045986
    61  H    0.081529
    62  H    0.058667
    63  H    0.067506
    64  H    0.057214
    65  H    0.056813
    66  H    0.054790
    67  H    0.056590
    68  H    0.059584
    69  H    0.052914
    70  H    0.045086
    71  H    0.050387
    72  H    0.046912
    73  H    0.043989
    74  H    0.057779
    75  H    0.063454
    76  H    0.092589
    77  H    0.052390
    78  H    0.058318
    79  H    0.050366
 Sum of Mulliken charges =  -0.00000

 Dipole moment (field-independent basis, Debye):
    X=             -4.4494    Y=              1.2526    Z=             -1.6953  Tot=              4.9235
 Quadrupole moment (field-independent basis, Debye-Ang):
   XX=           -296.7453   YY=           -243.1181   ZZ=           -250.0561
   XY=            -52.2925   XZ=             -3.2674   YZ=             -1.3229

 Normal termination of Gaussian 16 at Wed Oct 13 17:54:43 2021.
