 Gaussian 16, Revision A.03,
 Gaussian 16:  ES64L-G16RevA.03 25-Dec-2016

 --------------------------------------------------------
 #p PBE1PBE/Def2SVP td=(nstates=5) density=(transition=1)
 --------------------------------------------------------

 --------------------------------
 TDDFT excited states in gaussian
 --------------------------------
 Symbolic Z-matrix:
 Charge =  0 Multiplicity = 1

                         Standard orientation:
 ---------------------------------------------------------------------
 Center     Atomic      Atomic             Coordinates (Angstroms)
 Number     Number       Type             X           Y           Z
 ---------------------------------------------------------------------
      1         12           0      -13.584388   -0.529058   -0.277973
      2          6           0      -12.065032    1.849431    1.663653
      3          6           0      -15.380604    1.845144   -1.806417
      4          6           0      -15.161783   -3.004570   -1.935326
      5          6           0      -11.996261   -3.078276    1.771080
      6          7           0      -13.882640    1.629216    0.127959
      7          6           0      -13.089621    2.410291    0.871330
      8          6           0      -13.477369    3.965180    0.677257
      9          6           0      -14.546985    3.835029   -0.470769
     10          6           0      -14.672059    2.321830   -0.739798
     11          6           0      -15.868220    4.570223   -0.172815
     12          6           0      -12.269973    4.871457    0.304200
     13          6           0      -12.561639    6.301386   -0.257180
     14          1           0      -12.366913    7.524191    0.717561
     15          7           0      -15.117086   -0.572699   -1.657790
     16          6           0      -15.650850    0.484094   -2.234204
     17          6           0      -16.604510    0.034182   -3.236849
     18          6           0      -16.665746   -1.391815   -3.244333
     19          6           0      -15.616027   -1.717943   -2.254134
     20          6           0      -17.533164    0.932404   -4.037129
     21          6           0      -17.578824   -2.345696   -4.007535
     22          8           0      -17.687021   -3.521971   -3.673320
     23          6           0      -18.347053   -1.823573   -5.170868
     24          7           0      -13.606263   -2.737925   -0.066370
     25          6           0      -14.298564   -3.505009   -0.900109
     26          6           0      -13.968231   -4.996288   -0.722720
     27          6           0      -12.831469   -4.918165    0.293044
     28          6           0      -12.843516   -3.494404    0.708365
     29          6           0      -15.109902   -5.946644   -0.332246
     30          6           0      -11.545232   -5.553278   -0.171261
     31          6           0      -11.046497   -6.793059    0.653502
     32          7           0      -12.289672   -0.634987    1.300645
     33          6           0      -11.652773   -1.720654    1.990336
     34          6           0      -10.679688   -1.234818    2.943817
     35          6           0      -10.838054    0.171127    2.794680
     36          6           0      -11.804949    0.459163    1.823225
     37          6           0       -9.648994   -1.941608    3.751543
     38          6           0      -10.175184    1.383537    3.204046
     39          8           0       -9.133873    1.631209    3.830293
     40          6           0      -10.965410    2.535627    2.635635
     41          6           0      -11.728826    3.219781    3.791063
     42          8           0      -12.336948    2.674189    4.724628
     43          8           0      -11.629685    4.567019    3.607578
     44          6           0      -12.265141    5.457745    4.629708
     45          1           0      -15.931394    2.523836   -2.461004
     46          1           0      -15.755247   -3.857512   -2.271112
     47          1           0      -11.455296   -3.896625    2.249611
     48          1           0      -13.940517    4.235286    1.625583
     49          1           0      -14.106985    4.254450   -1.375500
     50          1           0      -16.159804    5.079182   -1.090888
     51          1           0      -15.743058    5.342860    0.585859
     52          1           0      -16.641688    3.869156    0.141035
     53          1           0      -11.809815    4.386808   -0.556872
     54          1           0      -11.622935    5.004942    1.171089
     55          1           0      -13.630284    6.342946   -0.470322
     56          1           0      -11.910410    6.479204   -1.112280
     57          1           0      -17.376163    1.983459   -3.794879
     58          1           0      -18.568995    0.677707   -3.814208
     59          1           0      -17.394371    0.806715   -5.110176
     60          1           0      -17.614553   -1.291850   -5.778816
     61          1           0      -19.194356   -1.146361   -5.067719
     62          1           0      -18.800300   -2.614893   -5.766954
     63          1           0      -13.578764   -5.361103   -1.672542
     64          1           0      -13.135701   -5.503879    1.160320
     65          1           0      -14.912453   -6.846520   -0.914248
     66          1           0      -16.077755   -5.479283   -0.513148
     67          1           0      -15.183787   -6.145861    0.736798
     68          1           0      -10.799245   -4.780058    0.009637
     69          1           0      -11.567228   -5.875105   -1.212037
     70          1           0      -11.728506   -6.988356    1.481471
     71          1           0      -10.073782   -6.531371    1.071103
     72          1           0      -10.850227   -7.694043    0.072116
     73          1           0       -9.584806   -2.985865    3.446889
     74          1           0      -10.051935   -1.970207    4.763270
     75          1           0       -8.726691   -1.388022    3.569641
     76          1           0      -10.207742    3.189872    2.203937
     77          1           0      -13.279999    5.182764    4.918056
     78          1           0      -12.253462    6.516608    4.373420
     79          1           0      -11.679804    5.315368    5.537959
     80         12           0       13.785691   -0.651523   -0.040116
     81          6           0       11.973514    2.423089   -0.708513
     82          6           0       16.572089    1.241825   -0.167045
     83          6           0       15.363958   -3.377753    0.488590
     84          6           0       10.727357   -2.417687   -0.293352
     85          7           0       14.196416    1.696690   -0.387601
     86          6           0       13.315462    2.701278   -0.534494
     87          6           0       14.042992    4.058615   -0.490791
     88          6           0       15.517168    3.511035   -0.783178
     89          6           0       15.447793    2.100279   -0.372673
     90          6           0       16.175001    3.878670   -2.102674
     91          6           0       13.805368    4.702781    0.885981
     92          6           0       13.919358    6.255428    0.855480
     93          1           0       13.966373    7.102388   -0.499275
     94          7           0       15.748931   -1.049868    0.191599
     95          6           0       16.792586   -0.160447    0.021731
     96          6           0       18.041808   -0.901659    0.166227
     97          6           0       17.702226   -2.250182    0.437114
     98          6           0       16.213317   -2.256156    0.370694
     99          6           0       19.373690   -0.307901    0.037807
    100          6           0       18.652418   -3.513790    0.778419
    101          8           0       18.196840   -4.558110    1.156896
    102          6           0       20.176215   -3.356681    0.928780
    103          7           0       13.141574   -2.649072   -0.192763
    104          6           0       13.988683   -3.582404    0.233605
    105          6           0       13.381737   -4.951692    0.381728
    106          6           0       11.894683   -4.544245    0.522215
    107          6           0       11.928397   -3.145843   -0.185243
    108          6           0       13.615030   -5.914638   -0.873833
    109          6           0       11.310807   -4.525408    1.997004
    110          6           0       11.888886   -5.489885    3.073170
    111          7           0       11.796150   -0.180169   -0.522239
    112          6           0       10.667507   -0.931718   -0.531913
    113          6           0        9.524435   -0.149862   -0.677506
    114          6           0       10.007084    1.122044   -0.797394
    115          6           0       11.382987    1.103434   -0.681617
    116          6           0        8.082681   -0.648537   -0.632431
    117          6           0        9.536199    2.505664   -0.960479
    118          8           0        8.452471    2.988942   -1.252053
    119          6           0       10.847387    3.395820   -0.820748
    120          6           0       10.893789    4.285787   -1.967650
    121          8           0       11.244501    3.999517   -3.116808
    122          8           0       10.236323    5.410795   -1.617047
    123          6           0        9.875401    6.224752   -2.763909
    124          1           0       17.469941    1.822196   -0.389845
    125          1           0       15.939671   -4.294288    0.629517
    126          1           0        9.800586   -2.994311   -0.267099
    127          1           0       13.762714    4.691608   -1.332826
    128          1           0       16.160695    4.003930   -0.055740
    129          1           0       17.026600    4.544266   -1.965031
    130          1           0       15.453440    4.361561   -2.761393
    131          1           0       16.504691    3.021222   -2.689394
    132          1           0       14.621521    4.385672    1.535546
    133          1           0       12.883432    4.384730    1.372437
    134          1           0       14.717331    6.614363    1.506277
    135          1           0       13.090015    6.548622    1.499012
    136          1           0       19.360224    0.763039    0.239193
    137          1           0       19.676711   -0.513337   -0.989018
    138          1           0       20.113647   -0.722841    0.722549
    139          1           0       20.473866   -2.739835    1.776689
    140          1           0       20.515617   -3.046263   -0.059667
    141          1           0       20.640365   -4.338080    1.029815
    142          1           0       13.885218   -5.342559    1.265619
    143          1           0       11.220682   -5.183919   -0.047036
    144          1           0       13.914876   -6.840614   -0.383693
    145          1           0       14.408344   -5.591328   -1.548709
    146          1           0       12.733417   -6.129759   -1.476434
    147          1           0       10.229840   -4.646635    1.943159
    148          1           0       11.639971   -3.539761    2.326506
    149          1           0       12.755578   -5.041640    3.558384
    150          1           0       12.062354   -6.410558    2.514967
    151          1           0       11.149526   -5.755984    3.827783
    152          1           0        8.117471   -1.522065    0.019029
    153          1           0        7.721372   -1.007244   -1.595776
    154          1           0        7.459541    0.147452   -0.225154
    155          1           0       10.737783    3.958461    0.107211
    156          1           0        9.323547    7.125986   -2.498350
    157          1           0        9.442358    5.702265   -3.617053
    158          1           0       10.768081    6.655697   -3.218549
 ---------------------------------------------------------------------

 SCF Done:  E(RPBE1PBE) =  -4067.35371824     A.U. after   16 cycles

 Excitation energies and oscillator strengths:

 Excited State   1:      Singlet-A      1.8790 eV  659.83 nm  f=0.4062  <S**2>=0.000
     309 -> 315       -0.16647
     312 -> 313        0.69042
     312 <- 313       -0.10559
 This state for optimization and/or second-order correction.
 Total Energy, E(TD-HF/TD-DFT) =  -4067.28466530
 Copying the excited state density for this state as the 1-particle RhoCI density.

 Excited State   2:      Singlet-A      1.9474 eV  636.68 nm  f=0.3448  <S**2>=0.000
     310 -> 316       -0.18512
     311 -> 314        0.68704

 Excited State   3:      Singlet-A      2.0079 eV  617.48 nm  f=0.0000  <S**2>=0.000
     311 -> 313        0.70710

 Excited State   4:      Singlet-A      2.0300 eV  610.75 nm  f=0.0000  <S**2>=0.000
     312 -> 314        0.70710

 Excited State   5:      Singlet-A      2.2405 eV  553.37 nm  f=0.1453  <S**2>=0.000
     310 -> 314        0.66525
     311 -> 316        0.23005

 The electronic state is 1-A.
 Alpha  occ. eigenvalues --  -46.92715 -46.92515 -19.26225 -19.25525 -19.20468
 Alpha  occ. eigenvalues --  -19.19660 -19.19604 -19.19267 -19.18991 -19.17928
 Alpha  occ. eigenvalues --  -14.41380 -14.41313 -14.40736 -14.40699 -14.39569
 Alpha  occ. eigenvalues --  -14.39397 -14.38894 -14.38430 -10.36563 -10.35182
 Alpha  occ. eigenvalues --  -10.33908 -10.33089 -10.32137 -10.30464 -10.29343
 Alpha  occ. eigenvalues --  -10.29342 -10.28581 -10.28547 -10.28194 -10.28183
 Alpha  occ. eigenvalues --  -10.28077 -10.28036 -10.27996 -10.27845 -10.27745
 Alpha  occ. eigenvalues --  -10.27738 -10.27731 -10.27500 -10.27458 -10.26796
 Alpha  occ. eigenvalues --  -10.26696 -10.26627 -10.26474 -10.26364 -10.26216
 Alpha  occ. eigenvalues --  -10.26131 -10.26073 -10.25887 -10.25762 -10.25752
 Alpha  occ. eigenvalues --  -10.25697 -10.25524 -10.25512 -10.25245 -10.25194
 Alpha  occ. eigenvalues --  -10.25151 -10.25137 -10.25135 -10.25121 -10.25080
 Alpha  occ. eigenvalues --  -10.24885 -10.24776 -10.24769 -10.24437 -10.24398
 Alpha  occ. eigenvalues --  -10.24395 -10.24383 -10.24283 -10.24208 -10.23987
 Alpha  occ. eigenvalues --  -10.23892 -10.23872 -10.23836 -10.23715 -10.23584
 Alpha  occ. eigenvalues --  -10.23560 -10.23540 -10.23429 -10.23422 -10.23100
 Alpha  occ. eigenvalues --  -10.23088 -10.23073 -10.22977 -10.22854 -10.22132
 Alpha  occ. eigenvalues --  -10.21695  -3.14797  -3.14620  -1.87639  -1.87452
 Alpha  occ. eigenvalues --   -1.87189  -1.87006  -1.86988  -1.86856  -1.11255
 Alpha  occ. eigenvalues --   -1.10280  -1.07126  -1.04978  -1.04356  -1.02678
 Alpha  occ. eigenvalues --   -1.01421  -1.01308  -1.00402  -1.00269  -0.99722
 Alpha  occ. eigenvalues --   -0.99120  -0.98976  -0.98500  -0.98334  -0.97607
 Alpha  occ. eigenvalues --   -0.86758  -0.85600  -0.84165  -0.83182  -0.82931
 Alpha  occ. eigenvalues --   -0.82922  -0.82417  -0.82371  -0.81717  -0.81685
 Alpha  occ. eigenvalues --   -0.81404  -0.81243  -0.81208  -0.80130  -0.78550
 Alpha  occ. eigenvalues --   -0.78400  -0.77536  -0.77425  -0.76584  -0.76439
 Alpha  occ. eigenvalues --   -0.76329  -0.75865  -0.75331  -0.75039  -0.74417
 Alpha  occ. eigenvalues --   -0.74354  -0.72797  -0.72649  -0.71776  -0.71106
 Alpha  occ. eigenvalues --   -0.70970  -0.70940  -0.70329  -0.70068  -0.69638
 Alpha  occ. eigenvalues --   -0.69551  -0.67267  -0.67038  -0.66079  -0.66021
 Alpha  occ. eigenvalues --   -0.63929  -0.63719  -0.63386  -0.63118  -0.62150
 Alpha  occ. eigenvalues --   -0.62144  -0.61923  -0.61033  -0.60231  -0.59878
 Alpha  occ. eigenvalues --   -0.59495  -0.59397  -0.59092  -0.58852  -0.58364
 Alpha  occ. eigenvalues --   -0.58213  -0.57143  -0.56399  -0.55172  -0.55146
 Alpha  occ. eigenvalues --   -0.54169  -0.53960  -0.53797  -0.53409  -0.53198
 Alpha  occ. eigenvalues --   -0.52925  -0.52551  -0.52468  -0.52087  -0.51809
 Alpha  occ. eigenvalues --   -0.50963  -0.50833  -0.50171  -0.49975  -0.49767
 Alpha  occ. eigenvalues --   -0.49597  -0.49098  -0.49050  -0.48577  -0.48510
 Alpha  occ. eigenvalues --   -0.48243  -0.48174  -0.47996  -0.47938  -0.47519
 Alpha  occ. eigenvalues --   -0.47201  -0.47084  -0.47028  -0.46783  -0.46708
 Alpha  occ. eigenvalues --   -0.46312  -0.46036  -0.45894  -0.45704  -0.45695
 Alpha  occ. eigenvalues --   -0.45597  -0.45264  -0.45206  -0.44959  -0.44959
 Alpha  occ. eigenvalues --   -0.44704  -0.44511  -0.44318  -0.44238  -0.44151
 Alpha  occ. eigenvalues --   -0.43903  -0.43546  -0.43522  -0.43499  -0.43408
 Alpha  occ. eigenvalues --   -0.43301  -0.43260  -0.43133  -0.42836  -0.42794
 Alpha  occ. eigenvalues --   -0.42609  -0.42392  -0.42227  -0.42184  -0.42045
 Alpha  occ. eigenvalues --   -0.41882  -0.41689  -0.41414  -0.41405  -0.41108
 Alpha  occ. eigenvalues --   -0.40839  -0.40742  -0.40603  -0.40524  -0.40233
 Alpha  occ. eigenvalues --   -0.39788  -0.39646  -0.39495  -0.39391  -0.39207
 Alpha  occ. eigenvalues --   -0.39078  -0.39072  -0.38927  -0.38795  -0.38786
 Alpha  occ. eigenvalues --   -0.38740  -0.38628  -0.38604  -0.38376  -0.38301
 Alpha  occ. eigenvalues --   -0.38030  -0.37966  -0.37786  -0.37696  -0.37611
 Alpha  occ. eigenvalues --   -0.37518  -0.37356  -0.37110  -0.37018  -0.36940
 Alpha  occ. eigenvalues --   -0.36785  -0.36737  -0.36674  -0.36316  -0.36249
 Alpha  occ. eigenvalues --   -0.36127  -0.35883  -0.35618  -0.35327  -0.35308
 Alpha  occ. eigenvalues --   -0.34593  -0.34176  -0.34162  -0.33942  -0.33568
 Alpha  occ. eigenvalues --   -0.33171  -0.33133  -0.32949  -0.32809  -0.32390
 Alpha  occ. eigenvalues --   -0.32024  -0.31631  -0.31597  -0.31136  -0.30956
 Alpha  occ. eigenvalues --   -0.30815  -0.30658  -0.29436  -0.29377  -0.29071
 Alpha  occ. eigenvalues --   -0.28625  -0.28610  -0.27942  -0.26915  -0.26716
 Alpha  occ. eigenvalues --   -0.26567  -0.26537  -0.26117  -0.26079  -0.25480
 Alpha  occ. eigenvalues --   -0.25297  -0.25245  -0.24722  -0.20795  -0.20302
 Alpha  occ. eigenvalues --   -0.18839  -0.18667
 Alpha virt. eigenvalues --   -0.10966  -0.10726  -0.05271  -0.04600  -0.03578
 Alpha virt. eigenvalues --   -0.03522  -0.01811  -0.01783  -0.00769  -0.00398
 Alpha virt. eigenvalues --    0.00163   0.00857   0.01015   0.01146   0.02107

 Mulliken charges:
               1
     1  Mg  12.000899
     2  C    5.984257
     3  C    6.022543
     4  C    6.003740
     5  C    5.991157
     6  N    6.999899
     7  C    6.030384
     8  C    5.993163
     9  C    6.009417
    10  C    5.967058
    11  C    6.001314
    12  C    5.994588
    13  C    6.001728
    14  H    0.999607
    15  N    7.001098
    16  C    5.959568
    17  C    5.979484
    18  C    5.984526
    19  C    5.974790
    20  C    6.003234
    21  C    5.986397
    22  O    7.974922
    23  C    6.006599
    24  N    6.998013
    25  C    5.968230
    26  C    6.010488
    27  C    5.988255
    28  C    6.033343
    29  C    6.001790
    30  C    6.000101
    31  C    5.999652
    32  N    6.999653
    33  C    6.035665
    34  C    6.025837
    35  C    6.007815
    36  C    6.024800
    37  C    5.999101
    38  C    6.015753
    39  O    8.034104
    40  C    5.997573
    41  C    6.005758
    42  O    8.002419
    43  O    8.001973
    44  C    5.999034
    45  H    0.995598
    46  H    0.992058
    47  H    1.011199
    48  H    0.999670
    49  H    0.998975
    50  H    1.001461
    51  H    0.990188
    52  H    1.002083
    53  H    1.003595
    54  H    0.994380
    55  H    1.006407
    56  H    1.001906
    57  H    0.980531
    58  H    0.982396
    59  H    0.981825
    60  H    0.994814
    61  H    0.990748
    62  H    0.985674
    63  H    1.000017
    64  H    0.999807
    65  H    0.995501
    66  H    1.006573
    67  H    0.990205
    68  H    0.994503
    69  H    1.011008
    70  H    1.001742
    71  H    0.996874
    72  H    1.005231
    73  H    1.016374
    74  H    1.016337
    75  H    1.011754
    76  H    1.009000
    77  H    1.004788
    78  H    1.005863
    79  H    1.001186
    80  Mg  11.999891
    81  C    6.000765
    82  C    6.000098
    83  C    5.999500
    84  C    6.000133
    85  N    7.000558
    86  C    5.999218
    87  C    6.000258
    88  C    5.999765
    89  C    6.000492
    90  C    5.999828
    91  C    6.000167
    92  C    5.999925
    93  H    1.000148
    94  N    6.999537
    95  C    6.001071
    96  C    6.000470
    97  C    6.000604
    98  C    6.000827
    99  C    5.999879
   100  C    6.000262
   101  O    8.000701
   102  C    5.999910
   103  N    6.999698
   104  C    6.000988
   105  C    5.999632
   106  C    6.000119
   107  C    5.999442
   108  C    6.000020
   109  C    6.000190
   110  C    6.000009
   111  N    6.999902
   112  C    5.999202
   113  C    5.999232
   114  C    6.000045
   115  C    5.999099
   116  C    5.999948
   117  C    5.999282
   118  O    7.999089
   119  C    5.999935
   120  C    5.999754
   121  O    8.000096
   122  O    7.999858
   123  C    5.999991
   124  H    1.000562
   125  H    1.000135
   126  H    0.999411
   127  H    1.000058
   128  H    1.000125
   129  H    1.000208
   130  H    1.000432
   131  H    1.000066
   132  H    0.999711
   133  H    1.000013
   134  H    0.999983
   135  H    0.999940
   136  H    1.000443
   137  H    1.000640
   138  H    1.000546
   139  H    1.000279
   140  H    1.000275
   141  H    1.000502
   142  H    0.999927
   143  H    0.999909
   144  H    1.000107
   145  H    1.000033
   146  H    1.000301
   147  H    0.999784
   148  H    0.999883
   149  H    0.999863
   150  H    1.000009
   151  H    0.999758
   152  H    0.999357
   153  H    0.999408
   154  H    0.999220
   155  H    0.999692
   156  H    0.999826
   157  H    1.000029
   158  H    1.000028
 Sum of Mulliken charges = 624.00000

 Dipole moment (field-independent basis, Debye):
    X=              7.6532    Y=              0.6668    Z=              7.4163  Tot=             10.6779
 Quadrupole moment (field-independent basis, Debye-Ang):
   XX=           -191.8670   YY=              2.3237   ZZ=             -2.8443
   XY=            -15.4791   XZ=           -103.3733   YZ=             -3.6553

 Normal termination of Gaussian 16 at Thu Oct 14 13:01:31 2021.
