 Gaussian 16, Revision A.03,
 Gaussian 16:  ES64L-G16RevA.03 25-Dec-2016

 --------------------------------------------------------
 #p PBE1PBE/Def2SVP td=(nstates=5) density=(transition=1)
 --------------------------------------------------------

 --------------------------------
 TDDFT excited states in gaussian
 --------------------------------
 Symbolic Z-matrix:
 Charge =  0 Multiplicity = 1

                         Standard orientation:
 ---------------------------------------------------------------------
 Center     Atomic      Atomic             Coordinates (Angstroms)
 Number     Number       Type             X           Y           Z
 ---------------------------------------------------------------------
      1         12           0      -22.299867   -0.644241   -0.325548
      2          6           0      -24.123359    1.726831    1.448237
      3          6           0      -20.256646    1.855278   -1.474685
      4          6           0      -20.756111   -2.963513   -2.288205
      5          6           0      -24.695445   -3.021566    0.789287
      6          7           0      -22.221511    1.532874   -0.075777
      7          6           0      -23.005148    2.239857    0.797648
      8          6           0      -22.488909    3.680665    0.773971
      9          6           0      -21.486471    3.741091   -0.364774
     10          6           0      -21.279862    2.255080   -0.635069
     11          6           0      -21.803413    4.538448   -1.601405
     12          6           0      -21.941303    4.240862    2.172023
     13          6           0      -21.213413    5.622376    2.115055
     14          1           0      -22.049613    6.910867    2.330991
     15          7           0      -20.638784   -0.565616   -1.567099
     16          6           0      -19.957219    0.546670   -1.938359
     17          6           0      -18.955228    0.120757   -2.880526
     18          6           0      -19.112785   -1.277044   -3.114057
     19          6           0      -20.205965   -1.666964   -2.342520
     20          6           0      -17.984278    1.107309   -3.452146
     21          6           0      -18.331062   -2.132163   -4.153451
     22          8           0      -18.744733   -3.211459   -4.537595
     23          6           0      -17.130064   -1.673250   -4.832331
     24          7           0      -22.666363   -2.577515   -0.656401
     25          6           0      -21.876551   -3.382648   -1.476577
     26          6           0      -22.338907   -4.850093   -1.483364
     27          6           0      -23.373030   -4.859972   -0.306631
     28          6           0      -23.553916   -3.380513   -0.009403
     29          6           0      -22.695645   -5.424849   -2.791530
     30          6           0      -23.069620   -5.759934    1.015540
     31          6           0      -24.038146   -6.865969    1.445068
     32          7           0      -24.145406   -0.672172    0.864092
     33          6           0      -24.974137   -1.709438    1.188310
     34          6           0      -26.052598   -1.270800    2.008487
     35          6           0      -25.721523    0.122402    2.217866
     36          6           0      -24.590279    0.439215    1.414696
     37          6           0      -27.110450   -2.159034    2.543328
     38          6           0      -26.097603    1.300005    2.965814
     39          8           0      -26.934965    1.530090    3.816105
     40          6           0      -25.023911    2.429042    2.453695
     41          6           0      -25.708245    3.672697    2.016877
     42          8           0      -26.424926    3.739424    1.042379
     43          8           0      -25.433000    4.719597    2.814424
     44          6           0      -25.859856    6.088752    2.331347
     45          1           0      -19.569830    2.639092   -1.801681
     46          1           0      -20.248088   -3.684917   -2.931321
     47          1           0      -25.300640   -3.895146    1.041115
     48          1           0      -23.411987    4.203628    0.524282
     49          1           0      -20.567400    4.207041   -0.010265
     50          1           0      -22.001164    3.716854   -2.289180
     51          1           0      -20.991333    5.205449   -1.891138
     52          1           0      -22.750157    5.072943   -1.520456
     53          1           0      -21.239085    3.457782    2.458773
     54          1           0      -22.759658    4.311331    2.887594
     55          1           0      -20.742859    5.789598    1.146993
     56          1           0      -20.413076    5.607209    2.854861
     57          1           0      -18.002750    2.129630   -3.073210
     58          1           0      -18.254629    1.205851   -4.502958
     59          1           0      -16.955693    0.746068   -3.448970
     60          1           0      -17.106174   -0.685582   -5.291664
     61          1           0      -16.718858   -2.359202   -5.572810
     62          1           0      -16.390312   -1.722407   -4.033574
     63          1           0      -21.406384   -5.292181   -1.131504
     64          1           0      -24.259422   -5.158507   -0.866122
     65          1           0      -22.076785   -6.244586   -3.157417
     66          1           0      -22.652116   -4.618805   -3.524458
     67          1           0      -23.694495   -5.859387   -2.829192
     68          1           0      -22.994380   -5.077142    1.861632
     69          1           0      -22.117656   -6.290799    1.054126
     70          1           0      -24.672313   -6.616179    2.296078
     71          1           0      -23.589992   -7.854208    1.544257
     72          1           0      -24.782884   -6.966843    0.655461
     73          1           0      -27.458176   -2.804994    1.737496
     74          1           0      -27.923545   -1.608127    3.015299
     75          1           0      -26.620182   -2.897908    3.178025
     76          1           0      -24.440397    2.690546    3.335839
     77          1           0      -25.868691    6.661348    3.258519
     78          1           0      -26.845267    6.004739    1.873526
     79          1           0      -25.068669    6.446732    1.672415
     80         12           0       22.454858   -0.668554    0.458774
     81          6           0       22.644149    2.417162   -1.347857
     82          6           0       23.077366    1.050306    3.365990
     83          6           0       22.756413   -3.561870    2.175050
     84          6           0       22.801938   -2.317381   -2.639978
     85          7           0       22.801690    1.479367    0.920203
     86          6           0       22.770564    2.592297    0.065223
     87          6           0       22.924492    3.847931    0.884601
     88          6           0       23.562074    3.298707    2.229932
     89          6           0       23.171508    1.793289    2.156337
     90          6           0       25.113795    3.528452    2.157548
     91          6           0       21.611680    4.698897    1.009970
     92          6           0       21.899622    6.103051    0.823610
     93          1           0       20.609436    7.034776    0.574543
     94          7           0       22.692634   -1.087909    2.538011
     95          6           0       22.893171   -0.247242    3.559951
     96          6           0       22.887345   -0.983892    4.786377
     97          6           0       22.815350   -2.327463    4.483875
     98          6           0       22.688884   -2.408398    2.955676
     99          6           0       23.162580   -0.304692    6.165520
    100          6           0       22.743780   -3.536199    5.439511
    101          8           0       22.718795   -4.648071    4.975745
    102          6           0       22.613425   -3.335944    6.931021
    103          7           0       23.015280   -2.634853   -0.177357
    104          6           0       22.928320   -3.666495    0.750951
    105          6           0       22.909741   -4.994950    0.067366
    106          6           0       22.902008   -4.602859   -1.490256
    107          6           0       22.839263   -3.093968   -1.457014
    108          6           0       24.013670   -5.896291    0.506904
    109          6           0       21.738004   -5.252951   -2.421661
    110          6           0       22.148825   -6.115973   -3.548498
    111          7           0       22.630708   -0.132450   -1.603045
    112          6           0       22.766308   -0.939067   -2.710391
    113          6           0       22.766143   -0.039216   -3.944533
    114          6           0       22.605170    1.276565   -3.465949
    115          6           0       22.580836    1.170296   -2.031139
    116          6           0       22.940654   -0.538658   -5.385240
    117          6           0       22.618494    2.640352   -3.901124
    118          8           0       22.672745    3.122875   -5.054829
    119          6           0       22.815499    3.450296   -2.554476
    120          6           0       21.812527    4.639932   -2.638859
    121          8           0       20.729780    4.604020   -2.025985
    122          8           0       22.356170    5.649738   -3.361708
    123          6           0       21.300672    6.693228   -3.600776
    124          1           0       23.050603    1.599294    4.309963
    125          1           0       22.834026   -4.512067    2.708806
    126          1           0       22.808697   -2.737594   -3.647732
    127          1           0       23.711703    4.422645    0.397167
    128          1           0       23.170413    3.817832    3.103976
    129          1           0       25.625328    2.842589    1.482707
    130          1           0       25.522592    3.476599    3.165761
    131          1           0       25.300797    4.545162    1.811180
    132          1           0       21.314441    4.645456    2.057569
    133          1           0       20.812677    4.313978    0.375861
    134          1           0       22.437081    6.273770   -0.109332
    135          1           0       22.439449    6.445097    1.706956
    136          1           0       22.292524   -0.594024    6.754853
    137          1           0       23.201641    0.784244    6.141744
    138          1           0       24.117076   -0.648899    6.563492
    139          1           0       22.661804   -4.292633    7.451242
    140          1           0       21.618798   -2.890813    6.906907
    141          1           0       23.403517   -2.656832    7.251301
    142          1           0       21.938889   -5.395875    0.359180
    143          1           0       23.855730   -4.937432   -1.897631
    144          1           0       23.512818   -6.676053    1.079282
    145          1           0       24.688078   -5.426551    1.222716
    146          1           0       24.626747   -6.313743   -0.292156
    147          1           0       21.293357   -4.366782   -2.874451
    148          1           0       21.002569   -5.708296   -1.759756
    149          1           0       21.853662   -5.683546   -4.504171
    150          1           0       21.463639   -6.934522   -3.330711
    151          1           0       23.175825   -6.474189   -3.465326
    152          1           0       24.006238   -0.456180   -5.596370
    153          1           0       22.379531    0.057183   -6.105050
    154          1           0       22.553458   -1.555109   -5.456407
    155          1           0       23.852805    3.776673   -2.615381
    156          1           0       20.545082    6.421294   -4.337640
    157          1           0       21.683788    7.673602   -3.882082
    158          1           0       20.844245    6.871867   -2.626986
 ---------------------------------------------------------------------

 SCF Done:  E(RPBE1PBE) =  -4067.34932991     A.U. after   16 cycles

 Excitation energies and oscillator strengths:

 Excited State   1:      Singlet-A      1.7508 eV  708.15 nm  f=0.0000  <S**2>=0.000
     312 -> 313        0.70711
 This state for optimization and/or second-order correction.
 Total Energy, E(TD-HF/TD-DFT) =  -4067.28498813
 Copying the excited state density for this state as the 1-particle RhoCI density.

 Excited State   2:      Singlet-A      1.8312 eV  677.06 nm  f=0.3420  <S**2>=0.000
     310 -> 315        0.18209
     312 -> 314        0.68921

 Excited State   3:      Singlet-A      1.8570 eV  667.66 nm  f=0.3861  <S**2>=0.000
     309 -> 316        0.17292
     311 -> 313        0.69302
     311 <- 313       -0.11171

 Excited State   4:      Singlet-A      2.2276 eV  556.57 nm  f=0.0000  <S**2>=0.000
     311 -> 314        0.70711

 Excited State   5:      Singlet-A      2.2290 eV  556.23 nm  f=0.0888  <S**2>=0.000
     309 -> 313        0.64387
     311 -> 316       -0.27275

 The electronic state is 1-A.
 Alpha  occ. eigenvalues --  -46.92835 -46.91263 -19.26873 -19.25059 -19.20101
 Alpha  occ. eigenvalues --  -19.19494 -19.19272 -19.19201 -19.18923 -19.18473
 Alpha  occ. eigenvalues --  -14.42216 -14.41748 -14.41543 -14.41523 -14.38949
 Alpha  occ. eigenvalues --  -14.38946 -14.38726 -14.38099 -10.36818 -10.34950
 Alpha  occ. eigenvalues --  -10.32688 -10.32627 -10.32241 -10.31808 -10.29356
 Alpha  occ. eigenvalues --  -10.29327 -10.28931 -10.28926 -10.28911 -10.28874
 Alpha  occ. eigenvalues --  -10.28846 -10.28825 -10.28634 -10.28483 -10.28088
 Alpha  occ. eigenvalues --  -10.27441 -10.27319 -10.27252 -10.27128 -10.26736
 Alpha  occ. eigenvalues --  -10.26735 -10.26687 -10.26506 -10.26332 -10.26230
 Alpha  occ. eigenvalues --  -10.26113 -10.25988 -10.25938 -10.25910 -10.25801
 Alpha  occ. eigenvalues --  -10.25755 -10.25577 -10.25330 -10.25325 -10.25323
 Alpha  occ. eigenvalues --  -10.25290 -10.25287 -10.25254 -10.25127 -10.25010
 Alpha  occ. eigenvalues --  -10.24913 -10.24816 -10.24764 -10.24721 -10.24708
 Alpha  occ. eigenvalues --  -10.24666 -10.24509 -10.24504 -10.24350 -10.24190
 Alpha  occ. eigenvalues --  -10.24108 -10.24065 -10.23807 -10.23702 -10.23692
 Alpha  occ. eigenvalues --  -10.23623 -10.23611 -10.23410 -10.23198 -10.23036
 Alpha  occ. eigenvalues --  -10.23029 -10.22949 -10.22941 -10.22820 -10.22745
 Alpha  occ. eigenvalues --  -10.22535  -3.14757  -3.13500  -1.87591  -1.87117
 Alpha  occ. eigenvalues --   -1.86979  -1.86358  -1.85877  -1.85726  -1.10885
 Alpha  occ. eigenvalues --   -1.10610  -1.06295  -1.05690  -1.04272  -1.02760
 Alpha  occ. eigenvalues --   -1.02006  -1.01548  -0.99854  -0.98798  -0.98595
 Alpha  occ. eigenvalues --   -0.97944  -0.97607  -0.97393  -0.96997  -0.96279
 Alpha  occ. eigenvalues --   -0.86799  -0.85708  -0.83477  -0.83220  -0.83022
 Alpha  occ. eigenvalues --   -0.82953  -0.82645  -0.82521  -0.81879  -0.81617
 Alpha  occ. eigenvalues --   -0.81535  -0.81252  -0.80993  -0.79968  -0.78902
 Alpha  occ. eigenvalues --   -0.78708  -0.78174  -0.77993  -0.76890  -0.76791
 Alpha  occ. eigenvalues --   -0.76707  -0.76566  -0.75711  -0.75095  -0.75077
 Alpha  occ. eigenvalues --   -0.74821  -0.73126  -0.72398  -0.72115  -0.71891
 Alpha  occ. eigenvalues --   -0.71571  -0.70945  -0.70203  -0.69846  -0.69520
 Alpha  occ. eigenvalues --   -0.69262  -0.67235  -0.66623  -0.66268  -0.65990
 Alpha  occ. eigenvalues --   -0.63677  -0.63268  -0.63162  -0.62720  -0.62364
 Alpha  occ. eigenvalues --   -0.61893  -0.61345  -0.60744  -0.60092  -0.59910
 Alpha  occ. eigenvalues --   -0.59548  -0.59385  -0.59110  -0.59035  -0.58842
 Alpha  occ. eigenvalues --   -0.58753  -0.56719  -0.56001  -0.55066  -0.54431
 Alpha  occ. eigenvalues --   -0.54283  -0.53720  -0.53590  -0.53444  -0.53046
 Alpha  occ. eigenvalues --   -0.52864  -0.52571  -0.52063  -0.51692  -0.51583
 Alpha  occ. eigenvalues --   -0.50971  -0.50538  -0.50325  -0.50061  -0.49760
 Alpha  occ. eigenvalues --   -0.49692  -0.49354  -0.49081  -0.48942  -0.48607
 Alpha  occ. eigenvalues --   -0.48400  -0.48142  -0.48092  -0.47787  -0.47623
 Alpha  occ. eigenvalues --   -0.47368  -0.47362  -0.47188  -0.47131  -0.47066
 Alpha  occ. eigenvalues --   -0.46903  -0.46732  -0.46516  -0.45875  -0.45642
 Alpha  occ. eigenvalues --   -0.45608  -0.45432  -0.45241  -0.45080  -0.45067
 Alpha  occ. eigenvalues --   -0.44921  -0.44807  -0.44560  -0.44558  -0.44053
 Alpha  occ. eigenvalues --   -0.44041  -0.43937  -0.43863  -0.43693  -0.43598
 Alpha  occ. eigenvalues --   -0.43457  -0.43338  -0.43220  -0.42867  -0.42856
 Alpha  occ. eigenvalues --   -0.42606  -0.42520  -0.42411  -0.42174  -0.42139
 Alpha  occ. eigenvalues --   -0.41804  -0.41583  -0.41375  -0.41343  -0.41248
 Alpha  occ. eigenvalues --   -0.41216  -0.41027  -0.40976  -0.40951  -0.40786
 Alpha  occ. eigenvalues --   -0.40544  -0.40196  -0.39905  -0.39828  -0.39573
 Alpha  occ. eigenvalues --   -0.39522  -0.39303  -0.39237  -0.39123  -0.39047
 Alpha  occ. eigenvalues --   -0.38867  -0.38812  -0.38523  -0.38516  -0.38312
 Alpha  occ. eigenvalues --   -0.38069  -0.37849  -0.37822  -0.37670  -0.37649
 Alpha  occ. eigenvalues --   -0.37545  -0.37295  -0.36897  -0.36860  -0.36769
 Alpha  occ. eigenvalues --   -0.36642  -0.36431  -0.36328  -0.36138  -0.36076
 Alpha  occ. eigenvalues --   -0.35813  -0.35708  -0.35291  -0.35144  -0.35086
 Alpha  occ. eigenvalues --   -0.34729  -0.34459  -0.34207  -0.33774  -0.33754
 Alpha  occ. eigenvalues --   -0.33498  -0.32989  -0.32728  -0.32300  -0.32299
 Alpha  occ. eigenvalues --   -0.32124  -0.32005  -0.31917  -0.31342  -0.31196
 Alpha  occ. eigenvalues --   -0.30988  -0.29963  -0.29483  -0.29315  -0.29251
 Alpha  occ. eigenvalues --   -0.29010  -0.28399  -0.27882  -0.27139  -0.26612
 Alpha  occ. eigenvalues --   -0.26058  -0.26027  -0.25987  -0.25510  -0.25343
 Alpha  occ. eigenvalues --   -0.25194  -0.25109  -0.24675  -0.21117  -0.21089
 Alpha  occ. eigenvalues --   -0.18769  -0.17954
 Alpha virt. eigenvalues --   -0.11229  -0.10292  -0.05910  -0.05370  -0.04269
 Alpha virt. eigenvalues --   -0.03590  -0.02005  -0.01719  -0.00937   0.00441
 Alpha virt. eigenvalues --    0.00560   0.00811   0.00994   0.01348   0.01641

 Mulliken charges:
               1
     1  Mg  12.000000
     2  C    6.000000
     3  C    6.000000
     4  C    6.000000
     5  C    6.000000
     6  N    7.000000
     7  C    6.000000
     8  C    6.000000
     9  C    6.000000
    10  C    6.000000
    11  C    6.000000
    12  C    6.000000
    13  C    6.000000
    14  H    1.000000
    15  N    7.000000
    16  C    6.000000
    17  C    6.000000
    18  C    6.000000
    19  C    6.000000
    20  C    6.000000
    21  C    6.000000
    22  O    8.000000
    23  C    6.000000
    24  N    7.000000
    25  C    6.000000
    26  C    6.000000
    27  C    6.000000
    28  C    6.000000
    29  C    6.000000
    30  C    6.000000
    31  C    6.000000
    32  N    7.000000
    33  C    6.000000
    34  C    6.000000
    35  C    6.000000
    36  C    6.000000
    37  C    6.000000
    38  C    6.000000
    39  O    8.000000
    40  C    6.000000
    41  C    6.000000
    42  O    8.000000
    43  O    8.000000
    44  C    6.000000
    45  H    1.000000
    46  H    1.000000
    47  H    1.000000
    48  H    1.000000
    49  H    1.000000
    50  H    1.000000
    51  H    1.000000
    52  H    1.000000
    53  H    1.000000
    54  H    1.000000
    55  H    1.000000
    56  H    1.000000
    57  H    1.000000
    58  H    1.000000
    59  H    1.000000
    60  H    1.000000
    61  H    1.000000
    62  H    1.000000
    63  H    1.000000
    64  H    1.000000
    65  H    1.000000
    66  H    1.000000
    67  H    1.000000
    68  H    1.000000
    69  H    1.000000
    70  H    1.000000
    71  H    1.000000
    72  H    1.000000
    73  H    1.000000
    74  H    1.000000
    75  H    1.000000
    76  H    1.000000
    77  H    1.000000
    78  H    1.000000
    79  H    1.000000
    80  Mg  12.000000
    81  C    6.000000
    82  C    6.000000
    83  C    6.000000
    84  C    6.000000
    85  N    7.000000
    86  C    6.000000
    87  C    6.000000
    88  C    6.000000
    89  C    6.000000
    90  C    6.000000
    91  C    6.000000
    92  C    6.000000
    93  H    1.000000
    94  N    7.000000
    95  C    6.000000
    96  C    6.000000
    97  C    6.000000
    98  C    6.000000
    99  C    6.000000
   100  C    6.000000
   101  O    8.000000
   102  C    6.000000
   103  N    7.000000
   104  C    6.000000
   105  C    6.000000
   106  C    6.000000
   107  C    6.000000
   108  C    6.000000
   109  C    6.000000
   110  C    6.000000
   111  N    7.000000
   112  C    6.000000
   113  C    6.000000
   114  C    6.000000
   115  C    6.000000
   116  C    6.000000
   117  C    6.000000
   118  O    8.000000
   119  C    6.000000
   120  C    6.000000
   121  O    8.000000
   122  O    8.000000
   123  C    6.000000
   124  H    1.000000
   125  H    1.000000
   126  H    1.000000
   127  H    1.000000
   128  H    1.000000
   129  H    1.000000
   130  H    1.000000
   131  H    1.000000
   132  H    1.000000
   133  H    1.000000
   134  H    1.000000
   135  H    1.000000
   136  H    1.000000
   137  H    1.000000
   138  H    1.000000
   139  H    1.000000
   140  H    1.000000
   141  H    1.000000
   142  H    1.000000
   143  H    1.000000
   144  H    1.000000
   145  H    1.000000
   146  H    1.000000
   147  H    1.000000
   148  H    1.000000
   149  H    1.000000
   150  H    1.000000
   151  H    1.000000
   152  H    1.000000
   153  H    1.000000
   154  H    1.000000
   155  H    1.000000
   156  H    1.000000
   157  H    1.000000
   158  H    1.000000
 Sum of Mulliken charges = 624.00000

 Dipole moment (field-independent basis, Debye):
    X=             -0.0000    Y=              0.0000    Z=              0.0000  Tot=              0.0000
 Quadrupole moment (field-independent basis, Debye-Ang):
   XX=              0.0000   YY=             -0.0000   ZZ=             -0.0000
   XY=             -0.0000   XZ=             -0.0000   YZ=             -0.0000

 Normal termination of Gaussian 16 at Fri Oct 15 05:12:13 2021.
