 Gaussian 16, Revision A.03,
 Gaussian 16:  ES64L-G16RevA.03 25-Dec-2016

 ---------------------------------------------------
 #p PBE1PBE/Def2SVP td=(nstates=5) density=(current)
 ---------------------------------------------------

 --------------------------------
 TDDFT excited states in gaussian
 --------------------------------
 Symbolic Z-matrix:
 Charge =  0 Multiplicity = 1

                         Standard orientation:
 ---------------------------------------------------------------------
 Center     Atomic      Atomic             Coordinates (Angstroms)
 Number     Number       Type             X           Y           Z
 ---------------------------------------------------------------------
      1         12           0       -0.688059    0.226376    0.214410
      2          6           0        2.744305    0.120796    0.321865
      3          6           0       -0.689072   -3.331052    0.148596
      4          6           0       -4.005607    0.159564   -0.432956
      5          6           0       -0.665372    3.569290   -0.059546
      6          7           0        0.867574   -1.415554    0.229283
      7          6           0        2.214360   -1.171922    0.263522
      8          6           0        3.006461   -2.476163    0.379592
      9          6           0        1.851703   -3.549281    0.116314
     10          6           0        0.595700   -2.729250    0.162878
     11          6           0        2.050236   -4.402126   -1.190184
     12          6           0        3.709875   -2.675025    1.799254
     13          6           0        5.123467   -3.185343    1.943209
     14          1           0        5.527989   -4.380760    1.155871
     15          7           0       -2.196489   -1.363630   -0.054848
     16          6           0       -2.028517   -2.691439    0.130633
     17          6           0       -3.275451   -3.380332    0.124913
     18          6           0       -4.282950   -2.374031   -0.012728
     19          6           0       -3.483737   -1.134140   -0.245681
     20          6           0       -3.269573   -4.872387    0.212997
     21          6           0       -5.786392   -2.545226   -0.147951
     22          8           0       -6.523176   -1.634985   -0.539985
     23          6           0       -6.437628   -3.876539    0.183297
     24          7           0       -2.146056    1.672478   -0.350408
     25          6           0       -3.475569    1.402938   -0.432641
     26          6           0       -4.282673    2.695325   -0.543773
     27          6           0       -3.193549    3.793402   -0.240768
     28          6           0       -1.919150    2.973178   -0.204764
     29          6           0       -5.171286    2.988390   -1.788632
     30          6           0       -3.436751    4.707956    1.031574
     31          6           0       -2.845007    4.329232    2.372749
     32          7           0        0.705723    1.579349    0.043005
     33          6           0        0.635039    2.948868    0.079090
     34          6           0        1.902302    3.580490    0.013341
     35          6           0        2.778177    2.509001    0.156950
     36          6           0        2.002141    1.321981    0.193556
     37          6           0        2.339028    5.038042   -0.055619
     38          6           0        4.117534    2.118606    0.233433
     39          8           0        5.110831    2.818455    0.160480
     40          6           0        4.215856    0.493703    0.327011
     41          6           0        4.971293    0.024860   -0.828130
     42          8           0        4.617186    0.116658   -2.020257
     43          8           0        6.180258   -0.505863   -0.504730
     44          6           0        7.166816   -0.722051   -1.569024
     45          1           0       -0.568139   -4.413597    0.220604
     46          1           0       -5.094430    0.186265   -0.356854
     47          1           0       -0.631171    4.623239    0.221541
     48          1           0        3.820216   -2.449067   -0.346218
     49          1           0        1.827420   -4.307188    0.899495
     50          1           0        2.104307   -5.449531   -0.895320
     51          1           0        2.938712   -3.979499   -1.659649
     52          1           0        1.202461   -4.408861   -1.875934
     53          1           0        3.029250   -3.383294    2.272025
     54          1           0        3.548491   -1.808377    2.439459
     55          1           0        5.371337   -3.302582    2.998134
     56          1           0        5.755167   -2.406415    1.517741
     57          1           0       -4.044729   -5.109960    0.940638
     58          1           0       -2.331135   -5.231607    0.636096
     59          1           0       -3.449530   -5.412043   -0.717407
     60          1           0       -6.048312   -4.348974    1.085634
     61          1           0       -6.490839   -4.491892   -0.715864
     62          1           0       -7.467397   -3.613262    0.426768
     63          1           0       -5.036478    2.578986    0.235203
     64          1           0       -3.167417    4.580348   -0.993579
     65          1           0       -4.731771    3.786593   -2.386620
     66          1           0       -6.132711    3.326215   -1.402162
     67          1           0       -5.240055    2.045043   -2.329245
     68          1           0       -4.516355    4.776615    1.158040
     69          1           0       -3.062217    5.713485    0.838577
     70          1           0       -3.599259    4.316233    3.159891
     71          1           0       -2.033396    4.984085    2.692631
     72          1           0       -2.440824    3.327921    2.223934
     73          1           0        1.455523    5.676385   -0.016780
     74          1           0        2.903538    5.198887   -0.974420
     75          1           0        2.986106    5.244778    0.796355
     76          1           0        4.830131    0.392229    1.222171
     77          1           0        8.198824   -0.750610   -1.219117
     78          1           0        7.061031   -0.083077   -2.445222
     79          1           0        7.030243   -1.761743   -1.866897
 ---------------------------------------------------------------------

 SCF Done:  E(RPBE1PBE) =  -2033.71202969     A.U. after   16 cycles

 Excitation energies and oscillator strengths:

 Excited State   1:      Singlet-A      1.8775 eV  660.35 nm  f=0.3939  <S**2>=0.000
     155 ->158        -0.17171
     156 ->157         0.69336
     156 <-157        -0.11027
 This state for optimization and/or second-order correction.
 Total Energy, E(TD-HF/TD-DFT) =  -2033.64303105
 Copying the excited state density for this state as the 1-particle RhoCI density.

 Excited State   2:      Singlet-A      2.2058 eV  562.09 nm  f=0.1672  <S**2>=0.000
     155 ->157         0.67015
     156 ->158         0.21434

 Excited State   3:      Singlet-A      2.9019 eV  427.25 nm  f=0.0002  <S**2>=0.000
     153 ->157         0.17550
     154 ->157         0.65756
     154 ->159         0.13340

 Excited State   4:      Singlet-A      3.0084 eV  412.13 nm  f=0.0036  <S**2>=0.000
     152 ->157         0.19576
     153 ->157         0.62974
     154 ->157        -0.16429

 Excited State   5:      Singlet-A      3.1763 eV  390.34 nm  f=0.0042  <S**2>=0.000
     152 ->157         0.65430
     153 ->157        -0.20194

 The electronic state is 1-A.
 Alpha  occ. eigenvalues --  -46.92510 -19.25700 -19.19054 -19.18928 -19.18753
 Alpha  occ. eigenvalues --  -14.41630 -14.41049 -14.39185 -14.39158 -10.35923
 Alpha  occ. eigenvalues --  -10.32449 -10.31739 -10.28857 -10.28829 -10.28534
 Alpha  occ. eigenvalues --  -10.28204 -10.27793 -10.27697 -10.27696 -10.27686
 Alpha  occ. eigenvalues --  -10.26747 -10.26300 -10.26066 -10.25936 -10.25917
 Alpha  occ. eigenvalues --  -10.25825 -10.25800 -10.25756 -10.25373 -10.25361
 Alpha  occ. eigenvalues --  -10.25148 -10.25145 -10.24490 -10.24299 -10.24280
 Alpha  occ. eigenvalues --  -10.23895 -10.23891 -10.23557 -10.23409 -10.23208
 Alpha  occ. eigenvalues --  -10.22835 -10.22458 -10.22422  -3.14699  -1.87523
 Alpha  occ. eigenvalues --   -1.87034  -1.86971  -1.10620  -1.04720  -1.04138
 Alpha  occ. eigenvalues --   -1.00626  -1.00100  -0.99331  -0.98786  -0.98137
 Alpha  occ. eigenvalues --   -0.87000  -0.83327  -0.82541  -0.82464  -0.82179
 Alpha  occ. eigenvalues --   -0.81700  -0.80744  -0.78588  -0.78046  -0.76942
 Alpha  occ. eigenvalues --   -0.76015  -0.75503  -0.74614  -0.72675  -0.71809
 Alpha  occ. eigenvalues --   -0.71413  -0.70556  -0.69857  -0.68021  -0.65999
 Alpha  occ. eigenvalues --   -0.64028  -0.63658  -0.62570  -0.61544  -0.60046
 Alpha  occ. eigenvalues --   -0.59690  -0.59244  -0.58775  -0.56852  -0.54731
 Alpha  occ. eigenvalues --   -0.54417  -0.53661  -0.52878  -0.52448  -0.51895
 Alpha  occ. eigenvalues --   -0.50858  -0.49874  -0.49596  -0.49340  -0.48615
 Alpha  occ. eigenvalues --   -0.47867  -0.47776  -0.47242  -0.47131  -0.46766
 Alpha  occ. eigenvalues --   -0.46627  -0.45996  -0.45396  -0.45071  -0.44828
 Alpha  occ. eigenvalues --   -0.44474  -0.44159  -0.43882  -0.43679  -0.43425
 Alpha  occ. eigenvalues --   -0.43381  -0.43176  -0.42820  -0.42536  -0.42143
 Alpha  occ. eigenvalues --   -0.41827  -0.41607  -0.41216  -0.40942  -0.40730
 Alpha  occ. eigenvalues --   -0.40620  -0.40106  -0.39767  -0.39240  -0.38846
 Alpha  occ. eigenvalues --   -0.38784  -0.38403  -0.38211  -0.37978  -0.37747
 Alpha  occ. eigenvalues --   -0.37130  -0.36786  -0.36581  -0.36372  -0.36193
 Alpha  occ. eigenvalues --   -0.36011  -0.35475  -0.34969  -0.34759  -0.34484
 Alpha  occ. eigenvalues --   -0.33443  -0.33217  -0.32332  -0.31678  -0.31122
 Alpha  occ. eigenvalues --   -0.30586  -0.29752  -0.28649  -0.28008  -0.26991
 Alpha  occ. eigenvalues --   -0.26545  -0.26130  -0.25560  -0.25403  -0.20834
 Alpha  occ. eigenvalues --   -0.19079
 Alpha virt. eigenvalues --   -0.11472  -0.04789  -0.03946  -0.01936  -0.00980
 Alpha virt. eigenvalues --    0.00151   0.01810   0.02925   0.03592   0.04075
 Alpha virt. eigenvalues --    0.04538   0.05191   0.06019   0.06845   0.07170

 Mulliken charges:
               1
     1  Mg   0.972838
     2  C   -0.011741
     3  C   -0.054209
     4  C   -0.059795
     5  C   -0.060453
     6  N   -0.377295
     7  C    0.047830
     8  C   -0.113404
     9  C   -0.148843
    10  C    0.078057
    11  C    0.016525
    12  C    0.000295
    13  C   -0.126041
    14  H    0.041681
    15  N   -0.392345
    16  C    0.144265
    17  C   -0.177598
    18  C   -0.075304
    19  C    0.114977
    20  C    0.068391
    21  C    0.040240
    22  O   -0.257697
    23  C   -0.025194
    24  N   -0.397436
    25  C    0.073091
    26  C   -0.103577
    27  C   -0.066753
    28  C    0.081719
    29  C    0.023400
    30  C   -0.069200
    31  C   -0.064359
    32  N   -0.515664
    33  C    0.107883
    34  C   -0.187426
    35  C    0.036670
    36  C    0.161862
    37  C    0.084084
    38  C    0.051045
    39  O   -0.219903
    40  C   -0.095870
    41  C    0.286514
    42  O   -0.289007
    43  O   -0.363366
    44  C    0.131817
    45  H   -0.004916
    46  H    0.021854
    47  H    0.007131
    48  H    0.068883
    49  H    0.057075
    50  H    0.038340
    51  H    0.057159
    52  H    0.048627
    53  H    0.023509
    54  H    0.042878
    55  H    0.061331
    56  H    0.066599
    57  H    0.037749
    58  H    0.039761
    59  H    0.064466
    60  H    0.056571
    61  H    0.072213
    62  H    0.050132
    63  H    0.051856
    64  H    0.050831
    65  H    0.043271
    66  H    0.046458
    67  H    0.060519
    68  H    0.039756
    69  H    0.038061
    70  H    0.044079
    71  H    0.043794
    72  H    0.050848
    73  H    0.031787
    74  H    0.071429
    75  H    0.065886
    76  H    0.065736
    77  H    0.056506
    78  H    0.078710
    79  H    0.040408
 Sum of Mulliken charges =  -0.00000

 Dipole moment (field-independent basis, Debye):
    X=             -0.8815    Y=             -2.3349    Z=              3.2567  Tot=              4.1030
 Quadrupole moment (field-independent basis, Debye-Ang):
   XX=           -270.9408   YY=           -222.6968   ZZ=           -257.6989
   XY=            -23.4337   XZ=             -4.3776   YZ=              0.5651

 Normal termination of Gaussian 16 at Wed Oct 13 18:53:12 2021.
