 Gaussian 16, Revision A.03,
 Gaussian 16:  ES64L-G16RevA.03 25-Dec-2016

 --------------------------------------------------------
 #p PBE1PBE/Def2SVP td=(nstates=5) density=(transition=1)
 --------------------------------------------------------

 --------------------------------
 TDDFT excited states in gaussian
 --------------------------------
 Symbolic Z-matrix:
 Charge =  0 Multiplicity = 1

                         Standard orientation:
 ---------------------------------------------------------------------
 Center     Atomic      Atomic             Coordinates (Angstroms)
 Number     Number       Type             X           Y           Z
 ---------------------------------------------------------------------
      1         12           0      -19.348358    0.410233    0.150474
      2          6           0      -17.922727   -2.664905   -0.722670
      3          6           0      -16.135547    1.681612    0.001770
      4          6           0      -20.646261    3.447290    0.633936
      5          6           0      -22.515791   -0.875046   -0.581518
      6          7           0      -17.195875   -0.469668   -0.542718
      7          6           0      -16.890581   -1.769097   -0.722029
      8          6           0      -15.424870   -2.013989   -0.989133
      9          6           0      -14.908207   -0.629018   -0.441916
     10          6           0      -16.109694    0.306286   -0.352614
     11          6           0      -14.319541   -0.808833    0.982842
     12          6           0      -15.181564   -2.406864   -2.451811
     13          6           0      -15.969416   -1.703743   -3.576707
     14          1           0      -15.141914   -1.187482   -4.747859
     15          7           0      -18.527119    2.277224    0.307515
     16          6           0      -17.185357    2.550957    0.336886
     17          6           0      -16.982493    3.867770    0.954926
     18          6           0      -18.288166    4.500512    1.015882
     19          6           0      -19.212160    3.381860    0.656322
     20          6           0      -15.559855    4.530607    1.104757
     21          6           0      -18.587476    5.958874    1.371779
     22          8           0      -17.717084    6.680968    1.771471
     23          6           0      -19.989830    6.485092    1.267029
     24          7           0      -21.347401    1.194973   -0.186515
     25          6           0      -21.692111    2.504129    0.197711
     26          6           0      -23.246781    2.797742    0.070898
     27          6           0      -23.813258    1.337133   -0.267211
     28          6           0      -22.475019    0.466488   -0.312176
     29          6           0      -24.035312    3.537000    1.264014
     30          6           0      -24.718193    1.182358   -1.573397
     31          6           0      -25.846652    0.058754   -1.349566
     32          7           0      -20.148570   -1.417304   -0.471800
     33          6           0      -21.462311   -1.806809   -0.636011
     34          6           0      -21.504806   -3.235251   -0.924144
     35          6           0      -20.160390   -3.688503   -0.916167
     36          6           0      -19.354439   -2.511091   -0.710536
     37          6           0      -22.737490   -4.095989   -1.016341
     38          6           0      -19.192676   -4.811994   -1.137795
     39          8           0      -19.384916   -5.947925   -1.510361
     40          6           0      -17.755276   -4.162078   -0.957813
     41          6           0      -17.109689   -4.864483    0.204902
     42          8           0      -16.609714   -6.015442    0.140732
     43          8           0      -17.025301   -3.996725    1.284087
     44          6           0      -16.231858   -4.451931    2.376447
     45          1           0      -15.114242    2.065836    0.045740
     46          1           0      -21.190980    4.332078    0.970598
     47          1           0      -23.519672   -1.304153   -0.609807
     48          1           0      -15.010836   -2.762004   -0.313266
     49          1           0      -14.147060   -0.104705   -1.018125
     50          1           0      -14.541068    0.116999    1.514303
     51          1           0      -13.267221   -1.084449    0.930263
     52          1           0      -14.784966   -1.521595    1.664338
     53          1           0      -15.497628   -3.446584   -2.530792
     54          1           0      -14.112746   -2.325223   -2.649826
     55          1           0      -16.464459   -0.825234   -3.163613
     56          1           0      -16.667556   -2.424766   -4.000970
     57          1           0      -15.146947    4.951108    0.187410
     58          1           0      -14.858751    3.799812    1.508000
     59          1           0      -15.473096    5.312686    1.858152
     60          1           0      -20.030879    7.566663    1.400015
     61          1           0      -20.673676    6.030404    1.984046
     62          1           0      -20.210478    6.316125    0.212718
     63          1           0      -23.234083    3.430715   -0.815596
     64          1           0      -24.395378    0.942030    0.564835
     65          1           0      -23.985656    4.606783    1.064407
     66          1           0      -23.600182    3.304128    2.235492
     67          1           0      -25.063395    3.174389    1.272855
     68          1           0      -24.141200    0.774688   -2.403372
     69          1           0      -25.135706    2.142247   -1.878368
     70          1           0      -25.728201   -0.760496   -2.058836
     71          1           0      -26.831525    0.501619   -1.494969
     72          1           0      -25.855779   -0.503410   -0.416398
     73          1           0      -23.371447   -3.702937   -1.810422
     74          1           0      -23.287671   -4.048049   -0.076361
     75          1           0      -22.504784   -5.127716   -1.279439
     76          1           0      -17.209758   -4.489568   -1.842554
     77          1           0      -16.156094   -3.658329    3.119435
     78          1           0      -15.279970   -4.856482    2.031993
     79          1           0      -16.733004   -5.232435    2.948893
     80         12           0       19.414972   -0.020613   -0.685427
     81          6           0       16.866864    0.307256    1.744511
     82          6           0       20.484126   -2.830197    0.955371
     83          6           0       22.151481    0.047721   -2.549474
     84          6           0       18.487374    3.113200   -1.938518
     85          7           0       18.841677   -1.040862    1.242933
     86          6           0       17.690100   -0.768709    1.986267
     87          6           0       17.406217   -1.935074    2.964656
     88          6           0       18.600320   -2.923886    2.702348
     89          6           0       19.378167   -2.277698    1.522568
     90          6           0       19.386680   -3.397452    3.912256
     91          6           0       16.030821   -2.610095    2.846837
     92          6           0       15.229929   -2.644933    4.177417
     93          1           0       14.787710   -4.017296    4.634622
     94          7           0       21.043909   -1.298370   -0.820031
     95          6           0       21.348312   -2.384750   -0.053520
     96          6           0       22.500729   -3.026175   -0.640281
     97          6           0       23.098046   -2.098009   -1.596506
     98          6           0       22.078824   -1.060984   -1.645475
     99          6           0       23.131352   -4.390068   -0.046446
    100          6           0       24.456408   -1.995911   -2.143914
    101          8           0       24.864515   -1.196850   -2.937767
    102          6           0       25.461570   -3.020695   -1.626721
    103          7           0       20.303903    1.519199   -1.914378
    104          6           0       21.417847    1.255735   -2.624951
    105          6           0       21.645323    2.328546   -3.692496
    106          6           0       20.301266    3.073968   -3.716722
    107          6           0       19.614831    2.532878   -2.482462
    108          6           0       22.863348    3.287078   -3.306151
    109          6           0       19.495746    2.632343   -5.042479
    110          6           0       18.912415    1.192983   -5.028490
    111          7           0       17.914400    1.431223   -0.338313
    112          6           0       17.673464    2.613597   -0.927502
    113          6           0       16.520194    3.200746   -0.300006
    114          6           0       16.152668    2.319575    0.699540
    115          6           0       17.066560    1.262232    0.703446
    116          6           0       15.830331    4.516791   -0.604795
    117          6           0       15.175804    2.189065    1.783977
    118          8           0       14.308091    2.840057    2.294123
    119          6           0       15.545095    0.841952    2.459482
    120          6           0       15.827399    1.172832    3.878351
    121          8           0       16.639678    2.011144    4.178997
    122          8           0       15.015108    0.498300    4.775633
    123          6           0       15.031653    0.994231    6.192505
    124          1           0       20.684566   -3.826111    1.356219
    125          1           0       22.972705    0.060237   -3.269661
    126          1           0       18.000706    3.978204   -2.393970
    127          1           0       17.547968   -1.576123    3.984261
    128          1           0       18.180378   -3.873157    2.369158
    129          1           0       19.198617   -2.763079    4.777194
    130          1           0       20.460916   -3.465886    3.738844
    131          1           0       18.970909   -4.370448    4.172793
    132          1           0       15.998335   -3.656252    2.542487
    133          1           0       15.418174   -2.108262    2.098228
    134          1           0       14.411091   -1.925600    4.169735
    135          1           0       15.898417   -2.309680    4.969384
    136          1           0       23.298959   -5.069679   -0.881919
    137          1           0       22.503012   -4.951349    0.644080
    138          1           0       24.042611   -4.330242    0.548593
    139          1           0       25.038456   -3.971249   -1.952408
    140          1           0       25.441442   -2.904686   -0.543560
    141          1           0       26.456090   -2.946898   -2.067794
    142          1           0       21.791315    1.922874   -4.694167
    143          1           0       20.271070    4.159172   -3.616645
    144          1           0       23.292039    3.644342   -4.242837
    145          1           0       23.696503    2.870225   -2.739288
    146          1           0       22.388787    4.115368   -2.780235
    147          1           0       20.082800    2.752622   -5.952764
    148          1           0       18.568877    3.202030   -5.110755
    149          1           0       18.521444    0.836871   -5.981015
    150          1           0       18.084758    1.183157   -4.319092
    151          1           0       19.694499    0.526292   -4.663755
    152          1           0       15.397366    4.576807   -1.603056
    153          1           0       16.634517    5.248437   -0.531330
    154          1           0       15.102523    4.796977    0.156691
    155          1           0       14.618591    0.271477    2.396803
    156          1           0       15.079935    0.031949    6.702191
    157          1           0       14.115730    1.513357    6.474196
    158          1           0       15.826554    1.656740    6.534104
 ---------------------------------------------------------------------

 SCF Done:  E(RPBE1PBE) =  -4067.37839418     A.U. after   16 cycles

 Excitation energies and oscillator strengths:

 Excited State   1:      Singlet-A      1.8679 eV  663.76 nm  f=0.3827  <S**2>=0.000
     309 -> 316        0.16807
     311 -> 313        0.69445
     311 <- 313       -0.11165
 This state for optimization and/or second-order correction.
 Total Energy, E(TD-HF/TD-DFT) =  -4067.30975037
 Copying the excited state density for this state as the 1-particle RhoCI density.

 Excited State   2:      Singlet-A      1.8969 eV  653.62 nm  f=0.3521  <S**2>=0.000
     310 -> 315       -0.18775
     312 -> 314        0.68714

 Excited State   3:      Singlet-A      1.9304 eV  642.26 nm  f=0.0000  <S**2>=0.000
     312 -> 313        0.70710

 Excited State   4:      Singlet-A      2.0947 eV  591.89 nm  f=0.0000  <S**2>=0.000
     311 -> 314        0.70711

 Excited State   5:      Singlet-A      2.2023 eV  562.97 nm  f=0.1279  <S**2>=0.000
     309 -> 313        0.66413
     311 -> 316       -0.22444

 The electronic state is 1-A.
 Alpha  occ. eigenvalues --  -46.93785 -46.92937 -19.26692 -19.25774 -19.20279
 Alpha  occ. eigenvalues --  -19.19880 -19.19785 -19.19465 -19.19105 -19.18639
 Alpha  occ. eigenvalues --  -14.41858 -14.41697 -14.41389 -14.41193 -14.40054
 Alpha  occ. eigenvalues --  -14.39441 -14.39220 -14.38872 -10.37021 -10.35782
 Alpha  occ. eigenvalues --  -10.33077 -10.32317 -10.32279 -10.31501 -10.30482
 Alpha  occ. eigenvalues --  -10.29297 -10.29236 -10.29183 -10.29027 -10.28732
 Alpha  occ. eigenvalues --  -10.28542 -10.28515 -10.28467 -10.28441 -10.28355
 Alpha  occ. eigenvalues --  -10.28055 -10.27971 -10.27713 -10.27704 -10.27501
 Alpha  occ. eigenvalues --  -10.27427 -10.27187 -10.27045 -10.27005 -10.26866
 Alpha  occ. eigenvalues --  -10.26808 -10.26534 -10.26235 -10.26221 -10.26141
 Alpha  occ. eigenvalues --  -10.26015 -10.26013 -10.25851 -10.25848 -10.25829
 Alpha  occ. eigenvalues --  -10.25744 -10.25695 -10.25575 -10.25555 -10.25500
 Alpha  occ. eigenvalues --  -10.25457 -10.25388 -10.25336 -10.25276 -10.25203
 Alpha  occ. eigenvalues --  -10.24890 -10.24761 -10.24717 -10.24481 -10.24221
 Alpha  occ. eigenvalues --  -10.24207 -10.24115 -10.23945 -10.23935 -10.23878
 Alpha  occ. eigenvalues --  -10.23812 -10.23797 -10.23596 -10.23570 -10.23520
 Alpha  occ. eigenvalues --  -10.23494 -10.23451 -10.23440 -10.23040 -10.22711
 Alpha  occ. eigenvalues --  -10.22367  -3.15732  -3.14925  -1.88532  -1.88124
 Alpha  occ. eigenvalues --   -1.87943  -1.87747  -1.87312  -1.87139  -1.11226
 Alpha  occ. eigenvalues --   -1.10403  -1.06405  -1.06137  -1.05848  -1.05524
 Alpha  occ. eigenvalues --   -1.02426  -1.01860  -0.99821  -0.99334  -0.98971
 Alpha  occ. eigenvalues --   -0.98541  -0.98432  -0.97681  -0.96628  -0.96616
 Alpha  occ. eigenvalues --   -0.86885  -0.86698  -0.83271  -0.83188  -0.83078
 Alpha  occ. eigenvalues --   -0.82589  -0.82584  -0.82087  -0.82002  -0.81696
 Alpha  occ. eigenvalues --   -0.80864  -0.80613  -0.80486  -0.79808  -0.79099
 Alpha  occ. eigenvalues --   -0.78718  -0.77764  -0.77661  -0.76866  -0.76766
 Alpha  occ. eigenvalues --   -0.76068  -0.75491  -0.75191  -0.75143  -0.74733
 Alpha  occ. eigenvalues --   -0.74430  -0.72677  -0.71838  -0.71705  -0.71599
 Alpha  occ. eigenvalues --   -0.71049  -0.70922  -0.70710  -0.70454  -0.69652
 Alpha  occ. eigenvalues --   -0.69592  -0.67556  -0.67305  -0.66466  -0.66235
 Alpha  occ. eigenvalues --   -0.64245  -0.63771  -0.63696  -0.63638  -0.62753
 Alpha  occ. eigenvalues --   -0.62516  -0.61635  -0.61539  -0.60339  -0.59914
 Alpha  occ. eigenvalues --   -0.59843  -0.59652  -0.59425  -0.59317  -0.59162
 Alpha  occ. eigenvalues --   -0.59062  -0.58296  -0.56843  -0.55022  -0.54561
 Alpha  occ. eigenvalues --   -0.54275  -0.53874  -0.53859  -0.53459  -0.53360
 Alpha  occ. eigenvalues --   -0.52818  -0.52620  -0.52299  -0.52162  -0.51908
 Alpha  occ. eigenvalues --   -0.50767  -0.50620  -0.50617  -0.50062  -0.49902
 Alpha  occ. eigenvalues --   -0.49712  -0.49628  -0.49226  -0.48834  -0.48669
 Alpha  occ. eigenvalues --   -0.48346  -0.48020  -0.47792  -0.47566  -0.47494
 Alpha  occ. eigenvalues --   -0.47308  -0.47093  -0.46940  -0.46703  -0.46548
 Alpha  occ. eigenvalues --   -0.46536  -0.46169  -0.46130  -0.46019  -0.45742
 Alpha  occ. eigenvalues --   -0.45724  -0.45336  -0.45333  -0.45160  -0.44649
 Alpha  occ. eigenvalues --   -0.44620  -0.44539  -0.44393  -0.44322  -0.44119
 Alpha  occ. eigenvalues --   -0.44070  -0.44036  -0.43923  -0.43656  -0.43595
 Alpha  occ. eigenvalues --   -0.43359  -0.43070  -0.43056  -0.42940  -0.42564
 Alpha  occ. eigenvalues --   -0.42266  -0.42217  -0.42042  -0.41960  -0.41899
 Alpha  occ. eigenvalues --   -0.41667  -0.41584  -0.41340  -0.41105  -0.41074
 Alpha  occ. eigenvalues --   -0.40901  -0.40783  -0.40782  -0.40602  -0.40488
 Alpha  occ. eigenvalues --   -0.40316  -0.40258  -0.40112  -0.40092  -0.39947
 Alpha  occ. eigenvalues --   -0.39814  -0.39614  -0.39321  -0.39026  -0.38918
 Alpha  occ. eigenvalues --   -0.38801  -0.38668  -0.38505  -0.38433  -0.38162
 Alpha  occ. eigenvalues --   -0.38161  -0.38104  -0.37984  -0.37813  -0.37792
 Alpha  occ. eigenvalues --   -0.37719  -0.37632  -0.37343  -0.37190  -0.37145
 Alpha  occ. eigenvalues --   -0.37036  -0.36984  -0.36872  -0.36850  -0.36622
 Alpha  occ. eigenvalues --   -0.36321  -0.36302  -0.36143  -0.35741  -0.35268
 Alpha  occ. eigenvalues --   -0.35243  -0.34832  -0.34679  -0.34185  -0.33998
 Alpha  occ. eigenvalues --   -0.33887  -0.33304  -0.33140  -0.33056  -0.32826
 Alpha  occ. eigenvalues --   -0.32248  -0.32206  -0.32106  -0.31723  -0.31370
 Alpha  occ. eigenvalues --   -0.31363  -0.31200  -0.29790  -0.29602  -0.29447
 Alpha  occ. eigenvalues --   -0.29122  -0.28751  -0.28697  -0.27244  -0.26920
 Alpha  occ. eigenvalues --   -0.26177  -0.26156  -0.26064  -0.26001  -0.25756
 Alpha  occ. eigenvalues --   -0.25756  -0.25443  -0.25120  -0.21135  -0.20976
 Alpha  occ. eigenvalues --   -0.19197  -0.19027
 Alpha virt. eigenvalues --   -0.11593  -0.11156  -0.05533  -0.05005  -0.04126
 Alpha virt. eigenvalues --   -0.03693  -0.02395  -0.01978  -0.01937  -0.01129
 Alpha virt. eigenvalues --   -0.00123   0.00807   0.01148   0.01150   0.01981

 Mulliken charges:
               1
     1  Mg  12.000068
     2  C    5.999657
     3  C    6.000055
     4  C    6.000579
     5  C    5.999863
     6  N    6.999731
     7  C    6.000667
     8  C    5.999771
     9  C    6.000115
    10  C    5.999465
    11  C    6.000076
    12  C    5.999958
    13  C    5.999882
    14  H    1.000100
    15  N    7.000131
    16  C    5.999252
    17  C    5.999442
    18  C    5.999754
    19  C    5.999240
    20  C    6.000065
    21  C    5.999744
    22  O    7.999517
    23  C    6.000059
    24  N    7.000139
    25  C    5.999106
    26  C    6.000190
    27  C    5.999837
    28  C    6.000626
    29  C    6.000036
    30  C    5.999914
    31  C    5.999947
    32  N    6.999951
    33  C    6.000800
    34  C    6.000681
    35  C    6.000062
    36  C    6.000653
    37  C    5.999976
    38  C    6.000476
    39  O    8.000653
    40  C    5.999975
    41  C    6.000022
    42  O    8.000151
    43  O    8.000037
    44  C    5.999940
    45  H    0.999606
    46  H    0.999913
    47  H    1.000304
    48  H    1.000002
    49  H    0.999896
    50  H    1.000154
    51  H    0.999712
    52  H    0.999768
    53  H    0.999910
    54  H    1.000072
    55  H    1.000192
    56  H    0.999910
    57  H    0.999499
    58  H    0.999579
    59  H    0.999633
    60  H    0.999734
    61  H    0.999816
    62  H    0.999856
    63  H    1.000022
    64  H    1.000065
    65  H    1.000081
    66  H    0.999978
    67  H    0.999874
    68  H    0.999984
    69  H    1.000269
    70  H    0.999944
    71  H    1.000190
    72  H    0.999982
    73  H    1.000431
    74  H    1.000463
    75  H    1.000342
    76  H    1.000165
    77  H    1.000145
    78  H    1.000061
    79  H    1.000085
    80  Mg  12.000634
    81  C    5.976914
    82  C    6.005626
    83  C    6.018651
    84  C    5.998222
    85  N    6.991502
    86  C    6.031760
    87  C    5.987666
    88  C    6.010192
    89  C    5.974479
    90  C    6.002709
    91  C    6.000165
    92  C    5.997233
    93  H    1.007315
    94  N    7.002955
    95  C    5.966416
    96  C    5.976677
    97  C    5.979981
    98  C    5.975145
    99  C    6.001111
   100  C    5.989945
   101  O    7.970034
   102  C    6.002167
   103  N    7.005406
   104  C    5.965954
   105  C    6.009149
   106  C    5.993437
   107  C    6.027265
   108  C    6.005254
   109  C    5.994937
   110  C    5.998491
   111  N    6.995345
   112  C    6.033833
   113  C    6.031755
   114  C    5.998273
   115  C    6.038450
   116  C    6.000925
   117  C    6.014835
   118  O    8.025376
   119  C    6.001156
   120  C    6.007162
   121  O    8.001569
   122  O    8.002268
   123  C    5.997674
   124  H    0.989268
   125  H    0.994890
   126  H    1.011091
   127  H    1.001598
   128  H    0.997486
   129  H    0.989722
   130  H    1.006130
   131  H    0.994376
   132  H    1.007544
   133  H    0.994324
   134  H    0.995667
   135  H    1.001779
   136  H    0.984192
   137  H    0.982634
   138  H    0.981217
   139  H    0.993980
   140  H    0.995301
   141  H    0.985195
   142  H    0.999645
   143  H    0.999295
   144  H    0.996324
   145  H    1.006290
   146  H    0.988196
   147  H    1.010420
   148  H    0.997300
   149  H    1.004273
   150  H    0.989454
   151  H    1.017224
   152  H    1.019580
   153  H    1.016860
   154  H    1.013444
   155  H    1.007704
   156  H    1.005884
   157  H    1.002380
   158  H    1.003320
 Sum of Mulliken charges = 624.00000

 Dipole moment (field-independent basis, Debye):
    X=             -8.0975    Y=              6.4261    Z=              1.0895  Tot=             10.3948
 Quadrupole moment (field-independent basis, Debye-Ang):
   XX=           -310.2937   YY=              0.7021   ZZ=              3.1955
   XY=            133.6125   XZ=             25.7050   YZ=             -2.8060

 Normal termination of Gaussian 16 at Thu Oct 14 23:24:02 2021.
