 Gaussian 16, Revision A.03,
 Gaussian 16:  ES64L-G16RevA.03 25-Dec-2016

 --------------------------------------------------------
 #p PBE1PBE/Def2SVP td=(nstates=5) density=(transition=1)
 --------------------------------------------------------

 --------------------------------
 TDDFT excited states in gaussian
 --------------------------------
 Symbolic Z-matrix:
 Charge =  0 Multiplicity = 1

                         Standard orientation:
 ---------------------------------------------------------------------
 Center     Atomic      Atomic             Coordinates (Angstroms)
 Number     Number       Type             X           Y           Z
 ---------------------------------------------------------------------
      1         12           0      -13.883788    0.920463    0.292060
      2          6           0      -13.979110   -2.644255   -0.157656
      3          6           0      -10.392549    0.674949   -0.275263
      4          6           0      -13.540313    4.354671    0.825496
      5          6           0      -17.099040    0.977569    1.197156
      6          7           0      -12.329535   -0.916750    0.028743
      7          6           0      -12.652657   -2.201517   -0.232550
      8          6           0      -11.346875   -3.050884   -0.436738
      9          6           0      -10.252024   -1.941573   -0.243408
     10          6           0      -11.019780   -0.599770   -0.236046
     11          6           0       -9.384360   -2.177570    1.041907
     12          6           0      -11.270346   -3.726458   -1.805683
     13          6           0      -10.809393   -5.147028   -1.816040
     14          1           0      -10.805707   -5.913182   -3.146788
     15          7           0      -12.298978    2.345326    0.086415
     16          6           0      -10.964833    2.022429   -0.138149
     17          6           0      -10.208897    3.257212   -0.207866
     18          6           0      -11.070212    4.322593   -0.004220
     19          6           0      -12.372207    3.692633    0.399941
     20          6           0       -8.714052    3.339468   -0.325253
     21          6           0      -10.804580    5.882665    0.050785
     22          8           0      -11.610177    6.761545    0.237058
     23          6           0       -9.431740    6.395615   -0.326624
     24          7           0      -15.036528    2.405665    1.044015
     25          6           0      -14.759296    3.739603    1.192817
     26          6           0      -15.885183    4.490668    1.941234
     27          6           0      -17.105237    3.480105    1.833522
     28          6           0      -16.362424    2.201351    1.287929
     29          6           0      -15.482468    4.906750    3.392183
     30          6           0      -18.258002    3.954347    0.897117
     31          6           0      -17.920232    4.013478   -0.590911
     32          7           0      -15.274473   -0.460782    0.526785
     33          6           0      -16.649770   -0.303262    0.855479
     34          6           0      -17.326902   -1.598103    0.865489
     35          6           0      -16.342115   -2.502613    0.429416
     36          6           0      -15.128821   -1.794391    0.222380
     37          6           0      -18.728883   -1.832780    1.190125
     38          6           0      -16.149074   -3.920255    0.141797
     39          8           0      -16.961294   -4.830074    0.144735
     40          6           0      -14.567737   -4.103661   -0.171714
     41          6           0      -14.656799   -4.810632   -1.526318
     42          8           0      -14.986914   -4.333522   -2.627007
     43          8           0      -14.379805   -6.091675   -1.356033
     44          6           0      -14.117419   -6.963199   -2.572389
     45          1           0       -9.332588    0.596400   -0.524581
     46          1           0      -13.528484    5.429744    1.021159
     47          1           0      -18.160728    1.080083    1.429902
     48          1           0      -11.427254   -3.844334    0.305519
     49          1           0       -9.581382   -1.883682   -1.101772
     50          1           0       -8.306283   -2.225293    0.888377
     51          1           0       -9.744407   -2.985708    1.678882
     52          1           0       -9.352775   -1.355428    1.757232
     53          1           0      -10.354055   -3.287407   -2.200726
     54          1           0      -12.126039   -3.503266   -2.443880
     55          1           0      -11.235194   -5.863234   -1.111433
     56          1           0       -9.760942   -5.063178   -1.529781
     57          1           0       -8.277578    2.362999   -0.533674
     58          1           0       -8.201072    3.741229    0.549941
     59          1           0       -8.338734    3.953382   -1.144165
     60          1           0       -9.153844    6.127434   -1.345857
     61          1           0       -8.813361    5.946692    0.450728
     62          1           0       -9.489675    7.456713   -0.084039
     63          1           0      -15.968621    5.432980    1.398623
     64          1           0      -17.467932    3.031106    2.758423
     65          1           0      -15.373602    5.985370    3.505141
     66          1           0      -14.626239    4.413046    3.850445
     67          1           0      -16.340610    4.539485    3.955332
     68          1           0      -18.726614    4.817792    1.369517
     69          1           0      -19.051080    3.209439    0.959984
     70          1           0      -16.878685    3.827865   -0.850732
     71          1           0      -18.146333    5.033986   -0.899006
     72          1           0      -18.385940    3.250297   -1.213364
     73          1           0      -19.043855   -2.875620    1.147862
     74          1           0      -19.287672   -1.239815    0.466183
     75          1           0      -18.910384   -1.411902    2.180091
     76          1           0      -14.098289   -4.838422    0.482361
     77          1           0      -13.608902   -7.850088   -2.193672
     78          1           0      -13.422495   -6.508799   -3.277925
     79          1           0      -15.017649   -7.197873   -3.141569
     80         12           0       14.656435   -0.252746   -0.221430
     81          6           0       11.199799   -1.055140   -0.586843
     82          6           0       13.983619    2.513878   -1.925866
     83          6           0       17.557488    1.070384    0.898711
     84          6           0       14.705111   -2.758935    2.311719
     85          7           0       12.900065    0.534996   -1.214543
     86          6           0       11.591639    0.017108   -1.327802
     87          6           0       10.643531    0.924698   -2.173216
     88          6           0       11.623238    2.043416   -2.627799
     89          6           0       12.956944    1.643808   -1.961838
     90          6           0       11.595551    2.084162   -4.164774
     91          6           0        9.351644    1.511575   -1.456665
     92          6           0        8.001721    1.023037   -1.969071
     93          1           0        6.992023    2.090114   -2.438884
     94          7           0       15.682172    1.456337   -0.526545
     95          6           0       15.204572    2.519091   -1.293170
     96          6           0       16.193664    3.509830   -1.433823
     97          6           0       17.323289    3.086426   -0.758188
     98          6           0       16.927270    1.867363   -0.082597
     99          6           0       16.127511    4.862797   -2.235064
    100          6           0       18.622719    3.856983   -0.762414
    101          8           0       18.828445    4.824282   -1.433357
    102          6           0       19.811338    3.211143    0.105780
    103          7           0       15.924901   -0.712910    1.420326
    104          6           0       17.089024   -0.025564    1.631127
    105          6           0       17.714120   -0.579152    2.976526
    106          6           0       16.926476   -1.841718    3.364295
    107          6           0       15.752926   -1.777405    2.313942
    108          6           0       19.210538   -0.712157    2.971273
    109          6           0       16.356755   -1.674022    4.767415
    110          6           0       16.019109   -2.927464    5.530211
    111          7           0       13.327725   -1.812120    0.530288
    112          6           0       13.507866   -2.745849    1.522715
    113          6           0       12.368115   -3.583346    1.621062
    114          6           0       11.390506   -3.038622    0.755168
    115          6           0       12.019042   -1.881781    0.213838
    116          6           0       12.150539   -4.700504    2.560941
    117          6           0       10.027012   -3.083586    0.209942
    118          8           0        9.148544   -3.936129    0.396987
    119          6           0        9.834849   -1.816468   -0.708827
    120          6           0        9.734654   -2.239157   -2.080308
    121          8           0       10.746442   -2.615214   -2.718149
    122          8           0        8.432927   -2.181414   -2.423831
    123          6           0        8.063740   -2.379795   -3.852244
    124          1           0       13.808014    3.416612   -2.515259
    125          1           0       18.522315    1.492972    1.187182
    126          1           0       14.704287   -3.617647    2.985821
    127          1           0       10.295587    0.376976   -3.048967
    128          1           0       11.367359    3.029591   -2.241580
    129          1           0       12.399776    2.750459   -4.475474
    130          1           0       10.669684    2.441268   -4.615515
    131          1           0       11.775197    1.104642   -4.609330
    132          1           0        9.358007    2.565560   -1.734551
    133          1           0        9.438798    1.397957   -0.376057
    134          1           0        7.554462    0.421183   -1.177234
    135          1           0        8.159484    0.388136   -2.841629
    136          1           0       16.409494    5.638368   -1.522679
    137          1           0       15.125118    5.065336   -2.611955
    138          1           0       16.709353    4.899378   -3.156018
    139          1           0       20.689913    3.820914   -0.102774
    140          1           0       19.861533    2.190106   -0.273206
    141          1           0       19.415124    3.287957    1.118264
    142          1           0       17.492233    0.211425    3.694231
    143          1           0       17.465503   -2.788426    3.329659
    144          1           0       19.483333   -1.525888    3.642676
    145          1           0       19.595456    0.247534    3.316712
    146          1           0       19.650545   -0.818518    1.980404
    147          1           0       15.471869   -1.037584    4.796842
    148          1           0       17.015284   -1.091291    5.411483
    149          1           0       16.406732   -3.829700    5.057466
    150          1           0       14.932695   -2.999636    5.585085
    151          1           0       16.291455   -2.825051    6.580613
    152          1           0       13.089436   -5.176150    2.846143
    153          1           0       11.511745   -5.406493    2.029705
    154          1           0       11.702157   -4.249246    3.446349
    155          1           0        9.039009   -1.140997   -0.394977
    156          1           0        7.098708   -2.873866   -3.730447
    157          1           0        8.791060   -2.956535   -4.422868
    158          1           0        7.772134   -1.440710   -4.323754
 ---------------------------------------------------------------------

 SCF Done:  E(RPBE1PBE) =  -4067.36080287     A.U. after   16 cycles

 Excitation energies and oscillator strengths:

 Excited State   1:      Singlet-A      1.8202 eV  681.16 nm  f=0.3643  <S**2>=0.000
     310 -> 315        0.17691
     312 -> 314        0.69235
     312 <- 314       -0.10910
 This state for optimization and/or second-order correction.
 Total Energy, E(TD-HF/TD-DFT) =  -4067.29391200
 Copying the excited state density for this state as the 1-particle RhoCI density.

 Excited State   2:      Singlet-A      1.8651 eV  664.76 nm  f=0.0000  <S**2>=0.000
     312 -> 313        0.70710

 Excited State   3:      Singlet-A      1.8689 eV  663.42 nm  f=0.3650  <S**2>=0.000
     309 -> 316       -0.16694
     311 -> 313        0.69417
     311 <- 313       -0.10954

 Excited State   4:      Singlet-A      1.9920 eV  622.42 nm  f=0.0000  <S**2>=0.000
     311 -> 314        0.70710

 Excited State   5:      Singlet-A      2.2319 eV  555.52 nm  f=0.0931  <S**2>=0.000
     310 -> 314        0.63928
     312 -> 315       -0.29188

 The electronic state is 1-A.
 Alpha  occ. eigenvalues --  -46.92012 -46.91703 -19.27253 -19.25563 -19.20020
 Alpha  occ. eigenvalues --  -19.19790 -19.19651 -19.19617 -19.19224 -19.18258
 Alpha  occ. eigenvalues --  -14.42042 -14.41953 -14.41845 -14.41102 -14.39722
 Alpha  occ. eigenvalues --  -14.39405 -14.39164 -14.38319 -10.36597 -10.35500
 Alpha  occ. eigenvalues --  -10.32784 -10.32683 -10.32595 -10.32570 -10.30166
 Alpha  occ. eigenvalues --  -10.29550 -10.29409 -10.29316 -10.29226 -10.29075
 Alpha  occ. eigenvalues --  -10.28972 -10.28812 -10.28671 -10.28577 -10.28514
 Alpha  occ. eigenvalues --  -10.28280 -10.28048 -10.27824 -10.27667 -10.27110
 Alpha  occ. eigenvalues --  -10.26754 -10.26657 -10.26625 -10.26538 -10.26396
 Alpha  occ. eigenvalues --  -10.26294 -10.26259 -10.26220 -10.26194 -10.26193
 Alpha  occ. eigenvalues --  -10.26004 -10.25977 -10.25944 -10.25941 -10.25834
 Alpha  occ. eigenvalues --  -10.25730 -10.25730 -10.25697 -10.25458 -10.25165
 Alpha  occ. eigenvalues --  -10.25143 -10.25112 -10.25107 -10.24909 -10.24821
 Alpha  occ. eigenvalues --  -10.24614 -10.24485 -10.24415 -10.24262 -10.24205
 Alpha  occ. eigenvalues --  -10.23921 -10.23670 -10.23648 -10.23639 -10.23621
 Alpha  occ. eigenvalues --  -10.23564 -10.23514 -10.23501 -10.23459 -10.23326
 Alpha  occ. eigenvalues --  -10.23203 -10.23109 -10.22964 -10.22908 -10.22815
 Alpha  occ. eigenvalues --  -10.22713  -3.14184  -3.13970  -1.87000  -1.86796
 Alpha  occ. eigenvalues --   -1.86538  -1.86434  -1.86361  -1.86199  -1.11513
 Alpha  occ. eigenvalues --   -1.10721  -1.06667  -1.06142  -1.04812  -1.03631
 Alpha  occ. eigenvalues --   -1.02286  -1.00085  -0.98752  -0.98377  -0.97943
 Alpha  occ. eigenvalues --   -0.97726  -0.97555  -0.96853  -0.96449  -0.96366
 Alpha  occ. eigenvalues --   -0.86709  -0.85203  -0.84036  -0.83650  -0.83466
 Alpha  occ. eigenvalues --   -0.83046  -0.83011  -0.82277  -0.81716  -0.81697
 Alpha  occ. eigenvalues --   -0.81228  -0.81097  -0.80900  -0.80744  -0.79129
 Alpha  occ. eigenvalues --   -0.78651  -0.78374  -0.77850  -0.77613  -0.76620
 Alpha  occ. eigenvalues --   -0.76234  -0.75649  -0.75574  -0.75319  -0.74583
 Alpha  occ. eigenvalues --   -0.74487  -0.72414  -0.72162  -0.71727  -0.71602
 Alpha  occ. eigenvalues --   -0.71232  -0.70983  -0.70649  -0.70258  -0.69510
 Alpha  occ. eigenvalues --   -0.69470  -0.67336  -0.67044  -0.66243  -0.66072
 Alpha  occ. eigenvalues --   -0.64398  -0.63623  -0.63149  -0.63097  -0.62304
 Alpha  occ. eigenvalues --   -0.61949  -0.61698  -0.60643  -0.60152  -0.60068
 Alpha  occ. eigenvalues --   -0.59874  -0.59611  -0.59591  -0.59231  -0.59125
 Alpha  occ. eigenvalues --   -0.58638  -0.56931  -0.56383  -0.54718  -0.54301
 Alpha  occ. eigenvalues --   -0.54103  -0.53986  -0.53911  -0.53468  -0.53108
 Alpha  occ. eigenvalues --   -0.52903  -0.52376  -0.51954  -0.51898  -0.51013
 Alpha  occ. eigenvalues --   -0.50642  -0.50629  -0.50265  -0.49982  -0.49652
 Alpha  occ. eigenvalues --   -0.49624  -0.49370  -0.49143  -0.48964  -0.48512
 Alpha  occ. eigenvalues --   -0.48490  -0.47832  -0.47793  -0.47725  -0.47518
 Alpha  occ. eigenvalues --   -0.47514  -0.47246  -0.47011  -0.46950  -0.46809
 Alpha  occ. eigenvalues --   -0.46633  -0.46319  -0.46191  -0.46189  -0.45919
 Alpha  occ. eigenvalues --   -0.45561  -0.45449  -0.45247  -0.45117  -0.44892
 Alpha  occ. eigenvalues --   -0.44706  -0.44572  -0.44421  -0.44380  -0.44194
 Alpha  occ. eigenvalues --   -0.43863  -0.43836  -0.43832  -0.43643  -0.43552
 Alpha  occ. eigenvalues --   -0.43205  -0.43133  -0.43062  -0.43013  -0.42773
 Alpha  occ. eigenvalues --   -0.42736  -0.42272  -0.42223  -0.42144  -0.42069
 Alpha  occ. eigenvalues --   -0.41735  -0.41490  -0.41340  -0.41198  -0.41076
 Alpha  occ. eigenvalues --   -0.41051  -0.40905  -0.40853  -0.40555  -0.40388
 Alpha  occ. eigenvalues --   -0.40286  -0.40117  -0.39989  -0.39888  -0.39688
 Alpha  occ. eigenvalues --   -0.39642  -0.39574  -0.39213  -0.39183  -0.38992
 Alpha  occ. eigenvalues --   -0.38951  -0.38808  -0.38459  -0.38402  -0.38387
 Alpha  occ. eigenvalues --   -0.38243  -0.38196  -0.37968  -0.37923  -0.37861
 Alpha  occ. eigenvalues --   -0.37757  -0.37740  -0.37447  -0.37236  -0.37224
 Alpha  occ. eigenvalues --   -0.36957  -0.36886  -0.36717  -0.36667  -0.36604
 Alpha  occ. eigenvalues --   -0.36219  -0.35719  -0.35608  -0.35260  -0.35258
 Alpha  occ. eigenvalues --   -0.35164  -0.35130  -0.34531  -0.34153  -0.34008
 Alpha  occ. eigenvalues --   -0.33555  -0.33468  -0.33236  -0.33048  -0.32698
 Alpha  occ. eigenvalues --   -0.32512  -0.32290  -0.31846  -0.31711  -0.31146
 Alpha  occ. eigenvalues --   -0.31070  -0.30648  -0.29488  -0.29191  -0.29099
 Alpha  occ. eigenvalues --   -0.28662  -0.28657  -0.27618  -0.27459  -0.26908
 Alpha  occ. eigenvalues --   -0.26219  -0.26074  -0.25856  -0.25833  -0.25675
 Alpha  occ. eigenvalues --   -0.25578  -0.25517  -0.24824  -0.21241  -0.21032
 Alpha  occ. eigenvalues --   -0.18945  -0.18630
 Alpha virt. eigenvalues --   -0.11305  -0.11149  -0.05489  -0.05318  -0.03791
 Alpha virt. eigenvalues --   -0.03585  -0.02050  -0.01749  -0.00586  -0.00079
 Alpha virt. eigenvalues --    0.00473   0.00611   0.00872   0.01304   0.01373

 Mulliken charges:
               1
     1  Mg  12.000219
     2  C    5.983233
     3  C    6.014443
     4  C    6.020859
     5  C    5.999169
     6  N    6.990912
     7  C    6.025957
     8  C    5.995380
     9  C    6.005710
    10  C    5.970206
    11  C    6.001916
    12  C    5.994962
    13  C    5.998384
    14  H    1.000145
    15  N    7.004449
    16  C    5.958481
    17  C    5.984342
    18  C    5.983153
    19  C    5.965910
    20  C    6.005303
    21  C    5.987489
    22  O    7.974548
    23  C    6.003113
    24  N    7.011231
    25  C    5.962822
    26  C    6.006199
    27  C    5.996087
    28  C    6.031101
    29  C    6.004466
    30  C    5.995111
    31  C    5.994492
    32  N    6.997856
    33  C    6.032491
    34  C    6.028534
    35  C    6.002424
    36  C    6.029590
    37  C    5.999514
    38  C    6.015690
    39  O    8.026773
    40  C    6.001997
    41  C    6.003332
    42  O    8.005358
    43  O    8.000068
    44  C    5.998120
    45  H    0.989945
    46  H    0.993755
    47  H    1.011706
    48  H    0.996403
    49  H    1.001304
    50  H    0.997463
    51  H    0.988293
    52  H    1.002335
    53  H    1.008542
    54  H    0.996503
    55  H    0.996747
    56  H    1.005251
    57  H    0.983963
    58  H    0.981447
    59  H    0.982633
    60  H    0.992746
    61  H    0.995260
    62  H    0.986893
    63  H    1.002761
    64  H    0.997856
    65  H    1.000550
    66  H    1.001544
    67  H    0.987847
    68  H    1.009521
    69  H    0.996075
    70  H    1.010263
    71  H    1.007839
    72  H    0.996201
    73  H    1.013477
    74  H    1.017015
    75  H    1.017005
    76  H    1.008432
    77  H    1.004312
    78  H    1.005054
    79  H    1.001524
    80  Mg  11.999909
    81  C    6.000121
    82  C    6.000164
    83  C    5.999771
    84  C    5.999713
    85  N    7.000011
    86  C    6.000047
    87  C    5.999923
    88  C    6.000115
    89  C    5.999824
    90  C    5.999997
    91  C    5.999967
    92  C    5.999654
    93  H    1.000937
    94  N    7.000028
    95  C    5.999775
    96  C    5.999978
    97  C    5.999801
    98  C    5.999951
    99  C    5.999972
   100  C    5.999911
   101  O    7.999838
   102  C    5.999967
   103  N    6.999975
   104  C    5.999946
   105  C    6.000042
   106  C    5.999943
   107  C    6.000163
   108  C    6.000019
   109  C    6.000013
   110  C    6.000022
   111  N    6.999982
   112  C    6.000213
   113  C    6.000026
   114  C    6.000040
   115  C    6.000134
   116  C    6.000046
   117  C    6.000162
   118  O    8.000232
   119  C    6.000104
   120  C    5.999987
   121  O    7.999831
   122  O    8.000163
   123  C    5.999917
   124  H    1.000063
   125  H    0.999809
   126  H    0.999872
   127  H    1.000048
   128  H    1.000149
   129  H    0.999927
   130  H    1.000205
   131  H    0.999844
   132  H    1.000208
   133  H    1.000024
   134  H    1.000142
   135  H    0.999846
   136  H    0.999931
   137  H    1.000034
   138  H    0.999827
   139  H    0.999800
   140  H    0.999912
   141  H    0.999977
   142  H    0.999979
   143  H    0.999847
   144  H    0.999813
   145  H    0.999963
   146  H    0.999923
   147  H    1.000105
   148  H    0.999948
   149  H    0.999884
   150  H    1.000035
   151  H    0.999903
   152  H    0.999908
   153  H    0.999983
   154  H    1.000123
   155  H    1.000365
   156  H    1.000187
   157  H    0.999802
   158  H    1.000280
 Sum of Mulliken charges = 624.00000

 Dipole moment (field-independent basis, Debye):
    X=             -7.9251    Y=             -6.5133    Z=              0.5739  Tot=             10.2743
 Quadrupole moment (field-independent basis, Debye-Ang):
   XX=            212.5557   YY=            -10.9922   ZZ=              0.7153
   XY=             80.7382   XZ=            -10.9555   YZ=              0.1378

 Normal termination of Gaussian 16 at Thu Oct 14 15:31:46 2021.
