 Gaussian 16, Revision A.03,
 Gaussian 16:  ES64L-G16RevA.03 25-Dec-2016

 --------------------------------------------------------
 #p PBE1PBE/Def2SVP td=(nstates=5) density=(transition=1)
 --------------------------------------------------------

 --------------------------------
 TDDFT excited states in gaussian
 --------------------------------
 Symbolic Z-matrix:
 Charge =  0 Multiplicity = 1

                         Standard orientation:
 ---------------------------------------------------------------------
 Center     Atomic      Atomic             Coordinates (Angstroms)
 Number     Number       Type             X           Y           Z
 ---------------------------------------------------------------------
      1         12           0      -30.224100    0.159744    0.397471
      2          6           0      -28.062203   -1.941281   -1.388403
      3          6           0      -30.438934    2.210167   -2.481001
      4          6           0      -32.036671    2.394245    2.200544
      5          6           0      -29.338830   -1.502538    3.291281
      6          7           0      -29.479259    0.008023   -1.684382
      7          6           0      -28.749646   -1.069192   -2.195527
      8          6           0      -28.823711   -1.042455   -3.764752
      9          6           0      -29.489292    0.310171   -4.043572
     10          6           0      -29.790631    0.924820   -2.632243
     11          6           0      -28.544537    1.216666   -4.877803
     12          6           0      -29.580196   -2.278040   -4.237041
     13          6           0      -29.255498   -2.831431   -5.614909
     14          1           0      -28.427748   -1.952539   -6.579674
     15          7           0      -31.142074    2.037811   -0.031050
     16          6           0      -31.087412    2.719569   -1.261615
     17          6           0      -31.786765    3.989432   -1.173550
     18          6           0      -32.346263    4.083054    0.161300
     19          6           0      -31.830479    2.818812    0.842239
     20          6           0      -32.036946    4.923411   -2.364488
     21          6           0      -33.226806    5.141560    0.797262
     22          8           0      -33.609054    5.014238    1.952848
     23          6           0      -33.784718    6.210130   -0.062187
     24          7           0      -30.670195    0.343122    2.474371
     25          6           0      -31.516189    1.301364    2.944984
     26          6           0      -31.831122    1.032915    4.439902
     27          6           0      -31.013648   -0.269091    4.795527
     28          6           0      -30.363607   -0.597047    3.426460
     29          6           0      -31.456311    2.257061    5.294361
     30          6           0      -31.872493   -1.470695    5.271600
     31          6           0      -31.780451   -1.581918    6.790307
     32          7           0      -28.887040   -1.344520    0.969402
     33          6           0      -28.556988   -1.889964    2.165035
     34          6           0      -27.384393   -2.770101    1.941098
     35          6           0      -27.223428   -2.907476    0.593444
     36          6           0      -28.142483   -1.974670    0.048639
     37          6           0      -26.710962   -3.502448    3.089528
     38          6           0      -26.506037   -3.589646   -0.491886
     39          8           0      -25.603440   -4.415203   -0.423960
     40          6           0      -27.100310   -3.038977   -1.773829
     41          6           0      -25.950686   -2.626466   -2.594392
     42          8           0      -25.236002   -1.617679   -2.521513
     43          8           0      -25.704411   -3.639272   -3.498618
     44          6           0      -24.560971   -3.470701   -4.368823
     45          1           0      -30.546165    2.772057   -3.410941
     46          1           0      -32.714265    3.105898    2.676926
     47          1           0      -29.046545   -1.915682    4.259004
     48          1           0      -27.761019   -1.053558   -4.009959
     49          1           0      -30.314209    0.099697   -4.724173
     50          1           0      -28.147923    2.080926   -4.344754
     51          1           0      -29.181402    1.735102   -5.593992
     52          1           0      -27.691404    0.667416   -5.275561
     53          1           0      -30.630024   -2.007198   -4.120719
     54          1           0      -29.455279   -3.069206   -3.498689
     55          1           0      -30.185614   -3.129838   -6.096688
     56          1           0      -28.717918   -3.743237   -5.352318
     57          1           0      -31.506073    4.635142   -3.271977
     58          1           0      -31.724020    5.937452   -2.112129
     59          1           0      -33.112117    5.008741   -2.517567
     60          1           0      -34.464414    5.755279   -0.783189
     61          1           0      -32.997366    6.865261   -0.434912
     62          1           0      -34.439855    6.878384    0.496768
     63          1           0      -32.910375    0.912009    4.530296
     64          1           0      -30.243912    0.062906    5.493449
     65          1           0      -30.745873    2.088780    6.103201
     66          1           0      -32.430014    2.456955    5.741114
     67          1           0      -30.987170    3.070396    4.741454
     68          1           0      -31.396839   -2.409603    4.987656
     69          1           0      -32.917962   -1.411549    4.968357
     70          1           0      -32.817853   -1.705511    7.100769
     71          1           0      -31.495889   -0.656739    7.290890
     72          1           0      -31.167227   -2.402370    7.164062
     73          1           0      -26.990603   -3.162828    4.087141
     74          1           0      -25.623903   -3.469627    3.027665
     75          1           0      -27.094023   -4.523295    3.111397
     76          1           0      -27.672982   -3.838779   -2.242242
     77          1           0      -23.703371   -3.227239   -3.741125
     78          1           0      -24.687641   -2.677607   -5.106074
     79          1           0      -24.282050   -4.484994   -4.652304
     80         12           0       30.168526    0.323140   -0.147309
     81          6           0       27.193926   -1.345179   -0.343093
     82          6           0       28.347569    3.323929   -0.732121
     83          6           0       33.010995    2.047216    0.430481
     84          6           0       31.618121   -2.493283    1.303061
     85          7           0       27.860769    0.959454   -0.133417
     86          6           0       26.899864    0.043592   -0.440948
     87          6           0       25.578101    0.735291   -0.629211
     88          6           0       25.949927    2.278633   -0.726088
     89          6           0       27.499600    2.250115   -0.536641
     90          6           0       25.231788    3.068846   -1.758252
     91          6           0       24.355165    0.397697    0.348460
     92          6           0       24.664849    0.021665    1.767144
     93          1           0       23.873241    0.728309    2.858612
     94          7           0       30.647808    2.355978   -0.386704
     95          6           0       29.810585    3.396649   -0.645194
     96          6           0       30.504218    4.650008   -0.685052
     97          6           0       31.926715    4.270916   -0.456802
     98          6           0       31.914489    2.829253   -0.125591
     99          6           0       29.968499    5.977652   -0.938712
    100          6           0       33.170492    5.145115   -0.528544
    101          8           0       33.075307    6.315534   -0.641508
    102          6           0       34.594262    4.688937   -0.368538
    103          7           0       31.964001   -0.117150    0.842800
    104          6           0       33.016934    0.711250    0.769071
    105          6           0       34.259573    0.134179    1.629202
    106          6           0       33.897447   -1.428231    1.544367
    107          6           0       32.416077   -1.324284    1.269925
    108          6           0       35.654402    0.468076    1.092872
    109          6           0       34.353854   -2.215176    2.786159
    110          6           0       35.114649   -3.538346    2.640396
    111          7           0       29.521105   -1.520614    0.484931
    112          6           0       30.203800   -2.604381    1.023126
    113          6           0       29.387967   -3.754322    1.083433
    114          6           0       28.188245   -3.364262    0.511522
    115          6           0       28.302854   -1.974846    0.151383
    116          6           0       29.759471   -5.120029    1.572629
    117          6           0       26.902295   -3.714330    0.071449
    118          8           0       26.358159   -4.812702    0.165117
    119          6           0       26.136234   -2.423055   -0.334281
    120          6           0       25.574341   -2.772043   -1.704607
    121          8           0       24.372393   -2.647899   -2.021912
    122          8           0       26.636864   -3.090994   -2.516950
    123          6           0       26.487723   -3.245541   -3.984720
    124          1           0       27.717843    4.214143   -0.789520
    125          1           0       33.850360    2.638306    0.802361
    126          1           0       32.101509   -3.391144    1.692828
    127          1           0       25.142848    0.393229   -1.568887
    128          1           0       25.637104    2.719164    0.220137
    129          1           0       25.891173    3.684218   -2.370208
    130          1           0       24.393166    3.626651   -1.341488
    131          1           0       24.787219    2.389177   -2.485300
    132          1           0       23.737034   -0.439202    0.023265
    133          1           0       23.751812    1.294218    0.494380
    134          1           0       25.726935   -0.043001    2.001203
    135          1           0       24.277101   -0.986676    1.915763
    136          1           0       29.110265    5.886771   -1.603770
    137          1           0       30.684665    6.670195   -1.379363
    138          1           0       29.644922    6.372428    0.025057
    139          1           0       34.427890    3.703771   -0.804929
    140          1           0       34.900009    4.608394    0.674131
    141          1           0       35.362066    5.258892   -0.891987
    142          1           0       34.087017    0.466838    2.653207
    143          1           0       34.266350   -2.004694    0.696375
    144          1           0       36.047478   -0.445623    0.646228
    145          1           0       36.240912    0.980945    1.854597
    146          1           0       35.639379    1.201515    0.287230
    147          1           0       33.456519   -2.414795    3.372466
    148          1           0       34.909490   -1.530657    3.427273
    149          1           0       36.033764   -3.677743    3.209717
    150          1           0       35.279210   -3.822289    1.600149
    151          1           0       34.347418   -4.264711    2.906543
    152          1           0       29.277765   -5.941426    1.041640
    153          1           0       29.500094   -5.189072    2.629320
    154          1           0       30.821077   -5.344074    1.460346
    155          1           0       25.378134   -2.341006    0.443646
    156          1           0       27.334478   -2.838421   -4.537041
    157          1           0       25.579380   -2.725067   -4.288665
    158          1           0       26.365476   -4.231770   -4.430752
 ---------------------------------------------------------------------

 SCF Done:  E(RPBE1PBE) =  -4067.32215241     A.U. after   16 cycles

 Excitation energies and oscillator strengths:

 Excited State   1:      Singlet-A      1.7140 eV  723.36 nm  f=0.0000  <S**2>=0.000
     312 -> 313        0.70711
 This state for optimization and/or second-order correction.
 Total Energy, E(TD-HF/TD-DFT) =  -4067.25916418
 Copying the excited state density for this state as the 1-particle RhoCI density.

 Excited State   2:      Singlet-A      1.7944 eV  690.97 nm  f=0.3676  <S**2>=0.000
     309 -> 315        0.16554
     311 -> 313        0.69590
     311 <- 313       -0.11768

 Excited State   3:      Singlet-A      1.8264 eV  678.85 nm  f=0.3839  <S**2>=0.000
     310 -> 316       -0.16171
     312 -> 314        0.69458
     312 <- 314       -0.11150

 Excited State   4:      Singlet-A      2.1559 eV  575.10 nm  f=0.1301  <S**2>=0.000
     308 -> 313        0.10059
     309 -> 313        0.65388
     311 -> 315       -0.23179

 Excited State   5:      Singlet-A      2.1824 eV  568.10 nm  f=0.0000  <S**2>=0.000
     311 -> 314        0.70711

 The electronic state is 1-A.
 Alpha  occ. eigenvalues --  -46.93343 -46.92510 -19.26757 -19.25152 -19.20492
 Alpha  occ. eigenvalues --  -19.20066 -19.19634 -19.19220 -19.18505 -19.17609
 Alpha  occ. eigenvalues --  -14.42106 -14.41709 -14.41498 -14.41255 -14.39821
 Alpha  occ. eigenvalues --  -14.39683 -14.39213 -14.38927 -10.37426 -10.36410
 Alpha  occ. eigenvalues --  -10.32658 -10.32396 -10.31243 -10.30905 -10.29930
 Alpha  occ. eigenvalues --  -10.29647 -10.29572 -10.29193 -10.28883 -10.28827
 Alpha  occ. eigenvalues --  -10.28772 -10.28645 -10.28638 -10.28542 -10.28518
 Alpha  occ. eigenvalues --  -10.28227 -10.28213 -10.28169 -10.28002 -10.27348
 Alpha  occ. eigenvalues --  -10.26963 -10.26852 -10.26762 -10.26545 -10.26496
 Alpha  occ. eigenvalues --  -10.26229 -10.26224 -10.26111 -10.26078 -10.25948
 Alpha  occ. eigenvalues --  -10.25888 -10.25800 -10.25797 -10.25769 -10.25685
 Alpha  occ. eigenvalues --  -10.25576 -10.25535 -10.25507 -10.25499 -10.25386
 Alpha  occ. eigenvalues --  -10.25361 -10.25241 -10.25219 -10.25133 -10.25000
 Alpha  occ. eigenvalues --  -10.24869 -10.24740 -10.24390 -10.24387 -10.24297
 Alpha  occ. eigenvalues --  -10.24214 -10.24038 -10.23970 -10.23855 -10.23826
 Alpha  occ. eigenvalues --  -10.23637 -10.23614 -10.23548 -10.23060 -10.22969
 Alpha  occ. eigenvalues --  -10.22966 -10.22733 -10.22697 -10.22674 -10.22614
 Alpha  occ. eigenvalues --  -10.22470  -3.15394  -3.14491  -1.88191  -1.87805
 Alpha  occ. eigenvalues --   -1.87592  -1.87345  -1.86823  -1.86745  -1.10590
 Alpha  occ. eigenvalues --   -1.10316  -1.06375  -1.04994  -1.04853  -1.03899
 Alpha  occ. eigenvalues --   -1.01971  -1.01710  -0.99744  -0.99154  -0.98931
 Alpha  occ. eigenvalues --   -0.97623  -0.97391  -0.97203  -0.96904  -0.96171
 Alpha  occ. eigenvalues --   -0.87927  -0.87819  -0.84103  -0.83518  -0.83073
 Alpha  occ. eigenvalues --   -0.82997  -0.82732  -0.82202  -0.82171  -0.81570
 Alpha  occ. eigenvalues --   -0.81452  -0.81058  -0.80351  -0.79950  -0.78861
 Alpha  occ. eigenvalues --   -0.78588  -0.78219  -0.78137  -0.77373  -0.77026
 Alpha  occ. eigenvalues --   -0.76430  -0.76418  -0.75306  -0.75254  -0.74867
 Alpha  occ. eigenvalues --   -0.74376  -0.72788  -0.72253  -0.72110  -0.71612
 Alpha  occ. eigenvalues --   -0.71379  -0.71121  -0.70949  -0.70289  -0.69866
 Alpha  occ. eigenvalues --   -0.68898  -0.68059  -0.67013  -0.66207  -0.65449
 Alpha  occ. eigenvalues --   -0.64365  -0.63822  -0.63472  -0.62878  -0.62712
 Alpha  occ. eigenvalues --   -0.62344  -0.61425  -0.61164  -0.60655  -0.60086
 Alpha  occ. eigenvalues --   -0.59797  -0.59311  -0.59230  -0.59168  -0.58829
 Alpha  occ. eigenvalues --   -0.58463  -0.58103  -0.56745  -0.54835  -0.54564
 Alpha  occ. eigenvalues --   -0.54237  -0.53999  -0.53581  -0.53514  -0.53327
 Alpha  occ. eigenvalues --   -0.52999  -0.52617  -0.52255  -0.51977  -0.51834
 Alpha  occ. eigenvalues --   -0.51135  -0.50524  -0.50360  -0.50305  -0.49865
 Alpha  occ. eigenvalues --   -0.49645  -0.49643  -0.49309  -0.48970  -0.48495
 Alpha  occ. eigenvalues --   -0.48171  -0.48019  -0.47949  -0.47868  -0.47729
 Alpha  occ. eigenvalues --   -0.47722  -0.47516  -0.47447  -0.47062  -0.46524
 Alpha  occ. eigenvalues --   -0.46481  -0.46385  -0.46372  -0.46363  -0.46013
 Alpha  occ. eigenvalues --   -0.45995  -0.45652  -0.45408  -0.45366  -0.45170
 Alpha  occ. eigenvalues --   -0.44821  -0.44625  -0.44328  -0.44310  -0.44146
 Alpha  occ. eigenvalues --   -0.44133  -0.44011  -0.43834  -0.43773  -0.43653
 Alpha  occ. eigenvalues --   -0.43630  -0.43260  -0.42945  -0.42866  -0.42493
 Alpha  occ. eigenvalues --   -0.42477  -0.42311  -0.42070  -0.41999  -0.41922
 Alpha  occ. eigenvalues --   -0.41828  -0.41700  -0.41666  -0.41465  -0.41176
 Alpha  occ. eigenvalues --   -0.41066  -0.40921  -0.40813  -0.40575  -0.40283
 Alpha  occ. eigenvalues --   -0.40138  -0.40131  -0.39981  -0.39749  -0.39688
 Alpha  occ. eigenvalues --   -0.39555  -0.39474  -0.39229  -0.39157  -0.39031
 Alpha  occ. eigenvalues --   -0.38968  -0.38790  -0.38409  -0.38320  -0.38170
 Alpha  occ. eigenvalues --   -0.37948  -0.37946  -0.37814  -0.37668  -0.37502
 Alpha  occ. eigenvalues --   -0.37459  -0.37337  -0.37263  -0.37093  -0.36890
 Alpha  occ. eigenvalues --   -0.36757  -0.36743  -0.36535  -0.36404  -0.36378
 Alpha  occ. eigenvalues --   -0.36194  -0.36151  -0.35841  -0.35468  -0.35244
 Alpha  occ. eigenvalues --   -0.35119  -0.34817  -0.33931  -0.33876  -0.33670
 Alpha  occ. eigenvalues --   -0.33459  -0.33043  -0.32982  -0.32941  -0.32756
 Alpha  occ. eigenvalues --   -0.32319  -0.31822  -0.31561  -0.31255  -0.31137
 Alpha  occ. eigenvalues --   -0.30899  -0.30657  -0.29801  -0.29377  -0.29083
 Alpha  occ. eigenvalues --   -0.28971  -0.28576  -0.28242  -0.27148  -0.26916
 Alpha  occ. eigenvalues --   -0.26431  -0.26321  -0.26141  -0.25927  -0.25532
 Alpha  occ. eigenvalues --   -0.25261  -0.24934  -0.23735  -0.21403  -0.20720
 Alpha  occ. eigenvalues --   -0.19347  -0.18566
 Alpha virt. eigenvalues --   -0.12045  -0.11107  -0.05473  -0.05041  -0.04027
 Alpha virt. eigenvalues --   -0.03878  -0.02429  -0.01882  -0.01782  -0.00419
 Alpha virt. eigenvalues --   -0.00038   0.00577   0.00623   0.01093   0.01496

 Mulliken charges:
               1
     1  Mg  12.000000
     2  C    6.000000
     3  C    6.000000
     4  C    6.000000
     5  C    6.000000
     6  N    7.000000
     7  C    6.000000
     8  C    6.000000
     9  C    6.000000
    10  C    6.000000
    11  C    6.000000
    12  C    6.000000
    13  C    6.000000
    14  H    1.000000
    15  N    7.000000
    16  C    6.000000
    17  C    6.000000
    18  C    6.000000
    19  C    6.000000
    20  C    6.000000
    21  C    6.000000
    22  O    8.000000
    23  C    6.000000
    24  N    7.000000
    25  C    6.000000
    26  C    6.000000
    27  C    6.000000
    28  C    6.000000
    29  C    6.000000
    30  C    6.000000
    31  C    6.000000
    32  N    7.000000
    33  C    6.000000
    34  C    6.000000
    35  C    6.000000
    36  C    6.000000
    37  C    6.000000
    38  C    6.000000
    39  O    8.000000
    40  C    6.000000
    41  C    6.000000
    42  O    8.000000
    43  O    8.000000
    44  C    6.000000
    45  H    1.000000
    46  H    1.000000
    47  H    1.000000
    48  H    1.000000
    49  H    1.000000
    50  H    1.000000
    51  H    1.000000
    52  H    1.000000
    53  H    1.000000
    54  H    1.000000
    55  H    1.000000
    56  H    1.000000
    57  H    1.000000
    58  H    1.000000
    59  H    1.000000
    60  H    1.000000
    61  H    1.000000
    62  H    1.000000
    63  H    1.000000
    64  H    1.000000
    65  H    1.000000
    66  H    1.000000
    67  H    1.000000
    68  H    1.000000
    69  H    1.000000
    70  H    1.000000
    71  H    1.000000
    72  H    1.000000
    73  H    1.000000
    74  H    1.000000
    75  H    1.000000
    76  H    1.000000
    77  H    1.000000
    78  H    1.000000
    79  H    1.000000
    80  Mg  12.000000
    81  C    6.000000
    82  C    6.000000
    83  C    6.000000
    84  C    6.000000
    85  N    7.000000
    86  C    6.000000
    87  C    6.000000
    88  C    6.000000
    89  C    6.000000
    90  C    6.000000
    91  C    6.000000
    92  C    6.000000
    93  H    1.000000
    94  N    7.000000
    95  C    6.000000
    96  C    6.000000
    97  C    6.000000
    98  C    6.000000
    99  C    6.000000
   100  C    6.000000
   101  O    8.000000
   102  C    6.000000
   103  N    7.000000
   104  C    6.000000
   105  C    6.000000
   106  C    6.000000
   107  C    6.000000
   108  C    6.000000
   109  C    6.000000
   110  C    6.000000
   111  N    7.000000
   112  C    6.000000
   113  C    6.000000
   114  C    6.000000
   115  C    6.000000
   116  C    6.000000
   117  C    6.000000
   118  O    8.000000
   119  C    6.000000
   120  C    6.000000
   121  O    8.000000
   122  O    8.000000
   123  C    6.000000
   124  H    1.000000
   125  H    1.000000
   126  H    1.000000
   127  H    1.000000
   128  H    1.000000
   129  H    1.000000
   130  H    1.000000
   131  H    1.000000
   132  H    1.000000
   133  H    1.000000
   134  H    1.000000
   135  H    1.000000
   136  H    1.000000
   137  H    1.000000
   138  H    1.000000
   139  H    1.000000
   140  H    1.000000
   141  H    1.000000
   142  H    1.000000
   143  H    1.000000
   144  H    1.000000
   145  H    1.000000
   146  H    1.000000
   147  H    1.000000
   148  H    1.000000
   149  H    1.000000
   150  H    1.000000
   151  H    1.000000
   152  H    1.000000
   153  H    1.000000
   154  H    1.000000
   155  H    1.000000
   156  H    1.000000
   157  H    1.000000
   158  H    1.000000
 Sum of Mulliken charges = 624.00000

 Dipole moment (field-independent basis, Debye):
    X=             -0.0000    Y=             -0.0000    Z=              0.0000  Tot=              0.0000
 Quadrupole moment (field-independent basis, Debye-Ang):
   XX=             -0.0000   YY=             -0.0000   ZZ=              0.0000
   XY=             -0.0000   XZ=              0.0000   YZ=              0.0000

 Normal termination of Gaussian 16 at Fri Oct 15 01:12:20 2021.
