 Gaussian 16, Revision A.03,
 Gaussian 16:  ES64L-G16RevA.03 25-Dec-2016

 --------------------------------------------------------
 #p PBE1PBE/Def2SVP td=(nstates=5) density=(transition=1)
 --------------------------------------------------------

 --------------------------------
 TDDFT excited states in gaussian
 --------------------------------
 Symbolic Z-matrix:
 Charge =  0 Multiplicity = 1

                         Standard orientation:
 ---------------------------------------------------------------------
 Center     Atomic      Atomic             Coordinates (Angstroms)
 Number     Number       Type             X           Y           Z
 ---------------------------------------------------------------------
      1         12           0      -28.325877    0.042400   -0.269491
      2          6           0      -25.008353   -0.975344   -0.104046
      3          6           0      -28.846075   -1.966926    2.646594
      4          6           0      -31.354795    1.290814   -0.000420
      5          6           0      -27.389166    2.454473   -2.649028
      6          7           0      -27.032967   -1.203895    1.158949
      7          6           0      -25.714554   -1.522000    0.921516
      8          6           0      -25.185569   -2.436545    2.029691
      9          6           0      -26.503658   -2.925604    2.691273
     10          6           0      -27.539459   -1.958989    2.180316
     11          6           0      -26.973046   -4.410530    2.429659
     12          6           0      -24.240558   -1.716978    3.006005
     13          6           0      -23.562742   -2.582877    3.997939
     14          1           0      -22.235258   -2.031150    4.644837
     15          7           0      -29.917085   -0.272841    1.145345
     16          6           0      -29.941846   -1.148995    2.241630
     17          6           0      -31.233629   -1.049036    2.861636
     18          6           0      -31.943115    0.007749    2.180498
     19          6           0      -31.063317    0.377541    1.018350
     20          6           0      -31.622680   -1.846362    4.137100
     21          6           0      -33.334548    0.482105    2.611651
     22          8           0      -33.981506   -0.105941    3.462332
     23          6           0      -33.913693    1.684792    1.970070
     24          7           0      -29.287542    1.506781   -1.364318
     25          6           0      -30.559795    1.801615   -1.076360
     26          6           0      -31.020273    3.059044   -1.919322
     27          6           0      -29.757471    3.507760   -2.750698
     28          6           0      -28.681830    2.431849   -2.178550
     29          6           0      -32.320665    2.925439   -2.754657
     30          6           0      -29.366514    4.956571   -2.388619
     31          6           0      -28.685096    5.749063   -3.510814
     32          7           0      -26.577593    0.680961   -1.241748
     33          6           0      -26.363161    1.567404   -2.259769
     34          6           0      -24.975616    1.422862   -2.716170
     35          6           0      -24.463524    0.394661   -1.971223
     36          6           0      -25.414129    0.011685   -1.052351
     37          6           0      -24.327439    2.172276   -3.884758
     38          6           0      -23.278211   -0.370496   -1.725868
     39          8           0      -22.195101   -0.377627   -2.257097
     40          6           0      -23.588702   -1.305008   -0.509182
     41          6           0      -23.519301   -2.710779   -0.994399
     42          8           0      -24.052502   -3.170504   -1.965893
     43          8           0      -22.828026   -3.478197   -0.040912
     44          6           0      -22.741203   -4.883372   -0.319998
     45          1           0      -28.926459   -2.678254    3.470657
     46          1           0      -32.329784    1.781222   -0.048052
     47          1           0      -27.080537    3.143224   -3.438380
     48          1           0      -24.731848   -3.285941    1.520840
     49          1           0      -26.565187   -2.809609    3.772771
     50          1           0      -27.157452   -4.806081    3.428250
     51          1           0      -26.448988   -4.983380    1.664135
     52          1           0      -27.967396   -4.342447    1.988616
     53          1           0      -24.712801   -0.995621    3.673440
     54          1           0      -23.490957   -1.155628    2.448146
     55          1           0      -23.357808   -3.528714    3.496447
     56          1           0      -24.268782   -2.827690    4.791270
     57          1           0      -31.549117   -1.015596    4.839619
     58          1           0      -30.881394   -2.558405    4.500422
     59          1           0      -32.573575   -2.366187    4.255511
     60          1           0      -33.123350    2.433060    2.029553
     61          1           0      -34.745572    2.033427    2.582273
     62          1           0      -34.139677    1.346436    0.958560
     63          1           0      -31.257795    3.827605   -1.183253
     64          1           0      -29.846763    3.390271   -3.830195
     65          1           0      -33.102354    3.496846   -2.253090
     66          1           0      -32.534591    1.866430   -2.895138
     67          1           0      -32.196671    3.433038   -3.711228
     68          1           0      -28.706646    4.858349   -1.527004
     69          1           0      -30.187932    5.552874   -1.990878
     70          1           0      -29.335487    6.617195   -3.623139
     71          1           0      -28.527259    5.187853   -4.431894
     72          1           0      -27.718597    6.124829   -3.174766
     73          1           0      -23.323243    2.559141   -3.714664
     74          1           0      -25.054114    2.963502   -4.070678
     75          1           0      -24.457496    1.532775   -4.757955
     76          1           0      -22.818338   -1.102256    0.234913
     77          1           0      -21.700570   -5.080699   -0.577544
     78          1           0      -23.380218   -5.317457   -1.089353
     79          1           0      -23.012633   -5.410998    0.593952
     80         12           0       27.262423    0.646826    0.530635
     81          6           0       27.765164   -2.731428   -0.557601
     82          6           0       24.845036    0.945990   -1.671255
     83          6           0       27.504957    3.903818    1.094205
     84          6           0       30.242292    0.145281    2.627674
     85          7           0       26.383071   -0.763564   -0.909442
     86          6           0       26.741156   -2.087371   -1.233258
     87          6           0       25.858512   -2.724349   -2.372264
     88          6           0       24.859952   -1.438027   -2.636615
     89          6           0       25.345624   -0.339157   -1.696610
     90          6           0       24.899996   -0.943732   -4.146094
     91          6           0       25.149327   -4.076134   -2.012138
     92          6           0       23.995327   -4.481649   -2.921256
     93          1           0       24.251259   -5.747930   -3.758879
     94          7           0       26.229628    2.200043   -0.125325
     95          6           0       25.206848    2.195504   -1.044463
     96          6           0       24.641449    3.512660   -1.247599
     97          6           0       25.447587    4.370325   -0.398967
     98          6           0       26.417054    3.452503    0.298699
     99          6           0       23.483264    3.849900   -2.063232
    100          6           0       25.358396    5.867251   -0.157855
    101          8           0       26.006807    6.455994    0.661085
    102          6           0       24.440931    6.602575   -1.098336
    103          7           0       28.718831    1.868746    1.651313
    104          6           0       28.537950    3.210907    1.734898
    105          6           0       29.582587    3.854262    2.685655
    106          6           0       30.339409    2.601474    3.248929
    107          6           0       29.702887    1.442433    2.506331
    108          6           0       30.559057    4.927301    2.094308
    109          6           0       30.247163    2.376976    4.799514
    110          6           0       31.173673    3.310794    5.609309
    111          7           0       28.732230   -0.884733    0.971960
    112          6           0       29.782057   -0.968473    1.857316
    113          6           0       30.283730   -2.284926    1.849843
    114          6           0       29.612557   -2.994267    0.925774
    115          6           0       28.650638   -2.104643    0.358250
    116          6           0       31.361347   -2.724353    2.832483
    117          6           0       29.446515   -4.251813    0.190052
    118          8           0       30.049763   -5.290768    0.269284
    119          6           0       28.223468   -4.089591   -0.833057
    120          6           0       28.796417   -4.106657   -2.214289
    121          8           0       29.251125   -3.226747   -2.910016
    122          8           0       28.668783   -5.417622   -2.628663
    123          6           0       29.142692   -5.741039   -3.995432
    124          1           0       24.066641    1.157970   -2.407043
    125          1           0       27.625343    4.989533    1.119283
    126          1           0       31.037798    0.134097    3.376362
    127          1           0       26.481351   -2.810794   -3.262754
    128          1           0       23.838022   -1.762986   -2.439875
    129          1           0       23.883710   -0.751514   -4.489713
    130          1           0       25.411079   -1.554095   -4.890164
    131          1           0       25.352959    0.045374   -4.206535
    132          1           0       24.876056   -3.870169   -0.976426
    133          1           0       25.762890   -4.970300   -1.899928
    134          1           0       23.781179   -3.664223   -3.609198
    135          1           0       23.153635   -4.785364   -2.299445
    136          1           0       22.803229    4.174746   -1.275782
    137          1           0       23.143463    2.989065   -2.639282
    138          1           0       23.577718    4.673023   -2.771213
    139          1           0       23.455225    6.693045   -0.642136
    140          1           0       24.587472    6.340705   -2.146617
    141          1           0       24.955984    7.551702   -1.243893
    142          1           0       29.010112    4.169041    3.558682
    143          1           0       31.363095    2.608991    2.873958
    144          1           0       31.624060    4.706684    2.172006
    145          1           0       30.452539    5.795946    2.743704
    146          1           0       30.390457    5.187474    1.049333
    147          1           0       30.545881    1.355699    5.033194
    148          1           0       29.189157    2.497794    5.036288
    149          1           0       31.983817    3.681407    4.980986
    150          1           0       31.519373    2.721369    6.458445
    151          1           0       30.688112    4.217330    5.971824
    152          1           0       31.302840   -3.794953    3.028988
    153          1           0       31.261513   -2.138685    3.746393
    154          1           0       32.347689   -2.438796    2.466179
    155          1           0       27.470449   -4.864564   -0.687992
    156          1           0       29.631243   -6.711680   -3.911051
    157          1           0       29.839460   -5.014345   -4.412935
    158          1           0       28.180804   -5.783709   -4.507305
 ---------------------------------------------------------------------

 SCF Done:  E(RPBE1PBE) =  -4067.38834766     A.U. after   16 cycles

 Excitation energies and oscillator strengths:

 Excited State   1:      Singlet-A      1.8553 eV  668.28 nm  f=0.0000  <S**2>=0.000
     312 -> 313        0.70711
 This state for optimization and/or second-order correction.
 Total Energy, E(TD-HF/TD-DFT) =  -4067.32016724
 Copying the excited state density for this state as the 1-particle RhoCI density.

 Excited State   2:      Singlet-A      1.8601 eV  666.54 nm  f=0.3856  <S**2>=0.000
     310 -> 316       -0.16839
     312 -> 314        0.69337
     312 <- 314       -0.10831

 Excited State   3:      Singlet-A      1.9036 eV  651.33 nm  f=0.3819  <S**2>=0.000
     309 -> 315        0.17021
     311 -> 313        0.69346
     311 <- 313       -0.10647

 Excited State   4:      Singlet-A      2.2017 eV  563.14 nm  f=0.0000  <S**2>=0.000
     311 -> 314        0.70711

 Excited State   5:      Singlet-A      2.2252 eV  557.19 nm  f=0.1312  <S**2>=0.000
     310 -> 314        0.65942
     312 -> 316        0.23952

 The electronic state is 1-A.
 Alpha  occ. eigenvalues --  -46.93057 -46.91978 -19.25688 -19.24480 -19.20762
 Alpha  occ. eigenvalues --  -19.20067 -19.19278 -19.19162 -19.18971 -19.18727
 Alpha  occ. eigenvalues --  -14.42239 -14.41808 -14.41691 -14.40860 -14.39748
 Alpha  occ. eigenvalues --  -14.39264 -14.38915 -14.38505 -10.36592 -10.35922
 Alpha  occ. eigenvalues --  -10.32397 -10.31886 -10.31822 -10.31505 -10.29909
 Alpha  occ. eigenvalues --  -10.29082 -10.28945 -10.28663 -10.28626 -10.28595
 Alpha  occ. eigenvalues --  -10.28553 -10.28513 -10.28469 -10.28397 -10.28102
 Alpha  occ. eigenvalues --  -10.27949 -10.27848 -10.27811 -10.27316 -10.26916
 Alpha  occ. eigenvalues --  -10.26856 -10.26783 -10.26727 -10.26675 -10.26432
 Alpha  occ. eigenvalues --  -10.26347 -10.26181 -10.26168 -10.26106 -10.26089
 Alpha  occ. eigenvalues --  -10.25997 -10.25925 -10.25769 -10.25497 -10.25492
 Alpha  occ. eigenvalues --  -10.25489 -10.25331 -10.25273 -10.25256 -10.25198
 Alpha  occ. eigenvalues --  -10.24747 -10.24697 -10.24697 -10.24686 -10.24578
 Alpha  occ. eigenvalues --  -10.24424 -10.24419 -10.24417 -10.24382 -10.24369
 Alpha  occ. eigenvalues --  -10.24252 -10.24008 -10.23982 -10.23944 -10.23758
 Alpha  occ. eigenvalues --  -10.23736 -10.23644 -10.23377 -10.23265 -10.23251
 Alpha  occ. eigenvalues --  -10.23137 -10.23012 -10.23005 -10.23000 -10.22382
 Alpha  occ. eigenvalues --  -10.21950  -3.15061  -3.14100  -1.87908  -1.87439
 Alpha  occ. eigenvalues --   -1.87270  -1.86936  -1.86454  -1.86347  -1.11440
 Alpha  occ. eigenvalues --   -1.10393  -1.06122  -1.05512  -1.05298  -1.04684
 Alpha  occ. eigenvalues --   -1.03739  -1.02238  -0.99311  -0.98458  -0.98456
 Alpha  occ. eigenvalues --   -0.98311  -0.97981  -0.97473  -0.97118  -0.96191
 Alpha  occ. eigenvalues --   -0.87777  -0.87336  -0.83675  -0.83498  -0.83213
 Alpha  occ. eigenvalues --   -0.83128  -0.82526  -0.82468  -0.82293  -0.81473
 Alpha  occ. eigenvalues --   -0.81179  -0.80892  -0.80364  -0.80211  -0.79437
 Alpha  occ. eigenvalues --   -0.78371  -0.78182  -0.77452  -0.77352  -0.76786
 Alpha  occ. eigenvalues --   -0.76432  -0.76216  -0.75701  -0.75250  -0.75032
 Alpha  occ. eigenvalues --   -0.74415  -0.72420  -0.72114  -0.71726  -0.71289
 Alpha  occ. eigenvalues --   -0.71282  -0.70914  -0.70564  -0.69853  -0.69832
 Alpha  occ. eigenvalues --   -0.69191  -0.67804  -0.67196  -0.66506  -0.65723
 Alpha  occ. eigenvalues --   -0.63950  -0.63797  -0.63441  -0.63114  -0.62327
 Alpha  occ. eigenvalues --   -0.62181  -0.61428  -0.61075  -0.60517  -0.60136
 Alpha  occ. eigenvalues --   -0.59515  -0.59446  -0.59137  -0.59128  -0.58802
 Alpha  occ. eigenvalues --   -0.58448  -0.57332  -0.56002  -0.54725  -0.54622
 Alpha  occ. eigenvalues --   -0.54569  -0.54059  -0.53889  -0.53358  -0.53345
 Alpha  occ. eigenvalues --   -0.53132  -0.52655  -0.52482  -0.52263  -0.51517
 Alpha  occ. eigenvalues --   -0.51125  -0.50692  -0.50431  -0.50150  -0.49957
 Alpha  occ. eigenvalues --   -0.49582  -0.49505  -0.49005  -0.48985  -0.48810
 Alpha  occ. eigenvalues --   -0.48625  -0.48513  -0.48255  -0.48173  -0.47845
 Alpha  occ. eigenvalues --   -0.47546  -0.47352  -0.47292  -0.46940  -0.46585
 Alpha  occ. eigenvalues --   -0.46515  -0.46333  -0.46231  -0.46151  -0.45912
 Alpha  occ. eigenvalues --   -0.45484  -0.45461  -0.45345  -0.45117  -0.44995
 Alpha  occ. eigenvalues --   -0.44895  -0.44818  -0.44542  -0.44415  -0.44228
 Alpha  occ. eigenvalues --   -0.44049  -0.43985  -0.43782  -0.43749  -0.43394
 Alpha  occ. eigenvalues --   -0.43377  -0.43066  -0.42894  -0.42791  -0.42643
 Alpha  occ. eigenvalues --   -0.42472  -0.42403  -0.42264  -0.42048  -0.41940
 Alpha  occ. eigenvalues --   -0.41786  -0.41756  -0.41414  -0.41148  -0.41127
 Alpha  occ. eigenvalues --   -0.41006  -0.40892  -0.40587  -0.40574  -0.40395
 Alpha  occ. eigenvalues --   -0.40215  -0.40149  -0.39981  -0.39909  -0.39882
 Alpha  occ. eigenvalues --   -0.39763  -0.39620  -0.39478  -0.39387  -0.39062
 Alpha  occ. eigenvalues --   -0.38722  -0.38671  -0.38635  -0.38412  -0.38272
 Alpha  occ. eigenvalues --   -0.38214  -0.38044  -0.37999  -0.37817  -0.37657
 Alpha  occ. eigenvalues --   -0.37621  -0.37417  -0.37281  -0.37185  -0.36914
 Alpha  occ. eigenvalues --   -0.36850  -0.36716  -0.36701  -0.36433  -0.36418
 Alpha  occ. eigenvalues --   -0.35928  -0.35774  -0.35609  -0.35489  -0.35355
 Alpha  occ. eigenvalues --   -0.35246  -0.34767  -0.34677  -0.34340  -0.33776
 Alpha  occ. eigenvalues --   -0.33757  -0.33090  -0.33066  -0.32764  -0.32706
 Alpha  occ. eigenvalues --   -0.32068  -0.31979  -0.31535  -0.31484  -0.31416
 Alpha  occ. eigenvalues --   -0.31159  -0.30647  -0.30171  -0.29590  -0.29391
 Alpha  occ. eigenvalues --   -0.29274  -0.29114  -0.28247  -0.27417  -0.26857
 Alpha  occ. eigenvalues --   -0.26048  -0.25824  -0.25766  -0.25744  -0.25624
 Alpha  occ. eigenvalues --   -0.25471  -0.25343  -0.25143  -0.21577  -0.20558
 Alpha  occ. eigenvalues --   -0.19295  -0.18586
 Alpha virt. eigenvalues --   -0.11531  -0.10964  -0.05500  -0.04709  -0.03340
 Alpha virt. eigenvalues --   -0.03299  -0.01762  -0.01744  -0.00757  -0.00224
 Alpha virt. eigenvalues --    0.00269   0.00649   0.00831   0.01418   0.01803

 Mulliken charges:
               1
     1  Mg  12.000000
     2  C    6.000000
     3  C    6.000000
     4  C    6.000000
     5  C    6.000000
     6  N    7.000000
     7  C    6.000000
     8  C    6.000000
     9  C    6.000000
    10  C    6.000000
    11  C    6.000000
    12  C    6.000000
    13  C    6.000000
    14  H    1.000000
    15  N    7.000000
    16  C    6.000000
    17  C    6.000000
    18  C    6.000000
    19  C    6.000000
    20  C    6.000000
    21  C    6.000000
    22  O    8.000000
    23  C    6.000000
    24  N    7.000000
    25  C    6.000000
    26  C    6.000000
    27  C    6.000000
    28  C    6.000000
    29  C    6.000000
    30  C    6.000000
    31  C    6.000000
    32  N    7.000000
    33  C    6.000000
    34  C    6.000000
    35  C    6.000000
    36  C    6.000000
    37  C    6.000000
    38  C    6.000000
    39  O    8.000000
    40  C    6.000000
    41  C    6.000000
    42  O    8.000000
    43  O    8.000000
    44  C    6.000000
    45  H    1.000000
    46  H    1.000000
    47  H    1.000000
    48  H    1.000000
    49  H    1.000000
    50  H    1.000000
    51  H    1.000000
    52  H    1.000000
    53  H    1.000000
    54  H    1.000000
    55  H    1.000000
    56  H    1.000000
    57  H    1.000000
    58  H    1.000000
    59  H    1.000000
    60  H    1.000000
    61  H    1.000000
    62  H    1.000000
    63  H    1.000000
    64  H    1.000000
    65  H    1.000000
    66  H    1.000000
    67  H    1.000000
    68  H    1.000000
    69  H    1.000000
    70  H    1.000000
    71  H    1.000000
    72  H    1.000000
    73  H    1.000000
    74  H    1.000000
    75  H    1.000000
    76  H    1.000000
    77  H    1.000000
    78  H    1.000000
    79  H    1.000000
    80  Mg  12.000000
    81  C    6.000000
    82  C    6.000000
    83  C    6.000000
    84  C    6.000000
    85  N    7.000000
    86  C    6.000000
    87  C    6.000000
    88  C    6.000000
    89  C    6.000000
    90  C    6.000000
    91  C    6.000000
    92  C    6.000000
    93  H    1.000000
    94  N    7.000000
    95  C    6.000000
    96  C    6.000000
    97  C    6.000000
    98  C    6.000000
    99  C    6.000000
   100  C    6.000000
   101  O    8.000000
   102  C    6.000000
   103  N    7.000000
   104  C    6.000000
   105  C    6.000000
   106  C    6.000000
   107  C    6.000000
   108  C    6.000000
   109  C    6.000000
   110  C    6.000000
   111  N    7.000000
   112  C    6.000000
   113  C    6.000000
   114  C    6.000000
   115  C    6.000000
   116  C    6.000000
   117  C    6.000000
   118  O    8.000000
   119  C    6.000000
   120  C    6.000000
   121  O    8.000000
   122  O    8.000000
   123  C    6.000000
   124  H    1.000000
   125  H    1.000000
   126  H    1.000000
   127  H    1.000000
   128  H    1.000000
   129  H    1.000000
   130  H    1.000000
   131  H    1.000000
   132  H    1.000000
   133  H    1.000000
   134  H    1.000000
   135  H    1.000000
   136  H    1.000000
   137  H    1.000000
   138  H    1.000000
   139  H    1.000000
   140  H    1.000000
   141  H    1.000000
   142  H    1.000000
   143  H    1.000000
   144  H    1.000000
   145  H    1.000000
   146  H    1.000000
   147  H    1.000000
   148  H    1.000000
   149  H    1.000000
   150  H    1.000000
   151  H    1.000000
   152  H    1.000000
   153  H    1.000000
   154  H    1.000000
   155  H    1.000000
   156  H    1.000000
   157  H    1.000000
   158  H    1.000000
 Sum of Mulliken charges = 624.00000

 Dipole moment (field-independent basis, Debye):
    X=             -0.0000    Y=             -0.0000    Z=              0.0000  Tot=              0.0000
 Quadrupole moment (field-independent basis, Debye-Ang):
   XX=              0.0000   YY=             -0.0000   ZZ=              0.0000
   XY=              0.0000   XZ=             -0.0000   YZ=              0.0000

 Normal termination of Gaussian 16 at Fri Oct 15 15:59:43 2021.
