 Gaussian 16, Revision A.03,
 Gaussian 16:  ES64L-G16RevA.03 25-Dec-2016

 --------------------------------------------------------
 #p PBE1PBE/Def2SVP td=(nstates=5) density=(transition=1)
 --------------------------------------------------------

 --------------------------------
 TDDFT excited states in gaussian
 --------------------------------
 Symbolic Z-matrix:
 Charge =  0 Multiplicity = 1

                         Standard orientation:
 ---------------------------------------------------------------------
 Center     Atomic      Atomic             Coordinates (Angstroms)
 Number     Number       Type             X           Y           Z
 ---------------------------------------------------------------------
      1         12           0       11.541345    0.101282    0.537979
      2          6           0        8.144197   -0.670994   -0.320617
      3          6           0       12.371087   -2.898398   -1.215110
      4          6           0       14.755930    1.045626    0.285958
      5          6           0       10.516339    3.222331    1.489148
      6          7           0       10.372019   -1.517067   -0.633388
      7          6           0        9.025963   -1.635233   -0.822204
      8          6           0        8.661441   -2.923712   -1.639198
      9          6           0       10.025751   -3.757308   -1.518501
     10          6           0       10.993142   -2.635604   -1.175666
     11          6           0       10.030112   -4.809661   -0.433516
     12          6           0        8.110307   -2.626201   -3.023889
     13          6           0        6.871234   -3.433742   -3.490363
     14          1           0        7.027427   -4.678379   -4.482503
     15          7           0       13.404181   -0.856814   -0.273096
     16          6           0       13.497458   -2.134509   -0.863300
     17          6           0       14.909083   -2.418502   -1.149250
     18          6           0       15.628728   -1.259222   -0.657379
     19          6           0       14.632206   -0.280965   -0.277797
     20          6           0       15.461078   -3.611940   -1.833669
     21          6           0       17.129985   -1.144546   -0.570487
     22          8           0       17.791316   -2.135941   -0.782631
     23          6           0       17.870831    0.125864   -0.222266
     24          7           0       12.403908    1.878985    0.733048
     25          6           0       13.793448    1.962451    0.732721
     26          6           0       14.164043    3.408444    1.070443
     27          6           0       12.835772    4.016332    1.652773
     28          6           0       11.853868    2.947658    1.308863
     29          6           0       15.446833    3.663248    1.944125
     30          6           0       12.422988    5.450101    1.198701
     31          6           0       12.170346    6.474536    2.256375
     32          7           0        9.745615    1.073939    0.711012
     33          6           0        9.453061    2.338254    1.191965
     34          6           0        7.999454    2.500020    1.388209
     35          6           0        7.468161    1.326149    0.725713
     36          6           0        8.565318    0.546956    0.346033
     37          6           0        7.221092    3.626500    2.015381
     38          6           0        6.188654    0.641897    0.375466
     39          8           0        5.053269    1.007112    0.488475
     40          6           0        6.616942   -0.596839   -0.404586
     41          6           0        5.989639   -1.790320    0.251782
     42          8           0        6.336380   -2.089951    1.374113
     43          8           0        5.088359   -2.547544   -0.555279
     44          6           0        4.617836   -3.848089    0.010826
     45          1           0       12.663743   -3.833616   -1.697288
     46          1           0       15.748702    1.498689    0.291392
     47          1           0       10.233126    4.154754    1.981327
     48          1           0        7.955346   -3.556995   -1.102859
     49          1           0       10.337239   -4.153272   -2.485015
     50          1           0       10.231737   -4.319646    0.518745
     51          1           0       10.774735   -5.554493   -0.714001
     52          1           0        9.113607   -5.367049   -0.237243
     53          1           0        8.907318   -2.877234   -3.723105
     54          1           0        8.014534   -1.544539   -3.118051
     55          1           0        6.252848   -2.674594   -3.969915
     56          1           0        6.283368   -3.837926   -2.666166
     57          1           0       15.807248   -4.279877   -1.045499
     58          1           0       16.367792   -3.328998   -2.368465
     59          1           0       14.846184   -4.178869   -2.533696
     60          1           0       18.955603    0.073030   -0.312782
     61          1           0       17.633057    0.322071    0.823305
     62          1           0       17.596468    1.056850   -0.716957
     63          1           0       14.459412    3.788286    0.091965
     64          1           0       12.872662    3.928495    2.738191
     65          1           0       15.721244    2.763598    2.495624
     66          1           0       15.298888    4.523257    2.597017
     67          1           0       16.280806    3.960067    1.308507
     68          1           0       11.531366    5.376457    0.576142
     69          1           0       13.178604    5.788712    0.489962
     70          1           0       11.098140    6.656441    2.326698
     71          1           0       12.648739    7.413144    1.976961
     72          1           0       12.502476    6.247131    3.269098
     73          1           0        6.234500    3.290691    2.334051
     74          1           0        7.150913    4.409398    1.259715
     75          1           0        7.834392    4.051523    2.810145
     76          1           0        6.358951   -0.427954   -1.450171
     77          1           0        3.827884   -3.655825    0.737051
     78          1           0        5.417272   -4.345232    0.559828
     79          1           0        4.277222   -4.514405   -0.781472
     80         12           0      -10.859161    0.912216    0.171116
     81          6           0      -11.257106   -2.569454    0.507352
     82          6           0       -7.489331    0.279783   -0.410333
     83          6           0      -10.428777    4.121823   -0.606546
     84          6           0      -14.306379    1.164148   -0.139715
     85          7           0       -9.601875   -1.003686   -0.089460
     86          6           0       -9.912254   -2.315893    0.209987
     87          6           0       -8.725344   -3.235500    0.406460
     88          6           0       -7.513566   -2.312590    0.134317
     89          6           0       -8.193391   -0.934567   -0.156579
     90          6           0       -6.467662   -2.241884    1.319914
     91          6           0       -8.670192   -4.533471   -0.516779
     92          6           0       -9.278895   -4.442435   -1.925607
     93          1           0       -8.312914   -4.325815   -3.141690
     94          7           0       -9.221765    2.015018   -0.403740
     95          6           0       -7.927016    1.597857   -0.527554
     96          6           0       -7.055884    2.746391   -0.813866
     97          6           0       -7.904817    3.893816   -0.872539
     98          6           0       -9.275137    3.348081   -0.627672
     99          6           0       -5.544324    2.639554   -0.976787
    100          6           0       -7.285108    5.286601   -1.265260
    101          8           0       -6.094398    5.325961   -1.542232
    102          6           0       -8.211497    6.569112   -1.383632
    103          7           0      -12.158319    2.360002   -0.417517
    104          6           0      -11.768133    3.691792   -0.538068
    105          6           0      -13.069049    4.657245   -0.732872
    106          6           0      -14.258055    3.551679   -0.718256
    107          6           0      -13.518264    2.292543   -0.399164
    108          6           0      -13.190025    5.734249    0.385154
    109          6           0      -15.079937    3.420987   -2.071649
    110          6           0      -16.613854    3.495517   -2.021135
    111          7           0      -12.515896   -0.390969    0.297774
    112          6           0      -13.862770   -0.183236    0.144706
    113          6           0      -14.556375   -1.481251    0.282616
    114          6           0      -13.528813   -2.425801    0.547886
    115          6           0      -12.311878   -1.690577    0.491701
    116          6           0      -16.028761   -1.756087    0.150805
    117          6           0      -13.299958   -3.869368    0.746827
    118          8           0      -14.066968   -4.828304    0.917113
    119          6           0      -11.791969   -3.962099    0.926189
    120          6           0      -11.413824   -4.398392    2.228057
    121          8           0      -11.410453   -3.620871    3.217378
    122          8           0      -11.028399   -5.753676    2.227238
    123          6           0      -10.458333   -6.310729    3.449732
    124          1           0       -6.403803    0.165401   -0.429070
    125          1           0      -10.311202    5.202954   -0.701123
    126          1           0      -15.382837    1.338146   -0.189975
    127          1           0       -8.824257   -3.526586    1.451521
    128          1           0       -7.121632   -2.625378   -0.832816
    129          1           0       -5.542637   -2.732259    1.016789
    130          1           0       -6.932211   -2.760536    2.158970
    131          1           0       -6.228779   -1.209987    1.579395
    132          1           0       -9.285728   -5.225416    0.059448
    133          1           0       -7.646465   -4.907446   -0.544204
    134          1           0       -9.975888   -3.606157   -1.989213
    135          1           0       -9.918490   -5.311621   -2.073229
    136          1           0       -5.191510    2.683850   -2.007180
    137          1           0       -5.141863    1.824387   -0.375302
    138          1           0       -5.042338    3.460214   -0.464615
    139          1           0       -8.828275    6.595257   -0.484978
    140          1           0       -8.815155    6.451298   -2.283138
    141          1           0       -7.674679    7.481328   -1.643994
    142          1           0      -12.883025    5.224929   -1.644105
    143          1           0      -14.901443    3.791402    0.128619
    144          1           0      -13.855935    5.335567    1.150191
    145          1           0      -13.491780    6.709420    0.002767
    146          1           0      -12.242660    5.995603    0.856347
    147          1           0      -14.750348    2.495892   -2.545675
    148          1           0      -14.716152    4.286541   -2.625329
    149          1           0      -17.074700    3.058617   -2.907474
    150          1           0      -16.789911    4.569971   -1.974811
    151          1           0      -16.876160    2.946727   -1.116388
    152          1           0      -16.387144   -0.960827   -0.502262
    153          1           0      -16.390067   -1.563179    1.160910
    154          1           0      -16.289518   -2.777888   -0.126495
    155          1           0      -11.532056   -4.697413    0.165024
    156          1           0      -11.107313   -6.371520    4.323401
    157          1           0       -9.570611   -5.746297    3.736664
    158          1           0      -10.012059   -7.265549    3.171295
 ---------------------------------------------------------------------

 SCF Done:  E(RPBE1PBE) =  -4067.36779931     A.U. after   15 cycles

 Excitation energies and oscillator strengths:

 Excited State   1:      Singlet-A      1.7356 eV  714.37 nm  f=0.0000  <S**2>=0.000
     312 -> 313        0.70708
 This state for optimization and/or second-order correction.
 Total Energy, E(TD-HF/TD-DFT) =  -4067.30401773
 Copying the excited state density for this state as the 1-particle RhoCI density.

 Excited State   2:      Singlet-A      1.8354 eV  675.53 nm  f=0.4251  <S**2>=0.000
     309 -> 316        0.16237
     311 -> 313        0.68988
     311 <- 313       -0.11823

 Excited State   3:      Singlet-A      1.8706 eV  662.80 nm  f=0.3390  <S**2>=0.000
     310 -> 315        0.17375
     312 -> 314        0.68524
     312 <- 314       -0.10294

 Excited State   4:      Singlet-A      2.0486 eV  605.21 nm  f=0.0000  <S**2>=0.000
     311 -> 314        0.70708

 Excited State   5:      Singlet-A      2.2361 eV  554.48 nm  f=0.1172  <S**2>=0.000
     308 -> 313        0.10045
     309 -> 313        0.64811
     311 -> 316       -0.25668

 The electronic state is 1-A.
 Alpha  occ. eigenvalues --  -46.92743 -46.92259 -19.26344 -19.25905 -19.20897
 Alpha  occ. eigenvalues --  -19.20359 -19.19842 -19.19678 -19.19388 -19.18241
 Alpha  occ. eigenvalues --  -14.42135 -14.41966 -14.41634 -14.41363 -14.39430
 Alpha  occ. eigenvalues --  -14.39009 -14.38929 -14.38829 -10.37216 -10.36899
 Alpha  occ. eigenvalues --  -10.33528 -10.32485 -10.32456 -10.31693 -10.29522
 Alpha  occ. eigenvalues --  -10.29472 -10.29251 -10.29132 -10.29032 -10.28986
 Alpha  occ. eigenvalues --  -10.28494 -10.28369 -10.28345 -10.28344 -10.28190
 Alpha  occ. eigenvalues --  -10.27950 -10.27925 -10.27874 -10.27348 -10.27287
 Alpha  occ. eigenvalues --  -10.27075 -10.26797 -10.26725 -10.26422 -10.26395
 Alpha  occ. eigenvalues --  -10.26382 -10.26363 -10.26250 -10.26144 -10.26138
 Alpha  occ. eigenvalues --  -10.26029 -10.26007 -10.25925 -10.25823 -10.25816
 Alpha  occ. eigenvalues --  -10.25783 -10.25587 -10.25460 -10.25391 -10.25297
 Alpha  occ. eigenvalues --  -10.25067 -10.24942 -10.24789 -10.24725 -10.24554
 Alpha  occ. eigenvalues --  -10.24484 -10.24393 -10.24338 -10.24337 -10.24313
 Alpha  occ. eigenvalues --  -10.24222 -10.24195 -10.24142 -10.24074 -10.24040
 Alpha  occ. eigenvalues --  -10.23990 -10.23928 -10.23526 -10.23472 -10.23317
 Alpha  occ. eigenvalues --  -10.23233 -10.23222 -10.23175 -10.22938 -10.22837
 Alpha  occ. eigenvalues --  -10.22677  -3.14889  -3.14460  -1.87675  -1.87270
 Alpha  occ. eigenvalues --   -1.87257  -1.87118  -1.86851  -1.86686  -1.10056
 Alpha  occ. eigenvalues --   -1.09609  -1.06415  -1.05006  -1.04996  -1.03739
 Alpha  occ. eigenvalues --   -1.02682  -1.01704  -0.99244  -0.98770  -0.98202
 Alpha  occ. eigenvalues --   -0.98085  -0.97384  -0.97133  -0.96398  -0.96204
 Alpha  occ. eigenvalues --   -0.87439  -0.87046  -0.83728  -0.83403  -0.83155
 Alpha  occ. eigenvalues --   -0.83004  -0.82792  -0.82253  -0.81912  -0.81042
 Alpha  occ. eigenvalues --   -0.80554  -0.80362  -0.79966  -0.79701  -0.78772
 Alpha  occ. eigenvalues --   -0.78742  -0.78280  -0.78097  -0.76977  -0.76780
 Alpha  occ. eigenvalues --   -0.76034  -0.75773  -0.75138  -0.74867  -0.74530
 Alpha  occ. eigenvalues --   -0.74334  -0.72507  -0.72448  -0.71806  -0.71411
 Alpha  occ. eigenvalues --   -0.71114  -0.70904  -0.70751  -0.70615  -0.69611
 Alpha  occ. eigenvalues --   -0.69173  -0.67112  -0.66722  -0.66238  -0.66100
 Alpha  occ. eigenvalues --   -0.63913  -0.63563  -0.63322  -0.63261  -0.62762
 Alpha  occ. eigenvalues --   -0.62361  -0.61148  -0.61139  -0.60406  -0.60124
 Alpha  occ. eigenvalues --   -0.59587  -0.59532  -0.59152  -0.59023  -0.58850
 Alpha  occ. eigenvalues --   -0.58651  -0.56957  -0.56903  -0.54691  -0.54363
 Alpha  occ. eigenvalues --   -0.54055  -0.54002  -0.53803  -0.53531  -0.53495
 Alpha  occ. eigenvalues --   -0.53138  -0.53008  -0.52259  -0.52250  -0.51678
 Alpha  occ. eigenvalues --   -0.51117  -0.50568  -0.50213  -0.50064  -0.49992
 Alpha  occ. eigenvalues --   -0.49414  -0.48900  -0.48819  -0.48717  -0.48471
 Alpha  occ. eigenvalues --   -0.48319  -0.47924  -0.47745  -0.47531  -0.47498
 Alpha  occ. eigenvalues --   -0.47109  -0.46905  -0.46864  -0.46581  -0.46347
 Alpha  occ. eigenvalues --   -0.46264  -0.46082  -0.45909  -0.45719  -0.45585
 Alpha  occ. eigenvalues --   -0.45480  -0.45398  -0.45088  -0.45073  -0.44859
 Alpha  occ. eigenvalues --   -0.44506  -0.44456  -0.44448  -0.44323  -0.43939
 Alpha  occ. eigenvalues --   -0.43860  -0.43847  -0.43794  -0.43748  -0.43447
 Alpha  occ. eigenvalues --   -0.43332  -0.43281  -0.43148  -0.42837  -0.42826
 Alpha  occ. eigenvalues --   -0.42752  -0.42391  -0.42018  -0.41846  -0.41675
 Alpha  occ. eigenvalues --   -0.41669  -0.41271  -0.41118  -0.41050  -0.41047
 Alpha  occ. eigenvalues --   -0.40906  -0.40887  -0.40841  -0.40824  -0.40707
 Alpha  occ. eigenvalues --   -0.40619  -0.40471  -0.39988  -0.39970  -0.39670
 Alpha  occ. eigenvalues --   -0.39666  -0.39443  -0.39399  -0.39356  -0.39219
 Alpha  occ. eigenvalues --   -0.38831  -0.38615  -0.38610  -0.38453  -0.38276
 Alpha  occ. eigenvalues --   -0.38133  -0.37956  -0.37803  -0.37734  -0.37673
 Alpha  occ. eigenvalues --   -0.37507  -0.37435  -0.37359  -0.37223  -0.37172
 Alpha  occ. eigenvalues --   -0.36979  -0.36818  -0.36816  -0.36424  -0.36403
 Alpha  occ. eigenvalues --   -0.36034  -0.35878  -0.35669  -0.35533  -0.35449
 Alpha  occ. eigenvalues --   -0.35220  -0.35159  -0.34723  -0.34569  -0.34239
 Alpha  occ. eigenvalues --   -0.33776  -0.33465  -0.32697  -0.32521  -0.32434
 Alpha  occ. eigenvalues --   -0.32357  -0.32077  -0.32001  -0.31980  -0.31583
 Alpha  occ. eigenvalues --   -0.31534  -0.30870  -0.29899  -0.29817  -0.29574
 Alpha  occ. eigenvalues --   -0.29000  -0.28839  -0.28771  -0.26859  -0.26808
 Alpha  occ. eigenvalues --   -0.26359  -0.26098  -0.25903  -0.25509  -0.25328
 Alpha  occ. eigenvalues --   -0.25243  -0.25243  -0.24411  -0.21214  -0.20951
 Alpha  occ. eigenvalues --   -0.18789  -0.18397
 Alpha virt. eigenvalues --   -0.11407  -0.10653  -0.05187  -0.05033  -0.03890
 Alpha virt. eigenvalues --   -0.03557  -0.02297  -0.01972  -0.01561  -0.01094
 Alpha virt. eigenvalues --   -0.00947  -0.00246   0.00218   0.00902   0.01176

 Mulliken charges:
               1
     1  Mg  12.000000
     2  C    6.000000
     3  C    6.000000
     4  C    6.000000
     5  C    6.000000
     6  N    7.000000
     7  C    6.000000
     8  C    6.000000
     9  C    6.000000
    10  C    6.000000
    11  C    6.000000
    12  C    6.000000
    13  C    6.000000
    14  H    1.000000
    15  N    7.000000
    16  C    6.000000
    17  C    6.000000
    18  C    6.000000
    19  C    6.000000
    20  C    6.000000
    21  C    6.000000
    22  O    8.000000
    23  C    6.000000
    24  N    7.000000
    25  C    6.000000
    26  C    6.000000
    27  C    6.000000
    28  C    6.000000
    29  C    6.000000
    30  C    6.000000
    31  C    6.000000
    32  N    7.000000
    33  C    6.000000
    34  C    6.000000
    35  C    6.000000
    36  C    6.000000
    37  C    6.000000
    38  C    6.000000
    39  O    8.000000
    40  C    6.000000
    41  C    6.000000
    42  O    8.000000
    43  O    8.000000
    44  C    6.000000
    45  H    1.000000
    46  H    1.000000
    47  H    1.000000
    48  H    1.000000
    49  H    1.000000
    50  H    1.000000
    51  H    1.000000
    52  H    1.000000
    53  H    1.000000
    54  H    1.000000
    55  H    1.000000
    56  H    1.000000
    57  H    1.000000
    58  H    1.000000
    59  H    1.000000
    60  H    1.000000
    61  H    1.000000
    62  H    1.000000
    63  H    1.000000
    64  H    1.000000
    65  H    1.000000
    66  H    1.000000
    67  H    1.000000
    68  H    1.000000
    69  H    1.000000
    70  H    1.000000
    71  H    1.000000
    72  H    1.000000
    73  H    1.000000
    74  H    1.000000
    75  H    1.000000
    76  H    1.000000
    77  H    1.000000
    78  H    1.000000
    79  H    1.000000
    80  Mg  12.000000
    81  C    6.000000
    82  C    6.000000
    83  C    6.000000
    84  C    6.000000
    85  N    7.000000
    86  C    6.000000
    87  C    6.000000
    88  C    6.000000
    89  C    6.000000
    90  C    6.000000
    91  C    6.000000
    92  C    6.000000
    93  H    1.000000
    94  N    7.000000
    95  C    6.000000
    96  C    6.000000
    97  C    6.000000
    98  C    6.000000
    99  C    6.000000
   100  C    6.000000
   101  O    8.000000
   102  C    6.000000
   103  N    7.000000
   104  C    6.000000
   105  C    6.000000
   106  C    6.000000
   107  C    6.000000
   108  C    6.000000
   109  C    6.000000
   110  C    6.000000
   111  N    7.000000
   112  C    6.000000
   113  C    6.000000
   114  C    6.000000
   115  C    6.000000
   116  C    6.000000
   117  C    6.000000
   118  O    8.000000
   119  C    6.000000
   120  C    6.000000
   121  O    8.000000
   122  O    8.000000
   123  C    6.000000
   124  H    1.000000
   125  H    1.000000
   126  H    1.000000
   127  H    1.000000
   128  H    1.000000
   129  H    1.000000
   130  H    1.000000
   131  H    1.000000
   132  H    1.000000
   133  H    1.000000
   134  H    1.000000
   135  H    1.000000
   136  H    1.000000
   137  H    1.000000
   138  H    1.000000
   139  H    1.000000
   140  H    1.000000
   141  H    1.000000
   142  H    1.000000
   143  H    1.000000
   144  H    1.000000
   145  H    1.000000
   146  H    1.000000
   147  H    1.000000
   148  H    1.000000
   149  H    1.000000
   150  H    1.000000
   151  H    1.000000
   152  H    1.000000
   153  H    1.000000
   154  H    1.000000
   155  H    1.000000
   156  H    1.000000
   157  H    1.000000
   158  H    1.000000
 Sum of Mulliken charges = 624.00000

 Dipole moment (field-independent basis, Debye):
    X=             -0.0000    Y=             -0.0000    Z=              0.0000  Tot=              0.0000
 Quadrupole moment (field-independent basis, Debye-Ang):
   XX=              0.0000   YY=             -0.0000   ZZ=             -0.0000
   XY=              0.0000   XZ=             -0.0000   YZ=              0.0000

 Normal termination of Gaussian 16 at Thu Oct 14 20:14:01 2021.
