 Gaussian 16, Revision A.03,
 Gaussian 16:  ES64L-G16RevA.03 25-Dec-2016

 --------------------------------------------------------
 #p PBE1PBE/Def2SVP td=(nstates=5) density=(transition=1)
 --------------------------------------------------------

 --------------------------------
 TDDFT excited states in gaussian
 --------------------------------
 Symbolic Z-matrix:
 Charge =  0 Multiplicity = 1

                         Standard orientation:
 ---------------------------------------------------------------------
 Center     Atomic      Atomic             Coordinates (Angstroms)
 Number     Number       Type             X           Y           Z
 ---------------------------------------------------------------------
      1         12           0       25.312439   -0.596492    0.376978
      2          6           0       26.660185    1.963694   -1.658944
      3          6           0       24.036553    1.829872    2.473772
      4          6           0       24.286396   -3.063865    2.460467
      5          6           0       26.808368   -3.022146   -1.664542
      6          7           0       25.487751    1.610599    0.371661
      7          6           0       25.886685    2.458116   -0.659167
      8          6           0       25.569285    3.971697   -0.318954
      9          6           0       24.993090    3.860101    1.117730
     10          6           0       24.865251    2.344764    1.391247
     11          6           0       25.771169    4.572004    2.286884
     12          6           0       24.732891    4.781473   -1.392457
     13          6           0       25.418149    5.988723   -1.957554
     14          1           0       24.494483    7.235917   -2.253929
     15          7           0       24.334112   -0.562237    2.168820
     16          6           0       23.818006    0.512651    2.863800
     17          6           0       23.193907    0.041099    4.090110
     18          6           0       23.237006   -1.381199    4.134933
     19          6           0       23.962777   -1.747409    2.863375
     20          6           0       22.446727    0.952959    5.084042
     21          6           0       22.666054   -2.350469    5.164996
     22          8           0       22.693452   -3.558027    5.044884
     23          6           0       21.873831   -1.906649    6.462451
     24          7           0       25.608380   -2.760353    0.437438
     25          6           0       25.087967   -3.529186    1.385040
     26          6           0       25.390891   -5.050759    1.141798
     27          6           0       26.039478   -5.040808   -0.298850
     28          6           0       26.148436   -3.508367   -0.561597
     29          6           0       26.214282   -5.674758    2.305457
     30          6           0       25.221838   -5.832836   -1.299894
     31          6           0       26.057736   -6.693039   -2.245965
     32          7           0       26.615128   -0.640435   -1.247949
     33          6           0       27.063384   -1.682560   -2.036743
     34          6           0       27.924605   -1.122765   -3.032453
     35          6           0       27.782746    0.285950   -2.976558
     36          6           0       26.962905    0.566759   -1.848116
     37          6           0       28.737217   -1.884412   -4.009661
     38          6           0       28.120028    1.550164   -3.653832
     39          8           0       28.883633    1.824631   -4.574958
     40          6           0       27.291417    2.745794   -2.746346
     41          6           0       28.223675    3.718042   -2.267261
     42          8           0       28.614156    3.793867   -1.122470
     43          8           0       28.516272    4.639373   -3.247315
     44          6           0       29.525329    5.636942   -2.812159
     45          1           0       23.511665    2.558631    3.095251
     46          1           0       24.023056   -3.894251    3.118134
     47          1           0       27.163638   -3.841529   -2.293948
     48          1           0       26.549419    4.413449   -0.142510
     49          1           0       23.981622    4.264391    1.158619
     50          1           0       25.016082    5.014376    2.937442
     51          1           0       26.432577    5.321905    1.853655
     52          1           0       26.385008    3.903656    2.891041
     53          1           0       23.792283    5.036274   -0.903964
     54          1           0       24.557510    4.103587   -2.227983
     55          1           0       25.888523    5.732718   -2.907837
     56          1           0       26.180063    6.217681   -1.212994
     57          1           0       21.401415    0.656360    5.005345
     58          1           0       22.464543    1.976062    4.707735
     59          1           0       22.747116    0.865277    6.128897
     60          1           0       21.028381   -1.295208    6.145246
     61          1           0       22.529321   -1.546009    7.255703
     62          1           0       21.598771   -2.844695    6.943715
     63          1           0       24.494043   -5.662748    1.047823
     64          1           0       27.053546   -5.419437   -0.169249
     65          1           0       27.071893   -6.194435    1.877265
     66          1           0       25.620362   -6.307768    2.965227
     67          1           0       26.595265   -4.882973    2.948377
     68          1           0       24.571034   -5.194265   -1.896308
     69          1           0       24.481293   -6.495246   -0.848983
     70          1           0       27.119723   -6.462319   -2.161360
     71          1           0       25.736374   -6.434186   -3.255228
     72          1           0       25.838125   -7.756182   -2.146730
     73          1           0       28.693721   -2.972293   -3.958412
     74          1           0       29.716357   -1.404239   -4.026246
     75          1           0       28.169857   -1.766952   -4.933230
     76          1           0       26.554116    3.228695   -3.388301
     77          1           0       30.451851    5.130958   -2.539901
     78          1           0       29.055347    6.209943   -2.012897
     79          1           0       29.806062    6.330047   -3.604230
     80         12           0      -25.420527   -0.702430   -0.341413
     81          6           0      -26.251515    2.508811    1.007209
     82          6           0      -25.064723    0.742297   -3.436583
     83          6           0      -25.085429   -3.737293   -1.785412
     84          6           0      -26.755248   -2.106336    2.606285
     85          7           0      -25.628008    1.382298   -1.088164
     86          6           0      -25.901907    2.561716   -0.377864
     87          6           0      -25.793753    3.737671   -1.314411
     88          6           0      -25.936890    3.051459   -2.738032
     89          6           0      -25.569100    1.576667   -2.400448
     90          6           0      -27.427293    3.214770   -3.204816
     91          6           0      -24.528240    4.634978   -1.076393
     92          6           0      -24.884425    6.034945   -1.126524
     93          1           0      -23.766495    7.042257   -0.551823
     94          7           0      -24.944003   -1.301028   -2.333957
     95          6           0      -24.805502   -0.556927   -3.437781
     96          6           0      -24.378869   -1.390426   -4.519481
     97          6           0      -24.390340   -2.699997   -4.087319
     98          6           0      -24.779832   -2.649695   -2.602832
     99          6           0      -24.188967   -0.839747   -5.968547
    100          6           0      -23.984513   -3.978315   -4.849300
    101          8           0      -24.097838   -5.046174   -4.302680
    102          6           0      -23.367121   -3.895014   -6.225377
    103          7           0      -26.129390   -2.633752    0.252365
    104          6           0      -25.721027   -3.732813   -0.495237
    105          6           0      -25.910264   -4.998604    0.275729
    106          6           0      -26.429098   -4.480415    1.704810
    107          6           0      -26.383149   -2.978022    1.554814
    108          6           0      -26.789564   -5.982692   -0.419016
    109          6           0      -25.632353   -4.997895    3.024829
    110          6           0      -26.381727   -5.783775    4.026913
    111          7           0      -26.282974   -0.008041    1.487093
    112          6           0      -26.767347   -0.726707    2.556736
    113          6           0      -27.193534    0.270180    3.632571
    114          6           0      -26.903273    1.548385    3.114716
    115          6           0      -26.399799    1.326280    1.785148
    116          6           0      -27.830774   -0.117175    4.973994
    117          6           0      -27.083008    2.941152    3.392863
    118          8           0      -27.526923    3.513468    4.413745
    119          6           0      -26.832320    3.628253    1.988111
    120          6           0      -25.934291    4.865655    2.289255
    121          8           0      -24.708658    4.829525    2.075333
    122          8           0      -26.704175    5.905165    2.694796
    123          6           0      -25.805909    7.012141    3.172104
    124          1           0      -24.733308    1.212837   -4.364993
    125          1           0      -24.965164   -4.730545   -2.224480
    126          1           0      -27.091166   -2.442531    3.589304
    127          1           0      -26.707643    4.313546   -1.170317
    128          1           0      -25.284403    3.514767   -3.477253
    129          1           0      -28.123602    2.563645   -2.676918
    130          1           0      -27.475301    3.061841   -4.282129
    131          1           0      -27.735503    4.246740   -3.035446
    132          1           0      -23.897615    4.509705   -1.956897
    133          1           0      -23.980573    4.340388   -0.180880
    134          1           0      -25.705090    6.256551   -0.444036
    135          1           0      -25.103944    6.278370   -2.166362
    136          1           0      -23.167580   -1.136029   -6.207310
    137          1           0      -24.251243    0.244531   -6.059848
    138          1           0      -24.950261   -1.258888   -6.626328
    139          1           0      -23.223714   -4.892277   -6.641459
    140          1           0      -22.444862   -3.404146   -5.914743
    141          1           0      -24.015855   -3.281437   -6.850426
    142          1           0      -24.891366   -5.377005    0.360046
    143          1           0      -27.458579   -4.824020    1.802704
    144          1           0      -26.113930   -6.782826   -0.718684
    145          1           0      -27.193895   -5.604614   -1.357869
    146          1           0      -27.627356   -6.361093    0.167110
    147          1           0      -25.378626   -4.058140    3.515246
    148          1           0      -24.710960   -5.471586    2.688714
    149          1           0      -26.429414   -5.261476    4.982086
    150          1           0      -25.650061   -6.585031    4.124836
    151          1           0      -27.316188   -6.194434    3.642066
    152          1           0      -28.906910   -0.066774    4.812005
    153          1           0      -27.551703    0.560742    5.780566
    154          1           0      -27.473221   -1.105512    5.262963
    155          1           0      -27.835594    3.910482    1.671847
    156          1           0      -25.335271    6.836451    4.139299
    157          1           0      -26.276665    7.993594    3.218832
    158          1           0      -25.053610    7.131282    2.392132
 ---------------------------------------------------------------------

 SCF Done:  E(RPBE1PBE) =  -4067.34412820     A.U. after   16 cycles

 Excitation energies and oscillator strengths:

 Excited State   1:      Singlet-A      1.7924 eV  691.72 nm  f=0.0000  <S**2>=0.000
     312 -> 313        0.70711
 This state for optimization and/or second-order correction.
 Total Energy, E(TD-HF/TD-DFT) =  -4067.27825844
 Copying the excited state density for this state as the 1-particle RhoCI density.

 Excited State   2:      Singlet-A      1.8312 eV  677.06 nm  f=0.3448  <S**2>=0.000
     309 -> 315       -0.18206
     312 -> 314        0.68925

 Excited State   3:      Singlet-A      1.8744 eV  661.48 nm  f=0.3629  <S**2>=0.000
     310 -> 316       -0.17482
     311 -> 313        0.69059

 Excited State   4:      Singlet-A      2.2446 eV  552.36 nm  f=0.1090  <S**2>=0.000
     310 -> 313        0.65155
     311 -> 316        0.26006

 Excited State   5:      Singlet-A      2.2731 eV  545.45 nm  f=0.0125  <S**2>=0.000
     309 -> 314        0.57936
     312 -> 315        0.39826

 The electronic state is 1-A.
 Alpha  occ. eigenvalues --  -46.92821 -46.91673 -19.26859 -19.25026 -19.20087
 Alpha  occ. eigenvalues --  -19.19989 -19.19768 -19.19520 -19.19481 -19.19187
 Alpha  occ. eigenvalues --  -14.41816 -14.41734 -14.41509 -14.41248 -14.39893
 Alpha  occ. eigenvalues --  -14.38936 -14.38933 -14.38671 -10.36803 -10.35348
 Alpha  occ. eigenvalues --  -10.33471 -10.33258 -10.32614 -10.32227 -10.29967
 Alpha  occ. eigenvalues --  -10.29331 -10.28917 -10.28897 -10.28860 -10.28810
 Alpha  occ. eigenvalues --  -10.28724 -10.28620 -10.28540 -10.28469 -10.28337
 Alpha  occ. eigenvalues --  -10.28201 -10.27855 -10.27377 -10.27238 -10.26796
 Alpha  occ. eigenvalues --  -10.26753 -10.26721 -10.26673 -10.26493 -10.26319
 Alpha  occ. eigenvalues --  -10.26217 -10.26210 -10.26170 -10.26099 -10.25896
 Alpha  occ. eigenvalues --  -10.25747 -10.25690 -10.25562 -10.25472 -10.25386
 Alpha  occ. eigenvalues --  -10.25356 -10.25309 -10.25293 -10.25277 -10.25273
 Alpha  occ. eigenvalues --  -10.25241 -10.25132 -10.25108 -10.25082 -10.24803
 Alpha  occ. eigenvalues --  -10.24398 -10.24176 -10.24116 -10.24094 -10.24052
 Alpha  occ. eigenvalues --  -10.24037 -10.23793 -10.23764 -10.23689 -10.23684
 Alpha  occ. eigenvalues --  -10.23644 -10.23609 -10.23597 -10.23239 -10.23115
 Alpha  occ. eigenvalues --  -10.22927 -10.22912 -10.22807 -10.22803 -10.22731
 Alpha  occ. eigenvalues --  -10.22521  -3.14743  -3.13782  -1.87577  -1.87103
 Alpha  occ. eigenvalues --   -1.86965  -1.86631  -1.86150  -1.86013  -1.10871
 Alpha  occ. eigenvalues --   -1.10677  -1.06282  -1.05951  -1.04350  -1.02746
 Alpha  occ. eigenvalues --   -1.02316  -1.01991  -0.98712  -0.98581  -0.97593
 Alpha  occ. eigenvalues --   -0.97379  -0.97013  -0.96652  -0.96265  -0.95658
 Alpha  occ. eigenvalues --   -0.86384  -0.85694  -0.83461  -0.83206  -0.82939
 Alpha  occ. eigenvalues --   -0.82677  -0.82507  -0.82223  -0.81603  -0.81522
 Alpha  occ. eigenvalues --   -0.81265  -0.81201  -0.80265  -0.79954  -0.78695
 Alpha  occ. eigenvalues --   -0.78623  -0.78160  -0.77994  -0.76876  -0.76806
 Alpha  occ. eigenvalues --   -0.76553  -0.75355  -0.75063  -0.75019  -0.74806
 Alpha  occ. eigenvalues --   -0.74178  -0.72497  -0.72385  -0.71877  -0.71315
 Alpha  occ. eigenvalues --   -0.70931  -0.70815  -0.70113  -0.69832  -0.69248
 Alpha  occ. eigenvalues --   -0.69092  -0.66811  -0.66610  -0.65976  -0.65755
 Alpha  occ. eigenvalues --   -0.63336  -0.63263  -0.63149  -0.62350  -0.61998
 Alpha  occ. eigenvalues --   -0.61880  -0.61537  -0.60730  -0.60068  -0.59535
 Alpha  occ. eigenvalues --   -0.59371  -0.59356  -0.59066  -0.59021  -0.58976
 Alpha  occ. eigenvalues --   -0.58829  -0.56705  -0.55805  -0.54420  -0.54417
 Alpha  occ. eigenvalues --   -0.53818  -0.53706  -0.53312  -0.53033  -0.52850
 Alpha  occ. eigenvalues --   -0.52623  -0.52411  -0.52049  -0.51800  -0.51569
 Alpha  occ. eigenvalues --   -0.50525  -0.50506  -0.50292  -0.50047  -0.49678
 Alpha  occ. eigenvalues --   -0.49390  -0.48927  -0.48886  -0.48593  -0.48322
 Alpha  occ. eigenvalues --   -0.48129  -0.48078  -0.47750  -0.47654  -0.47609
 Alpha  occ. eigenvalues --   -0.47354  -0.47230  -0.47174  -0.47174  -0.47052
 Alpha  occ. eigenvalues --   -0.46785  -0.46502  -0.46310  -0.46063  -0.45652
 Alpha  occ. eigenvalues --   -0.45629  -0.45380  -0.45229  -0.45227  -0.45066
 Alpha  occ. eigenvalues --   -0.44907  -0.44869  -0.44547  -0.44258  -0.44121
 Alpha  occ. eigenvalues --   -0.44027  -0.43996  -0.43849  -0.43443  -0.43324
 Alpha  occ. eigenvalues --   -0.43270  -0.42926  -0.42853  -0.42745  -0.42692
 Alpha  occ. eigenvalues --   -0.42592  -0.42506  -0.42406  -0.42160  -0.41955
 Alpha  occ. eigenvalues --   -0.41472  -0.41362  -0.41234  -0.41172  -0.41014
 Alpha  occ. eigenvalues --   -0.40938  -0.40917  -0.40855  -0.40531  -0.40296
 Alpha  occ. eigenvalues --   -0.40182  -0.39955  -0.39677  -0.39509  -0.39390
 Alpha  occ. eigenvalues --   -0.39289  -0.39200  -0.39109  -0.38905  -0.38799
 Alpha  occ. eigenvalues --   -0.38697  -0.38502  -0.38476  -0.38298  -0.38186
 Alpha  occ. eigenvalues --   -0.37957  -0.37835  -0.37808  -0.37635  -0.37548
 Alpha  occ. eigenvalues --   -0.37407  -0.37281  -0.37214  -0.36917  -0.36883
 Alpha  occ. eigenvalues --   -0.36845  -0.36417  -0.36339  -0.36092  -0.36062
 Alpha  occ. eigenvalues --   -0.35694  -0.35447  -0.35207  -0.35130  -0.34925
 Alpha  occ. eigenvalues --   -0.34715  -0.34614  -0.34372  -0.33760  -0.33655
 Alpha  occ. eigenvalues --   -0.33484  -0.32975  -0.32656  -0.32285  -0.32254
 Alpha  occ. eigenvalues --   -0.32110  -0.31991  -0.31944  -0.31256  -0.31182
 Alpha  occ. eigenvalues --   -0.31005  -0.29949  -0.29322  -0.29301  -0.28996
 Alpha  occ. eigenvalues --   -0.28989  -0.28721  -0.28385  -0.27143  -0.27126
 Alpha  occ. eigenvalues --   -0.26205  -0.26013  -0.25973  -0.25932  -0.25592
 Alpha  occ. eigenvalues --   -0.25496  -0.25095  -0.24683  -0.21075  -0.20947
 Alpha  occ. eigenvalues --   -0.18889  -0.17940
 Alpha virt. eigenvalues --   -0.11096  -0.10279  -0.05896  -0.05335  -0.04255
 Alpha virt. eigenvalues --   -0.04134  -0.02360  -0.01991  -0.00920   0.00113
 Alpha virt. eigenvalues --    0.00221   0.00456   0.01008   0.01115   0.01466

 Mulliken charges:
               1
     1  Mg  12.000000
     2  C    6.000000
     3  C    6.000000
     4  C    6.000000
     5  C    6.000000
     6  N    7.000000
     7  C    6.000000
     8  C    6.000000
     9  C    6.000000
    10  C    6.000000
    11  C    6.000000
    12  C    6.000000
    13  C    6.000000
    14  H    1.000000
    15  N    7.000000
    16  C    6.000000
    17  C    6.000000
    18  C    6.000000
    19  C    6.000000
    20  C    6.000000
    21  C    6.000000
    22  O    8.000000
    23  C    6.000000
    24  N    7.000000
    25  C    6.000000
    26  C    6.000000
    27  C    6.000000
    28  C    6.000000
    29  C    6.000000
    30  C    6.000000
    31  C    6.000000
    32  N    7.000000
    33  C    6.000000
    34  C    6.000000
    35  C    6.000000
    36  C    6.000000
    37  C    6.000000
    38  C    6.000000
    39  O    8.000000
    40  C    6.000000
    41  C    6.000000
    42  O    8.000000
    43  O    8.000000
    44  C    6.000000
    45  H    1.000000
    46  H    1.000000
    47  H    1.000000
    48  H    1.000000
    49  H    1.000000
    50  H    1.000000
    51  H    1.000000
    52  H    1.000000
    53  H    1.000000
    54  H    1.000000
    55  H    1.000000
    56  H    1.000000
    57  H    1.000000
    58  H    1.000000
    59  H    1.000000
    60  H    1.000000
    61  H    1.000000
    62  H    1.000000
    63  H    1.000000
    64  H    1.000000
    65  H    1.000000
    66  H    1.000000
    67  H    1.000000
    68  H    1.000000
    69  H    1.000000
    70  H    1.000000
    71  H    1.000000
    72  H    1.000000
    73  H    1.000000
    74  H    1.000000
    75  H    1.000000
    76  H    1.000000
    77  H    1.000000
    78  H    1.000000
    79  H    1.000000
    80  Mg  12.000000
    81  C    6.000000
    82  C    6.000000
    83  C    6.000000
    84  C    6.000000
    85  N    7.000000
    86  C    6.000000
    87  C    6.000000
    88  C    6.000000
    89  C    6.000000
    90  C    6.000000
    91  C    6.000000
    92  C    6.000000
    93  H    1.000000
    94  N    7.000000
    95  C    6.000000
    96  C    6.000000
    97  C    6.000000
    98  C    6.000000
    99  C    6.000000
   100  C    6.000000
   101  O    8.000000
   102  C    6.000000
   103  N    7.000000
   104  C    6.000000
   105  C    6.000000
   106  C    6.000000
   107  C    6.000000
   108  C    6.000000
   109  C    6.000000
   110  C    6.000000
   111  N    7.000000
   112  C    6.000000
   113  C    6.000000
   114  C    6.000000
   115  C    6.000000
   116  C    6.000000
   117  C    6.000000
   118  O    8.000000
   119  C    6.000000
   120  C    6.000000
   121  O    8.000000
   122  O    8.000000
   123  C    6.000000
   124  H    1.000000
   125  H    1.000000
   126  H    1.000000
   127  H    1.000000
   128  H    1.000000
   129  H    1.000000
   130  H    1.000000
   131  H    1.000000
   132  H    1.000000
   133  H    1.000000
   134  H    1.000000
   135  H    1.000000
   136  H    1.000000
   137  H    1.000000
   138  H    1.000000
   139  H    1.000000
   140  H    1.000000
   141  H    1.000000
   142  H    1.000000
   143  H    1.000000
   144  H    1.000000
   145  H    1.000000
   146  H    1.000000
   147  H    1.000000
   148  H    1.000000
   149  H    1.000000
   150  H    1.000000
   151  H    1.000000
   152  H    1.000000
   153  H    1.000000
   154  H    1.000000
   155  H    1.000000
   156  H    1.000000
   157  H    1.000000
   158  H    1.000000
 Sum of Mulliken charges = 624.00000

 Dipole moment (field-independent basis, Debye):
    X=             -0.0000    Y=              0.0000    Z=              0.0000  Tot=              0.0000
 Quadrupole moment (field-independent basis, Debye-Ang):
   XX=              0.0000   YY=             -0.0000   ZZ=             -0.0000
   XY=             -0.0000   XZ=             -0.0000   YZ=             -0.0000

 Normal termination of Gaussian 16 at Fri Oct 15 13:39:21 2021.
