 Gaussian 16, Revision A.03,
 Gaussian 16:  ES64L-G16RevA.03 25-Dec-2016

 --------------------------------------------------------
 #p PBE1PBE/Def2SVP td=(nstates=5) density=(transition=1)
 --------------------------------------------------------

 --------------------------------
 TDDFT excited states in gaussian
 --------------------------------
 Symbolic Z-matrix:
 Charge =  0 Multiplicity = 1

                         Standard orientation:
 ---------------------------------------------------------------------
 Center     Atomic      Atomic             Coordinates (Angstroms)
 Number     Number       Type             X           Y           Z
 ---------------------------------------------------------------------
      1         12           0      -28.745393   -0.153916   -0.643078
      2          6           0      -25.365062    0.639495    0.544138
      3          6           0      -28.084670   -3.347012    0.517640
      4          6           0      -31.900784   -0.615671   -0.655547
      5          6           0      -29.058869    3.371066   -1.265975
      6          7           0      -26.875257   -1.181938    0.581887
      7          6           0      -25.639265   -0.682101    0.929374
      8          6           0      -24.852478   -1.765865    1.753507
      9          6           0      -25.609052   -3.078537    1.485749
     10          6           0      -26.926899   -2.517653    0.828055
     11          6           0      -24.950186   -4.150146    0.521159
     12          6           0      -24.683549   -1.405221    3.269187
     13          6           0      -23.350279   -1.748688    3.897860
     14          1           0      -23.303713   -3.029341    4.789107
     15          7           0      -29.834262   -1.763687   -0.268502
     16          6           0      -29.413492   -3.015495    0.089903
     17          6           0      -30.585437   -3.924219    0.218581
     18          6           0      -31.700753   -3.107473   -0.102756
     19          6           0      -31.171241   -1.762846   -0.316150
     20          6           0      -30.577456   -5.389852    0.682878
     21          6           0      -33.190946   -3.443308    0.005274
     22          8           0      -33.485960   -4.596289    0.308109
     23          6           0      -34.242800   -2.539521   -0.247635
     24          7           0      -30.292881    1.296463   -0.667422
     25          6           0      -31.525801    0.729873   -0.923145
     26          6           0      -32.522772    1.887425   -1.317396
     27          6           0      -31.646886    3.185768   -1.196735
     28          6           0      -30.229595    2.567201   -1.137024
     29          6           0      -33.216790    1.737299   -2.698998
     30          6           0      -31.939977    4.198896   -0.017754
     31          6           0      -33.116862    5.176609   -0.179865
     32          7           0      -27.525509    1.689310   -0.487124
     33          6           0      -27.768538    2.983949   -0.900432
     34          6           0      -26.582001    3.802083   -0.832628
     35          6           0      -25.594671    2.904614   -0.277551
     36          6           0      -26.182974    1.619408   -0.009633
     37          6           0      -26.540812    5.256268   -1.188475
     38          6           0      -24.279022    2.848911    0.181005
     39          8           0      -23.452596    3.732792    0.362487
     40          6           0      -24.091433    1.454787    0.846542
     41          6           0      -22.902218    0.852630    0.135242
     42          8           0      -21.946091    0.341337    0.723452
     43          8           0      -23.020765    0.757985   -1.309752
     44          6           0      -22.027137   -0.141936   -1.893166
     45          1           0      -27.879218   -4.379086    0.807605
     46          1           0      -32.969242   -0.664787   -0.875617
     47          1           0      -29.287065    4.392928   -1.575826
     48          1           0      -23.897456   -1.948022    1.258643
     49          1           0      -25.932259   -3.556010    2.410760
     50          1           0      -24.609093   -4.943351    1.186093
     51          1           0      -24.065649   -3.746355    0.029419
     52          1           0      -25.587273   -4.512840   -0.285418
     53          1           0      -25.344140   -1.951342    3.943077
     54          1           0      -24.802705   -0.331869    3.418462
     55          1           0      -23.005543   -0.854130    4.416568
     56          1           0      -22.644326   -1.933043    3.087454
     57          1           0      -31.280516   -5.970002    0.084596
     58          1           0      -30.828813   -5.328059    1.741636
     59          1           0      -29.603168   -5.847445    0.516670
     60          1           0      -34.225631   -2.291923   -1.309482
     61          1           0      -34.254990   -1.658727    0.394433
     62          1           0      -35.098212   -3.124366    0.092220
     63          1           0      -33.349420    2.010789   -0.618531
     64          1           0      -31.646035    3.751663   -2.128012
     65          1           0      -32.954330    2.641687   -3.248079
     66          1           0      -34.293512    1.697416   -2.537110
     67          1           0      -32.795197    0.812454   -3.094625
     68          1           0      -31.012348    4.766904    0.059944
     69          1           0      -32.197115    3.667024    0.898502
     70          1           0      -33.430446    4.944529   -1.198064
     71          1           0      -32.769289    6.209839   -0.221934
     72          1           0      -33.948666    5.073116    0.516487
     73          1           0      -27.291276    5.727116   -0.554848
     74          1           0      -26.884432    5.466163   -2.201218
     75          1           0      -25.613714    5.741974   -0.883806
     76          1           0      -23.814069    1.636520    1.884700
     77          1           0      -22.612968   -0.385342   -2.780348
     78          1           0      -21.715204   -0.919160   -1.195546
     79          1           0      -21.204492    0.489580   -2.228867
     80         12           0       28.174487    0.612730   -0.340138
     81          6           0       27.022128   -2.696106    0.081829
     82          6           0       25.303496    1.757713    1.276682
     83          6           0       29.774368    3.583651    0.137761
     84          6           0       31.248263   -0.823354   -1.488799
     85          7           0       26.404293   -0.358616    0.516261
     86          6           0       26.166221   -1.684743    0.600109
     87          6           0       24.868327   -1.971607    1.423130
     88          6           0       24.206818   -0.517266    1.425821
     89          6           0       25.386595    0.417199    1.003924
     90          6           0       23.020475   -0.184360    0.492827
     91          6           0       25.276194   -2.504198    2.848690
     92          6           0       24.317234   -3.585780    3.418999
     93          1           0       23.995342   -3.467009    4.964292
     94          7           0       27.540829    2.537670    0.417533
     95          6           0       26.310385    2.757221    0.977722
     96          6           0       26.250084    4.133518    1.294535
     97          6           0       27.529088    4.719938    1.059181
     98          6           0       28.363249    3.625452    0.459008
     99          6           0       25.048178    4.834905    1.881842
    100          6           0       27.980393    6.078654    1.474456
    101          8           0       27.273397    6.818256    2.139955
    102          6           0       29.283312    6.630391    1.208342
    103          7           0       30.297182    1.227240   -0.550803
    104          6           0       30.616786    2.588130   -0.434778
    105          6           0       32.008565    2.845183   -0.921777
    106          6           0       32.534422    1.437848   -1.389559
    107          6           0       31.327656    0.548936   -1.143029
    108          6           0       31.961734    3.904296   -2.030537
    109          6           0       33.939180    1.054037   -0.789239
    110          6           0       35.030410    0.738645   -1.766858
    111          7           0       29.020549   -1.374678   -0.699531
    112          6           0       30.239446   -1.749310   -1.209315
    113          6           0       30.264913   -3.205660   -1.468411
    114          6           0       29.020696   -3.582541   -0.896796
    115          6           0       28.299938   -2.457647   -0.542054
    116          6           0       31.396423   -4.076413   -1.991722
    117          6           0       28.259799   -4.736431   -0.497115
    118          8           0       28.540805   -5.942417   -0.577672
    119          6           0       26.943507   -4.271161    0.125031
    120          6           0       25.784824   -4.861123   -0.571033
    121          8           0       24.989092   -5.531695   -0.019918
    122          8           0       25.617878   -4.399542   -1.844632
    123          6           0       24.308206   -4.821667   -2.386924
    124          1           0       24.383266    2.157377    1.708911
    125          1           0       30.193529    4.586578    0.232687
    126          1           0       32.101996   -1.437871   -1.783923
    127          1           0       24.282720   -2.714858    0.881792
    128          1           0       24.064689   -0.072799    2.410749
    129          1           0       23.035547   -0.830689   -0.385484
    130          1           0       22.939024    0.851240    0.162523
    131          1           0       22.124011   -0.437048    1.058042
    132          1           0       25.386137   -1.679297    3.553218
    133          1           0       26.267403   -2.934216    2.704534
    134          1           0       24.841083   -4.518842    3.210704
    135          1           0       23.455646   -3.513462    2.754901
    136          1           0       25.000297    5.914433    1.738346
    137          1           0       25.111088    4.595800    2.943088
    138          1           0       24.076642    4.377285    1.695187
    139          1           0       29.389736    6.674376    0.123685
    140          1           0       30.066174    6.042383    1.688235
    141          1           0       29.323560    7.635854    1.627402
    142          1           0       32.663896    3.104244   -0.090538
    143          1           0       32.558671    1.238141   -2.461060
    144          1           0       31.014349    4.442215   -2.072926
    145          1           0       32.088955    3.460801   -3.018073
    146          1           0       32.620703    4.731926   -1.769756
    147          1           0       33.735735    0.192957   -0.152633
    148          1           0       34.423194    1.863547   -0.244085
    149          1           0       35.413681   -0.248632   -1.510416
    150          1           0       35.869722    1.428262   -1.675045
    151          1           0       34.724099    0.857921   -2.806157
    152          1           0       32.106007   -4.357503   -1.213267
    153          1           0       31.910038   -3.644056   -2.851345
    154          1           0       30.854889   -4.991542   -2.230943
    155          1           0       26.847510   -4.683199    1.128754
    156          1           0       24.227846   -4.427465   -3.400299
    157          1           0       23.495059   -4.451162   -1.762883
    158          1           0       24.215816   -5.894257   -2.554029
 ---------------------------------------------------------------------

 SCF Done:  E(RPBE1PBE) =  -4067.30295819     A.U. after   16 cycles

 Excitation energies and oscillator strengths:

 Excited State   1:      Singlet-A      1.8469 eV  671.32 nm  f=0.3885  <S**2>=0.000
     309 -> 316       -0.16875
     311 -> 313        0.69414
     311 <- 313       -0.11313
 This state for optimization and/or second-order correction.
 Total Energy, E(TD-HF/TD-DFT) =  -4067.23508648
 Copying the excited state density for this state as the 1-particle RhoCI density.

 Excited State   2:      Singlet-A      1.8703 eV  662.91 nm  f=0.3443  <S**2>=0.000
     310 -> 315       -0.19153
     312 -> 314        0.68643

 Excited State   3:      Singlet-A      1.9340 eV  641.06 nm  f=0.0000  <S**2>=0.000
     312 -> 313        0.70711

 Excited State   4:      Singlet-A      2.0872 eV  594.01 nm  f=0.0000  <S**2>=0.000
     311 -> 314        0.70711

 Excited State   5:      Singlet-A      2.2122 eV  560.46 nm  f=0.1085  <S**2>=0.000
     309 -> 313        0.65197
     311 -> 316        0.25443

 The electronic state is 1-A.
 Alpha  occ. eigenvalues --  -46.94184 -46.94139 -19.25696 -19.24380 -19.20334
 Alpha  occ. eigenvalues --  -19.20096 -19.18972 -19.18933 -19.18183 -19.17617
 Alpha  occ. eigenvalues --  -14.42409 -14.42286 -14.42081 -14.41639 -14.40327
 Alpha  occ. eigenvalues --  -14.39578 -14.38912 -14.38870 -10.36461 -10.35695
 Alpha  occ. eigenvalues --  -10.31974 -10.31817 -10.30705 -10.30680 -10.29929
 Alpha  occ. eigenvalues --  -10.29916 -10.29662 -10.29643 -10.29559 -10.29467
 Alpha  occ. eigenvalues --  -10.29076 -10.29014 -10.28888 -10.28870 -10.28788
 Alpha  occ. eigenvalues --  -10.28788 -10.28003 -10.27785 -10.27665 -10.27247
 Alpha  occ. eigenvalues --  -10.27151 -10.27132 -10.26852 -10.26838 -10.26832
 Alpha  occ. eigenvalues --  -10.26679 -10.26662 -10.26649 -10.26609 -10.26279
 Alpha  occ. eigenvalues --  -10.26274 -10.26258 -10.26198 -10.26123 -10.26090
 Alpha  occ. eigenvalues --  -10.26008 -10.26005 -10.25968 -10.25967 -10.25818
 Alpha  occ. eigenvalues --  -10.25809 -10.25554 -10.25301 -10.25072 -10.25050
 Alpha  occ. eigenvalues --  -10.24972 -10.24655 -10.24570 -10.24528 -10.24504
 Alpha  occ. eigenvalues --  -10.24434 -10.24410 -10.24398 -10.24369 -10.24102
 Alpha  occ. eigenvalues --  -10.24024 -10.23957 -10.23896 -10.23753 -10.23512
 Alpha  occ. eigenvalues --  -10.23305 -10.23148 -10.23084 -10.23033 -10.22810
 Alpha  occ. eigenvalues --  -10.22636  -3.16131  -3.15923  -1.88913  -1.88774
 Alpha  occ. eigenvalues --   -1.88557  -1.88318  -1.88276  -1.88138  -1.12706
 Alpha  occ. eigenvalues --   -1.08671  -1.05107  -1.04355  -1.03851  -1.03798
 Alpha  occ. eigenvalues --   -1.03580  -1.01184  -0.99722  -0.99568  -0.98387
 Alpha  occ. eigenvalues --   -0.98013  -0.98007  -0.97898  -0.97255  -0.95842
 Alpha  occ. eigenvalues --   -0.87316  -0.86922  -0.83694  -0.83350  -0.83255
 Alpha  occ. eigenvalues --   -0.83201  -0.82776  -0.82543  -0.82336  -0.81273
 Alpha  occ. eigenvalues --   -0.81258  -0.81124  -0.80351  -0.80203  -0.79238
 Alpha  occ. eigenvalues --   -0.79158  -0.78917  -0.78123  -0.77930  -0.76998
 Alpha  occ. eigenvalues --   -0.76837  -0.76736  -0.75534  -0.75209  -0.74906
 Alpha  occ. eigenvalues --   -0.74238  -0.72983  -0.72518  -0.71887  -0.71671
 Alpha  occ. eigenvalues --   -0.71320  -0.71177  -0.70774  -0.70139  -0.69799
 Alpha  occ. eigenvalues --   -0.69614  -0.67586  -0.67343  -0.66972  -0.66386
 Alpha  occ. eigenvalues --   -0.63775  -0.63622  -0.63506  -0.63046  -0.62404
 Alpha  occ. eigenvalues --   -0.62159  -0.61384  -0.61315  -0.60757  -0.60140
 Alpha  occ. eigenvalues --   -0.60015  -0.59839  -0.59577  -0.59477  -0.59208
 Alpha  occ. eigenvalues --   -0.58609  -0.57811  -0.56406  -0.54886  -0.54663
 Alpha  occ. eigenvalues --   -0.54542  -0.54431  -0.53779  -0.53571  -0.53517
 Alpha  occ. eigenvalues --   -0.53483  -0.52846  -0.51855  -0.51651  -0.51550
 Alpha  occ. eigenvalues --   -0.51220  -0.50996  -0.50600  -0.50277  -0.50162
 Alpha  occ. eigenvalues --   -0.49621  -0.49358  -0.49096  -0.48738  -0.48429
 Alpha  occ. eigenvalues --   -0.48302  -0.48196  -0.48121  -0.47976  -0.47854
 Alpha  occ. eigenvalues --   -0.47765  -0.47472  -0.47391  -0.47121  -0.47080
 Alpha  occ. eigenvalues --   -0.46867  -0.46602  -0.46413  -0.46297  -0.46007
 Alpha  occ. eigenvalues --   -0.45915  -0.45867  -0.45597  -0.45557  -0.45244
 Alpha  occ. eigenvalues --   -0.44704  -0.44517  -0.44504  -0.44498  -0.44204
 Alpha  occ. eigenvalues --   -0.44062  -0.43890  -0.43874  -0.43667  -0.43626
 Alpha  occ. eigenvalues --   -0.43306  -0.43236  -0.43073  -0.43039  -0.42851
 Alpha  occ. eigenvalues --   -0.42773  -0.42636  -0.42409  -0.42237  -0.41984
 Alpha  occ. eigenvalues --   -0.41872  -0.41648  -0.41559  -0.41465  -0.41420
 Alpha  occ. eigenvalues --   -0.41141  -0.41073  -0.41005  -0.40913  -0.40608
 Alpha  occ. eigenvalues --   -0.40493  -0.40162  -0.39921  -0.39796  -0.39752
 Alpha  occ. eigenvalues --   -0.39652  -0.39498  -0.39472  -0.39276  -0.39151
 Alpha  occ. eigenvalues --   -0.39140  -0.38940  -0.38828  -0.38731  -0.38484
 Alpha  occ. eigenvalues --   -0.38456  -0.38221  -0.38052  -0.37848  -0.37654
 Alpha  occ. eigenvalues --   -0.37490  -0.37413  -0.37363  -0.37149  -0.37050
 Alpha  occ. eigenvalues --   -0.36848  -0.36740  -0.36620  -0.36369  -0.36170
 Alpha  occ. eigenvalues --   -0.36152  -0.35918  -0.35579  -0.35187  -0.35065
 Alpha  occ. eigenvalues --   -0.35010  -0.34845  -0.34560  -0.34264  -0.34144
 Alpha  occ. eigenvalues --   -0.33806  -0.33631  -0.32885  -0.32878  -0.32562
 Alpha  occ. eigenvalues --   -0.32538  -0.32224  -0.32167  -0.31938  -0.31423
 Alpha  occ. eigenvalues --   -0.31352  -0.30260  -0.29798  -0.29673  -0.29343
 Alpha  occ. eigenvalues --   -0.29229  -0.29041  -0.28415  -0.27130  -0.27113
 Alpha  occ. eigenvalues --   -0.26658  -0.26079  -0.25966  -0.25699  -0.25169
 Alpha  occ. eigenvalues --   -0.25045  -0.24594  -0.24439  -0.21439  -0.21385
 Alpha  occ. eigenvalues --   -0.19238  -0.19113
 Alpha virt. eigenvalues --   -0.11772  -0.11335  -0.06114  -0.05747  -0.04379
 Alpha virt. eigenvalues --   -0.03890  -0.02423  -0.02156  -0.01995  -0.01519
 Alpha virt. eigenvalues --    0.00090   0.00136   0.00593   0.01305   0.01376

 Mulliken charges:
               1
     1  Mg  11.999984
     2  C    6.000108
     3  C    6.000007
     4  C    5.999792
     5  C    6.000075
     6  N    7.000067
     7  C    5.999791
     8  C    6.000053
     9  C    5.999960
    10  C    6.000246
    11  C    5.999938
    12  C    6.000022
    13  C    5.999997
    14  H    0.999948
    15  N    6.999938
    16  C    6.000297
    17  C    6.000193
    18  C    6.000064
    19  C    6.000315
    20  C    5.999990
    21  C    6.000109
    22  O    8.000158
    23  C    5.999941
    24  N    6.999980
    25  C    6.000312
    26  C    5.999913
    27  C    6.000047
    28  C    5.999720
    29  C    6.000016
    30  C    6.000026
    31  C    6.000000
    32  N    7.000009
    33  C    5.999759
    34  C    5.999741
    35  C    5.999994
    36  C    5.999685
    37  C    6.000011
    38  C    5.999838
    39  O    7.999726
    40  C    6.000044
    41  C    5.999960
    42  O    7.999920
    43  O    8.000026
    44  C    6.000013
    45  H    1.000104
    46  H    1.000059
    47  H    0.999934
    48  H    1.000009
    49  H    1.000006
    50  H    1.000059
    51  H    1.000105
    52  H    0.999988
    53  H    0.999942
    54  H    1.000045
    55  H    1.000000
    56  H    1.000006
    57  H    1.000132
    58  H    1.000138
    59  H    1.000131
    60  H    1.000075
    61  H    1.000081
    62  H    1.000100
    63  H    1.000028
    64  H    1.000015
    65  H    1.000077
    66  H    1.000010
    67  H    0.999980
    68  H    1.000044
    69  H    0.999931
    70  H    0.999969
    71  H    0.999995
    72  H    0.999959
    73  H    0.999832
    74  H    0.999836
    75  H    0.999868
    76  H    0.999918
    77  H    0.999978
    78  H    0.999954
    79  H    0.999962
    80  Mg  12.001476
    81  C    6.019053
    82  C    5.987649
    83  C    5.983150
    84  C    6.001608
    85  N    7.003926
    86  C    5.967529
    87  C    6.007660
    88  C    5.997377
    89  C    6.028200
    90  C    5.992364
    91  C    6.001652
    92  C    6.001129
    93  H    0.992766
    94  N    6.990932
    95  C    6.042559
    96  C    6.019469
    97  C    6.007724
    98  C    6.043183
    99  C    5.996843
   100  C    6.011167
   101  O    8.020487
   102  C    5.995581
   103  N    6.998753
   104  C    6.031816
   105  C    5.988524
   106  C    6.006541
   107  C    5.970549
   108  C    5.997588
   109  C    6.000624
   110  C    6.002025
   111  N    7.001504
   112  C    5.967898
   113  C    5.967453
   114  C    5.999603
   115  C    5.971953
   116  C    5.999990
   117  C    5.982632
   118  O    7.968959
   119  C    6.001614
   120  C    5.995689
   121  O    7.991637
   122  O    8.003551
   123  C    6.002554
   124  H    1.009339
   125  H    1.007409
   126  H    0.992171
   127  H    1.002203
   128  H    0.997033
   129  H    1.013313
   130  H    0.994962
   131  H    1.007718
   132  H    0.989023
   133  H    1.007898
   134  H    1.004809
   135  H    0.996963
   136  H    1.014010
   137  H    1.019669
   138  H    1.019412
   139  H    1.009132
   140  H    1.010623
   141  H    1.012144
   142  H    1.002407
   143  H    1.004112
   144  H    0.992683
   145  H    1.009989
   146  H    1.002155
   147  H    1.002654
   148  H    0.989827
   149  H    1.002152
   150  H    0.994357
   151  H    0.998003
   152  H    0.979792
   153  H    0.982771
   154  H    0.988550
   155  H    0.991270
   156  H    0.995879
   157  H    0.992819
   158  H    0.997808
 Sum of Mulliken charges = 624.00000

 Dipole moment (field-independent basis, Debye):
    X=             -3.6581    Y=              9.4812    Z=              2.7680  Tot=             10.5327
 Quadrupole moment (field-independent basis, Debye-Ang):
   XX=           -202.6221   YY=              8.7835   ZZ=             -0.7105
   XY=            269.6017   XZ=             78.5919   YZ=              2.6280

 Normal termination of Gaussian 16 at Fri Oct 15 07:08:01 2021.
