 Gaussian 16, Revision A.03,
 Gaussian 16:  ES64L-G16RevA.03 25-Dec-2016

 --------------------------------------------------------
 #p PBE1PBE/Def2SVP td=(nstates=5) density=(transition=1)
 --------------------------------------------------------

 --------------------------------
 TDDFT excited states in gaussian
 --------------------------------
 Symbolic Z-matrix:
 Charge =  0 Multiplicity = 1

                         Standard orientation:
 ---------------------------------------------------------------------
 Center     Atomic      Atomic             Coordinates (Angstroms)
 Number     Number       Type             X           Y           Z
 ---------------------------------------------------------------------
      1         12           0       25.538635   -0.885812    0.181984
      2          6           0       26.474194    2.429631   -0.790016
      3          6           0       25.809439    0.147916    3.422530
      4          6           0       25.160901   -3.908464    1.063750
      5          6           0       26.440241   -1.920642   -3.021435
      6          7           0       26.078790    1.066243    1.075496
      7          6           0       26.357181    2.273214    0.592911
      8          6           0       26.438635    3.374372    1.692088
      9          6           0       26.779383    2.452317    2.947358
     10          6           0       26.155085    1.152707    2.470713
     11          6           0       28.274544    2.232307    3.153735
     12          6           0       25.077529    4.124077    1.884608
     13          6           0       25.154598    5.420056    2.696920
     14          1           0       24.289519    6.530358    2.327848
     15          7           0       25.020175   -1.656541    1.925552
     16          6           0       25.190017   -1.089714    3.144218
     17          6           0       24.643287   -2.054654    4.122308
     18          6           0       24.314983   -3.308883    3.389355
     19          6           0       24.850146   -3.013532    2.084844
     20          6           0       24.435701   -1.730614    5.569946
     21          6           0       23.637313   -4.577075    3.802373
     22          8           0       23.660729   -5.628649    3.075587
     23          6           0       23.012397   -4.583291    5.137470
     24          7           0       25.970770   -2.702069   -0.751881
     25          6           0       25.653243   -3.866793   -0.176052
     26          6           0       25.794807   -5.008348   -1.138730
     27          6           0       26.043999   -4.349735   -2.571869
     28          6           0       26.085550   -2.861997   -2.143875
     29          6           0       26.920448   -6.006050   -0.832899
     30          6           0       25.080226   -4.762419   -3.712593
     31          6           0       23.691681   -4.235640   -3.427035
     32          7           0       26.151775    0.081045   -1.662004
     33          6           0       26.500111   -0.545684   -2.867220
     34          6           0       26.948085    0.512781   -3.790820
     35          6           0       26.844268    1.687488   -3.048437
     36          6           0       26.386975    1.379115   -1.735395
     37          6           0       27.434433    0.314048   -5.113093
     38          6           0       27.036746    3.128599   -3.051231
     39          8           0       27.318364    3.964177   -3.911460
     40          6           0       26.921217    3.652448   -1.551877
     41          6           0       26.009928    4.849455   -1.557588
     42          8           0       24.797787    4.729385   -1.828998
     43          8           0       26.649314    5.897529   -1.016044
     44          6           0       25.790492    7.110752   -0.964386
     45          1           0       26.089897    0.292179    4.467744
     46          1           0       24.939261   -4.953379    1.290613
     47          1           0       26.656151   -2.158314   -4.064674
     48          1           0       27.231243    4.107799    1.542819
     49          1           0       26.284738    2.800168    3.854026
     50          1           0       28.855200    2.640441    2.326579
     51          1           0       28.404232    1.151498    3.213112
     52          1           0       28.594407    2.625944    4.118885
     53          1           0       24.431738    3.535066    2.535823
     54          1           0       24.610778    4.329962    0.920719
     55          1           0       26.184716    5.759403    2.809214
     56          1           0       24.827675    5.205356    3.714381
     57          1           0       24.922790   -0.795922    5.844972
     58          1           0       24.963046   -2.491270    6.145289
     59          1           0       23.380322   -1.729123    5.842905
     60          1           0       23.771052   -4.370427    5.890916
     61          1           0       22.499898   -5.540635    5.225142
     62          1           0       22.288878   -3.769384    5.192458
     63          1           0       24.884658   -5.605713   -1.173519
     64          1           0       27.034460   -4.583731   -2.962902
     65          1           0       26.576496   -7.035182   -0.726650
     66          1           0       27.433024   -5.670049    0.068023
     67          1           0       27.735236   -6.011779   -1.556435
     68          1           0       25.005629   -5.847712   -3.771919
     69          1           0       25.390819   -4.397323   -4.691618
     70          1           0       23.275919   -4.992650   -2.763025
     71          1           0       23.114212   -4.165736   -4.349453
     72          1           0       23.727931   -3.298734   -2.870816
     73          1           0       26.971753    1.086271   -5.727558
     74          1           0       27.190015   -0.682845   -5.479246
     75          1           0       28.504415    0.450997   -4.957406
     76          1           0       27.930461    3.907804   -1.230407
     77          1           0       26.325705    7.905265   -1.484511
     78          1           0       25.542700    7.270539    0.085125
     79          1           0       24.866591    7.072294   -1.542544
     80         12           0      -26.009707   -0.558124   -0.120790
     81          6           0      -23.866549    2.100758   -0.593211
     82          6           0      -26.976560    1.033730    2.938473
     83          6           0      -27.827402   -3.164675    0.624221
     84          6           0      -24.740884   -2.140411   -2.922872
     85          7           0      -25.281203    1.302179    1.133415
     86          6           0      -24.586599    2.290908    0.595976
     87          6           0      -24.792135    3.611943    1.389837
     88          6           0      -25.307863    3.026758    2.750913
     89          6           0      -25.915849    1.687883    2.303271
     90          6           0      -24.152906    2.838792    3.797804
     91          6           0      -25.849284    4.421885    0.606742
     92          6           0      -26.129005    5.846075    1.105609
     93          1           0      -25.582109    6.307017    2.441739
     94          7           0      -27.312647   -1.031207    1.428553
     95          6           0      -27.589024   -0.209338    2.574890
     96          6           0      -28.698242   -0.850444    3.267763
     97          6           0      -29.025282   -2.028925    2.526833
     98          6           0      -28.016315   -2.155177    1.476084
     99          6           0      -29.406240   -0.278154    4.552055
    100          6           0      -30.238957   -2.986716    2.765955
    101          8           0      -30.294109   -3.998690    2.122458
    102          6           0      -31.272586   -2.662054    3.795013
    103          7           0      -26.319413   -2.377322   -1.085899
    104          6           0      -27.138082   -3.331522   -0.588369
    105          6           0      -27.139224   -4.616776   -1.415177
    106          6           0      -26.254417   -4.220814   -2.619906
    107          6           0      -25.725788   -2.796457   -2.176298
    108          6           0      -26.626942   -5.904993   -0.672199
    109          6           0      -26.866536   -4.324282   -3.993573
    110          6           0      -28.276050   -3.758214   -4.290909
    111          7           0      -24.596373   -0.191643   -1.513714
    112          6           0      -24.180526   -0.899643   -2.604815
    113          6           0      -23.240799   -0.064138   -3.322238
    114          6           0      -23.075561    1.172063   -2.607796
    115          6           0      -23.938368    1.012361   -1.489062
    116          6           0      -22.563244   -0.467706   -4.594513
    117          6           0      -22.385717    2.415562   -2.526996
    118          8           0      -21.509959    2.951305   -3.240688
    119          6           0      -22.717725    2.922785   -1.019488
    120          6           0      -22.866072    4.443164   -1.097165
    121          8           0      -23.575339    5.022877   -1.827329
    122          8           0      -21.996299    4.996241   -0.200939
    123          6           0      -22.195682    6.380898    0.174567
    124          1           0      -27.216477    1.491552    3.899922
    125          1           0      -28.376260   -4.081361    0.849900
    126          1           0      -24.286969   -2.592184   -3.806510
    127          1           0      -23.852814    4.132816    1.574912
    128          1           0      -26.072746    3.740503    3.057841
    129          1           0      -24.213445    3.626906    4.547335
    130          1           0      -23.206473    2.868878    3.257592
    131          1           0      -24.227815    1.911906    4.366532
    132          1           0      -26.799542    3.899143    0.712472
    133          1           0      -25.674726    4.392129   -0.468342
    134          1           0      -27.154148    6.170214    0.925007
    135          1           0      -25.662381    6.485459    0.356007
    136          1           0      -29.485384   -1.019743    5.347519
    137          1           0      -30.371951    0.094075    4.210457
    138          1           0      -28.875336    0.611341    4.893372
    139          1           0      -32.154965   -3.154331    3.385541
    140          1           0      -31.526967   -1.602982    3.816234
    141          1           0      -31.051506   -2.770066    4.856843
    142          1           0      -28.179052   -4.759812   -1.708263
    143          1           0      -25.317500   -4.776329   -2.660418
    144          1           0      -26.104545   -6.488694   -1.429686
    145          1           0      -27.559513   -6.381854   -0.369794
    146          1           0      -26.070189   -5.632145    0.224229
    147          1           0      -27.073826   -5.393416   -4.024520
    148          1           0      -26.255257   -4.019733   -4.843757
    149          1           0      -29.053948   -4.451559   -4.607918
    150          1           0      -28.264481   -3.100522   -5.160020
    151          1           0      -28.656478   -3.260253   -3.398932
    152          1           0      -21.883826    0.349664   -4.834483
    153          1           0      -23.291979   -0.520930   -5.404462
    154          1           0      -22.109735   -1.458422   -4.587710
    155          1           0      -21.875285    2.577757   -0.419672
    156          1           0      -21.163540    6.623794   -0.078394
    157          1           0      -22.557573    6.512634    1.194486
    158          1           0      -22.853186    6.938911   -0.492584
 ---------------------------------------------------------------------

 SCF Done:  E(RPBE1PBE) =  -4067.37659418     A.U. after   16 cycles

 Excitation energies and oscillator strengths:

 Excited State   1:      Singlet-A      1.8414 eV  673.31 nm  f=0.3738  <S**2>=0.000
     309 -> 316        0.16194
     311 -> 313        0.69325
     311 <- 313       -0.11107
 This state for optimization and/or second-order correction.
 Total Energy, E(TD-HF/TD-DFT) =  -4067.30892348
 Copying the excited state density for this state as the 1-particle RhoCI density.

 Excited State   2:      Singlet-A      1.8859 eV  657.44 nm  f=0.3669  <S**2>=0.000
     310 -> 315       -0.19006
     312 -> 314        0.68806
     312 <- 314       -0.10015

 Excited State   3:      Singlet-A      1.9773 eV  627.03 nm  f=0.0000  <S**2>=0.000
     312 -> 313        0.70711

 Excited State   4:      Singlet-A      2.0536 eV  603.75 nm  f=0.0000  <S**2>=0.000
     311 -> 314        0.70711

 Excited State   5:      Singlet-A      2.1929 eV  565.38 nm  f=0.0919  <S**2>=0.000
     309 -> 313        0.65168
     311 -> 316       -0.24155

 The electronic state is 1-A.
 Alpha  occ. eigenvalues --  -46.91655 -46.91169 -19.26903 -19.25015 -19.20389
 Alpha  occ. eigenvalues --  -19.19344 -19.19283 -19.19189 -19.18990 -19.18394
 Alpha  occ. eigenvalues --  -14.41925 -14.41243 -14.41166 -14.40938 -14.39031
 Alpha  occ. eigenvalues --  -14.39006 -14.38915 -14.38235 -10.36085 -10.35860
 Alpha  occ. eigenvalues --  -10.32472 -10.32454 -10.32147 -10.31551 -10.29125
 Alpha  occ. eigenvalues --  -10.28885 -10.28657 -10.28615 -10.28371 -10.28364
 Alpha  occ. eigenvalues --  -10.28281 -10.28241 -10.28198 -10.28149 -10.28116
 Alpha  occ. eigenvalues --  -10.27981 -10.27524 -10.27238 -10.27215 -10.27016
 Alpha  occ. eigenvalues --  -10.26927 -10.26688 -10.26547 -10.26272 -10.26253
 Alpha  occ. eigenvalues --  -10.26160 -10.26041 -10.25997 -10.25880 -10.25866
 Alpha  occ. eigenvalues --  -10.25624 -10.25616 -10.25433 -10.25397 -10.25355
 Alpha  occ. eigenvalues --  -10.25329 -10.25313 -10.25272 -10.25252 -10.25244
 Alpha  occ. eigenvalues --  -10.25234 -10.25190 -10.25106 -10.24832 -10.24755
 Alpha  occ. eigenvalues --  -10.24323 -10.24310 -10.24261 -10.24180 -10.24073
 Alpha  occ. eigenvalues --  -10.23809 -10.23773 -10.23749 -10.23668 -10.23595
 Alpha  occ. eigenvalues --  -10.23593 -10.23536 -10.23375 -10.23254 -10.23146
 Alpha  occ. eigenvalues --  -10.22894 -10.22680 -10.22631 -10.22573 -10.22381
 Alpha  occ. eigenvalues --  -10.22070  -3.13870  -3.13487  -1.86711  -1.86309
 Alpha  occ. eigenvalues --   -1.86260  -1.86084  -1.85875  -1.85721  -1.12336
 Alpha  occ. eigenvalues --   -1.11400  -1.06322  -1.04604  -1.03346  -1.02665
 Alpha  occ. eigenvalues --   -1.01818  -1.01428  -0.99868  -0.99151  -0.98649
 Alpha  occ. eigenvalues --   -0.98347  -0.97878  -0.97676  -0.97068  -0.96810
 Alpha  occ. eigenvalues --   -0.87329  -0.86309  -0.83812  -0.83652  -0.83432
 Alpha  occ. eigenvalues --   -0.83044  -0.82760  -0.82571  -0.82182  -0.81954
 Alpha  occ. eigenvalues --   -0.81644  -0.81418  -0.80697  -0.79941  -0.79212
 Alpha  occ. eigenvalues --   -0.78350  -0.78204  -0.77993  -0.77136  -0.76852
 Alpha  occ. eigenvalues --   -0.76709  -0.75954  -0.75872  -0.75724  -0.74921
 Alpha  occ. eigenvalues --   -0.74599  -0.73083  -0.72325  -0.71660  -0.71524
 Alpha  occ. eigenvalues --   -0.71210  -0.71067  -0.70221  -0.70172  -0.69889
 Alpha  occ. eigenvalues --   -0.69205  -0.67220  -0.67089  -0.66444  -0.66067
 Alpha  occ. eigenvalues --   -0.64626  -0.64198  -0.63287  -0.63211  -0.62494
 Alpha  occ. eigenvalues --   -0.62098  -0.61533  -0.60677  -0.59685  -0.59652
 Alpha  occ. eigenvalues --   -0.59412  -0.59398  -0.59075  -0.58812  -0.58746
 Alpha  occ. eigenvalues --   -0.58622  -0.56879  -0.56853  -0.55072  -0.54924
 Alpha  occ. eigenvalues --   -0.54285  -0.54189  -0.53710  -0.53601  -0.53368
 Alpha  occ. eigenvalues --   -0.53097  -0.52720  -0.52368  -0.52084  -0.51781
 Alpha  occ. eigenvalues --   -0.50852  -0.50752  -0.50578  -0.50352  -0.50236
 Alpha  occ. eigenvalues --   -0.50033  -0.49845  -0.49813  -0.49058  -0.48780
 Alpha  occ. eigenvalues --   -0.48439  -0.48270  -0.48063  -0.47932  -0.47732
 Alpha  occ. eigenvalues --   -0.47658  -0.47533  -0.47082  -0.46989  -0.46957
 Alpha  occ. eigenvalues --   -0.46732  -0.46591  -0.46395  -0.46252  -0.46164
 Alpha  occ. eigenvalues --   -0.45837  -0.45355  -0.45252  -0.45063  -0.44762
 Alpha  occ. eigenvalues --   -0.44621  -0.44613  -0.44463  -0.44260  -0.44109
 Alpha  occ. eigenvalues --   -0.44108  -0.43928  -0.43897  -0.43842  -0.43687
 Alpha  occ. eigenvalues --   -0.43343  -0.43199  -0.43095  -0.42990  -0.42908
 Alpha  occ. eigenvalues --   -0.42784  -0.42624  -0.42316  -0.42298  -0.41929
 Alpha  occ. eigenvalues --   -0.41544  -0.41531  -0.41413  -0.41245  -0.41224
 Alpha  occ. eigenvalues --   -0.41050  -0.40853  -0.40674  -0.40637  -0.40533
 Alpha  occ. eigenvalues --   -0.40229  -0.39927  -0.39920  -0.39686  -0.39514
 Alpha  occ. eigenvalues --   -0.39282  -0.39202  -0.38879  -0.38818  -0.38723
 Alpha  occ. eigenvalues --   -0.38690  -0.38261  -0.38218  -0.38183  -0.38156
 Alpha  occ. eigenvalues --   -0.37839  -0.37778  -0.37708  -0.37584  -0.37469
 Alpha  occ. eigenvalues --   -0.37425  -0.37213  -0.36939  -0.36838  -0.36813
 Alpha  occ. eigenvalues --   -0.36666  -0.36543  -0.36392  -0.36348  -0.36298
 Alpha  occ. eigenvalues --   -0.35942  -0.35824  -0.35757  -0.35573  -0.35461
 Alpha  occ. eigenvalues --   -0.35091  -0.34989  -0.34441  -0.34409  -0.34314
 Alpha  occ. eigenvalues --   -0.33397  -0.33321  -0.32796  -0.32704  -0.32528
 Alpha  occ. eigenvalues --   -0.32361  -0.32235  -0.32161  -0.31685  -0.31283
 Alpha  occ. eigenvalues --   -0.31236  -0.30873  -0.30125  -0.29488  -0.29121
 Alpha  occ. eigenvalues --   -0.28897  -0.28822  -0.28393  -0.26952  -0.26700
 Alpha  occ. eigenvalues --   -0.26029  -0.25982  -0.25617  -0.25233  -0.25094
 Alpha  occ. eigenvalues --   -0.24981  -0.24933  -0.24807  -0.20956  -0.20745
 Alpha  occ. eigenvalues --   -0.18739  -0.18725
 Alpha virt. eigenvalues --   -0.11203  -0.10936  -0.05340  -0.05324  -0.04134
 Alpha virt. eigenvalues --   -0.04003  -0.02155  -0.01801   0.00285   0.00373
 Alpha virt. eigenvalues --    0.00444   0.00470   0.01297   0.01485   0.01835

 Mulliken charges:
               1
     1  Mg  11.999353
     2  C    6.014703
     3  C    5.988006
     4  C    5.987868
     5  C    6.014509
     6  N    7.008051
     7  C    5.968081
     8  C    6.008361
     9  C    5.991316
    10  C    6.027154
    11  C    5.999190
    12  C    6.003597
    13  C    6.000988
    14  H    1.000387
    15  N    6.996852
    16  C    6.036454
    17  C    6.029101
    18  C    6.014994
    19  C    6.020680
    20  C    5.994862
    21  C    6.014154
    22  O    8.030838
    23  C    5.995069
    24  N    6.999288
    25  C    6.026403
    26  C    5.988760
    27  C    6.011794
    28  C    5.968555
    29  C    6.000492
    30  C    6.003715
    31  C    6.000995
    32  N    7.003281
    33  C    5.956079
    34  C    5.977515
    35  C    5.993682
    36  C    5.971288
    37  C    6.003327
    38  C    5.985100
    39  O    7.969846
    40  C    5.998645
    41  C    5.996546
    42  O    7.995755
    43  O    7.998167
    44  C    6.001236
    45  H    1.007794
    46  H    1.005904
    47  H    0.991129
    48  H    1.000784
    49  H    0.999581
    50  H    1.015458
    51  H    0.995537
    52  H    1.003275
    53  H    0.986813
    54  H    1.005621
    55  H    0.999249
    56  H    0.993412
    57  H    1.019333
    58  H    1.019737
    59  H    1.020520
    60  H    1.005181
    61  H    1.014436
    62  H    1.007132
    63  H    0.999032
    64  H    0.996027
    65  H    0.999951
    66  H    0.994690
    67  H    1.009435
    68  H    0.991029
    69  H    1.002852
    70  H    0.988750
    71  H    0.998624
    72  H    1.002685
    73  H    0.984442
    74  H    0.983470
    75  H    0.981766
    76  H    0.992263
    77  H    0.997132
    78  H    0.994086
    79  H    0.997836
    80  Mg  12.000002
    81  C    5.999997
    82  C    5.999987
    83  C    6.000006
    84  C    6.000032
    85  N    7.000004
    86  C    6.000062
    87  C    5.999989
    88  C    6.000012
    89  C    5.999964
    90  C    6.000005
    91  C    5.999988
    92  C    6.000001
    93  H    1.000000
    94  N    7.000003
    95  C    5.999925
    96  C    5.999982
    97  C    5.999979
    98  C    5.999928
    99  C    6.000004
   100  C    5.999955
   101  O    7.999949
   102  C    6.000004
   103  N    6.999975
   104  C    5.999959
   105  C    6.000045
   106  C    5.999999
   107  C    6.000029
   108  C    5.999992
   109  C    5.999976
   110  C    5.999995
   111  N    7.000018
   112  C    6.000019
   113  C    6.000082
   114  C    5.999976
   115  C    6.000028
   116  C    5.999984
   117  C    6.000073
   118  O    8.000089
   119  C    5.999995
   120  C    6.000017
   121  O    8.000027
   122  O    7.999995
   123  C    5.999991
   124  H    0.999975
   125  H    0.999979
   126  H    1.000016
   127  H    0.999989
   128  H    1.000001
   129  H    0.999982
   130  H    0.999958
   131  H    0.999990
   132  H    1.000032
   133  H    0.999993
   134  H    1.000023
   135  H    1.000006
   136  H    0.999948
   137  H    0.999973
   138  H    0.999958
   139  H    0.999972
   140  H    0.999993
   141  H    0.999962
   142  H    1.000006
   143  H    0.999981
   144  H    0.999968
   145  H    1.000005
   146  H    0.999982
   147  H    1.000017
   148  H    0.999998
   149  H    1.000018
   150  H    1.000007
   151  H    1.000020
   152  H    1.000041
   153  H    1.000081
   154  H    1.000044
   155  H    0.999998
   156  H    1.000006
   157  H    1.000009
   158  H    1.000028
 Sum of Mulliken charges = 624.00000

 Dipole moment (field-independent basis, Debye):
    X=             -2.5010    Y=             -4.6740    Z=              8.8861  Tot=             10.3472
 Quadrupole moment (field-independent basis, Debye-Ang):
   XX=           -129.1129   YY=              3.5873   ZZ=              5.0347
   XY=           -116.9115   XZ=            228.3048   YZ=             -9.8727

 Normal termination of Gaussian 16 at Thu Oct 14 14:15:53 2021.
