 Gaussian 16, Revision A.03,
 Gaussian 16:  ES64L-G16RevA.03 25-Dec-2016

 --------------------------------------------------------
 #p PBE1PBE/Def2SVP td=(nstates=5) density=(transition=1)
 --------------------------------------------------------

 --------------------------------
 TDDFT excited states in gaussian
 --------------------------------
 Symbolic Z-matrix:
 Charge =  0 Multiplicity = 1

                         Standard orientation:
 ---------------------------------------------------------------------
 Center     Atomic      Atomic             Coordinates (Angstroms)
 Number     Number       Type             X           Y           Z
 ---------------------------------------------------------------------
      1         12           0       11.786534    0.460104    0.225167
      2          6           0        9.987900   -2.513198    0.725843
      3          6           0       14.594513   -1.411591   -0.167698
      4          6           0       13.234268    3.258121   -0.653214
      5          6           0        8.558358    2.010343   -0.151721
      6          7           0       12.212305   -1.679194    0.345591
      7          6           0       11.339679   -2.712873    0.537595
      8          6           0       12.066604   -4.023374    0.200676
      9          6           0       13.519107   -3.657253    0.485073
     10          6           0       13.445602   -2.166305    0.103487
     11          6           0       13.909132   -3.850298    1.968735
     12          6           0       11.836227   -4.439064   -1.299324
     13          6           0       10.990365   -5.771846   -1.601654
     14          1           0        9.682443   -5.660984   -2.403600
     15          7           0       13.640971    0.862889   -0.389339
     16          6           0       14.675598   -0.040952   -0.466355
     17          6           0       15.875680    0.679736   -0.755920
     18          6           0       15.584170    2.083381   -0.795708
     19          6           0       14.104456    2.144962   -0.617572
     20          6           0       17.269843   -0.010666   -0.944500
     21          6           0       16.656165    3.220039   -0.967250
     22          8           0       17.817430    2.949164   -0.980910
     23          6           0       16.222869    4.604713   -0.824975
     24          7           0       10.985828    2.294040   -0.635440
     25          6           0       11.835034    3.343062   -0.524133
     26          6           0       11.124362    4.669010   -0.310284
     27          6           0        9.660524    4.316155   -0.525438
     28          6           0        9.715540    2.751158   -0.440581
     29          6           0       11.384830    5.282171    1.115218
     30          6           0        8.909491    4.828771   -1.843136
     31          6           0        7.874365    5.920555   -1.797369
     32          7           0        9.728339   -0.031811    0.465507
     33          6           0        8.538393    0.684608    0.283761
     34          6           0        7.375266   -0.154119    0.476878
     35          6           0        7.907624   -1.403729    0.678989
     36          6           0        9.339027   -1.327613    0.645949
     37          6           0        5.974926    0.287648    0.372940
     38          6           0        7.561835   -2.795744    0.922754
     39          8           0        6.453740   -3.310116    1.118415
     40          6           0        8.873051   -3.538564    1.070212
     41          6           0        8.913433   -4.108458    2.483943
     42          8           0        8.827495   -3.371480    3.463565
     43          8           0        8.921894   -5.511956    2.475634
     44          6           0        8.925394   -6.118042    3.780228
     45          1           0       15.496766   -2.025177   -0.131963
     46          1           0       13.794099    4.194222   -0.625240
     47          1           0        7.588092    2.511754   -0.157776
     48          1           0       11.589011   -4.806140    0.790516
     49          1           0       14.152087   -4.260324   -0.164689
     50          1           0       14.821711   -4.426943    1.821895
     51          1           0       13.087052   -4.424613    2.396797
     52          1           0       14.077073   -2.947222    2.555671
     53          1           0       12.817636   -4.622631   -1.736463
     54          1           0       11.433101   -3.572709   -1.823147
     55          1           0       10.674686   -6.137086   -0.624095
     56          1           0       11.563994   -6.582581   -2.049243
     57          1           0       17.854172    0.248993   -1.826703
     58          1           0       17.063272   -1.080919   -0.976869
     59          1           0       17.938207    0.153691   -0.099102
     60          1           0       15.446332    4.907894   -1.527574
     61          1           0       17.090586    5.250741   -0.958176
     62          1           0       15.994367    4.820706    0.217788
     63          1           0       11.475703    5.447063   -0.988820
     64          1           0        9.066227    4.631400    0.332209
     65          1           0       12.157796    6.050488    1.119704
     66          1           0       11.536004    4.478022    1.835335
     67          1           0       10.462631    5.778554    1.420698
     68          1           0        8.552320    4.082907   -2.552402
     69          1           0        9.800930    5.251587   -2.307219
     70          1           0        8.183952    6.834652   -2.303020
     71          1           0        7.666725    6.182734   -0.759664
     72          1           0        6.998132    5.479923   -2.272379
     73          1           0        5.950438    1.160208   -0.280420
     74          1           0        5.698233    0.614225    1.375782
     75          1           0        5.320756   -0.528423    0.069462
     76          1           0        8.766175   -4.346636    0.347809
     77          1           0        9.890391   -6.098534    4.287393
     78          1           0        8.617637   -7.162437    3.737433
     79          1           0        8.219210   -5.676538    4.482898
     80         12           0      -11.005036    0.759440    0.510224
     81          6           0      -11.938880   -2.619128   -0.478796
     82          6           0       -7.943097    0.174358   -0.929144
     83          6           0      -10.681522    4.054663    0.041972
     84          6           0      -14.035707    1.111280    2.006080
     85          7           0      -10.139151   -0.995164   -0.762024
     86          6           0      -10.691700   -2.311307   -0.962986
     87          6           0       -9.620676   -3.225286   -1.564923
     88          6           0       -8.286605   -2.450357   -1.353767
     89          6           0       -8.754857   -0.977077   -0.974191
     90          6           0       -7.366361   -3.060413   -0.193305
     91          6           0       -9.879113   -3.775767   -2.936983
     92          6           0      -10.964284   -3.080693   -3.792766
     93          1           0      -11.352551   -3.420478   -5.243369
     94          7           0       -9.433193    1.978516   -0.214034
     95          6           0       -8.261446    1.531246   -0.783367
     96          6           0       -7.397801    2.720658   -1.062883
     97          6           0       -8.252433    3.805342   -0.883339
     98          6           0       -9.545546    3.344646   -0.383144
     99          6           0       -6.003215    2.554787   -1.553579
    100          6           0       -7.874613    5.283744   -1.190344
    101          8           0       -6.789560    5.499102   -1.700603
    102          6           0       -8.802076    6.444301   -1.044233
    103          7           0      -12.309832    2.309121    0.843417
    104          6           0      -11.839020    3.611990    0.684465
    105          6           0      -12.837820    4.627130    1.240141
    106          6           0      -13.770268    3.734680    2.136991
    107          6           0      -13.340674    2.335754    1.689342
    108          6           0      -12.292168    5.853774    2.015575
    109          6           0      -15.305067    3.997230    2.008433
    110          6           0      -15.991858    4.743976    3.241724
    111          7           0      -12.655286   -0.492439    0.820480
    112          6           0      -13.807561   -0.210083    1.539580
    113          6           0      -14.574229   -1.421812    1.694814
    114          6           0      -13.898380   -2.318162    0.855795
    115          6           0      -12.723836   -1.687783    0.375849
    116          6           0      -15.903025   -1.498973    2.466414
    117          6           0      -13.868033   -3.659778    0.359452
    118          8           0      -14.689723   -4.552230    0.650599
    119          6           0      -12.523416   -3.996305   -0.425348
    120          6           0      -12.981207   -4.586668   -1.698936
    121          8           0      -13.841759   -4.128932   -2.458170
    122          8           0      -12.185448   -5.658499   -1.934354
    123          6           0      -12.579154   -6.538152   -3.079295
    124          1           0       -6.976495   -0.007656   -1.402495
    125          1           0      -10.555177    5.129562   -0.105015
    126          1           0      -14.944785    1.222780    2.600100
    127          1           0       -9.688698   -4.021751   -0.823859
    128          1           0       -7.737389   -2.287757   -2.281310
    129          1           0       -6.502703   -3.440548   -0.737476
    130          1           0       -7.928179   -3.817233    0.354655
    131          1           0       -7.073382   -2.209994    0.423394
    132          1           0      -10.052877   -4.843433   -2.804069
    133          1           0       -8.892202   -3.665660   -3.387658
    134          1           0      -10.686741   -2.026187   -3.783659
    135          1           0      -11.933456   -3.181703   -3.303886
    136          1           0       -6.007417    2.904982   -2.585371
    137          1           0       -5.739077    1.500648   -1.474762
    138          1           0       -5.323270    3.103547   -0.900994
    139          1           0       -9.681288    6.484964   -1.686095
    140          1           0       -8.338081    7.390367   -1.321555
    141          1           0       -8.988483    6.412574    0.029150
    142          1           0      -13.273524    4.920479    0.284342
    143          1           0      -13.403670    3.893882    3.151315
    144          1           0      -12.255294    6.765200    1.418020
    145          1           0      -11.258961    5.669101    2.307752
    146          1           0      -12.893962    5.962049    2.918578
    147          1           0      -15.898035    3.102913    1.814868
    148          1           0      -15.393590    4.578096    1.090274
    149          1           0      -16.630147    5.468254    2.736274
    150          1           0      -15.300826    5.245889    3.919136
    151          1           0      -16.475018    3.974681    3.843034
    152          1           0      -16.125521   -2.467266    2.915295
    153          1           0      -16.613838   -1.312593    1.662092
    154          1           0      -15.869956   -0.846817    3.338893
    155          1           0      -11.919519   -4.679124    0.174094
    156          1           0      -11.861280   -7.354267   -3.168256
    157          1           0      -12.570266   -5.988227   -4.020552
    158          1           0      -13.570570   -6.871101   -2.775379
 ---------------------------------------------------------------------

 SCF Done:  E(RPBE1PBE) =  -4067.34611530     A.U. after   16 cycles

 Excitation energies and oscillator strengths:

 Excited State   1:      Singlet-A      1.8043 eV  687.15 nm  f=0.3857  <S**2>=0.000
     310 -> 316        0.15229
     312 -> 313        0.69679
     312 <- 313       -0.11766
 This state for optimization and/or second-order correction.
 Total Energy, E(TD-HF/TD-DFT) =  -4067.27980730
 Copying the excited state density for this state as the 1-particle RhoCI density.

 Excited State   2:      Singlet-A      1.8784 eV  660.04 nm  f=0.3276  <S**2>=0.000
     309 -> 315       -0.18322
     311 -> 314        0.68913
     311 <- 314       -0.10087

 Excited State   3:      Singlet-A      1.8806 eV  659.27 nm  f=0.0000  <S**2>=0.000
     312 -> 314        0.70708

 Excited State   4:      Singlet-A      1.9191 eV  646.06 nm  f=0.0000  <S**2>=0.000
     311 -> 313        0.70709

 Excited State   5:      Singlet-A      2.2726 eV  545.57 nm  f=0.0770  <S**2>=0.000
     310 -> 313        0.63279
     312 -> 316       -0.29871

 The electronic state is 1-A.
 Alpha  occ. eigenvalues --  -46.92631 -46.92105 -19.26707 -19.26006 -19.20816
 Alpha  occ. eigenvalues --  -19.19685 -19.19334 -19.19054 -19.18962 -19.17550
 Alpha  occ. eigenvalues --  -14.41918 -14.41665 -14.41621 -14.41094 -14.39211
 Alpha  occ. eigenvalues --  -14.39102 -14.39026 -14.38446 -10.37303 -10.36169
 Alpha  occ. eigenvalues --  -10.32462 -10.32239 -10.31687 -10.30907 -10.29402
 Alpha  occ. eigenvalues --  -10.29310 -10.29215 -10.28966 -10.28903 -10.28890
 Alpha  occ. eigenvalues --  -10.28759 -10.28559 -10.28425 -10.28366 -10.28334
 Alpha  occ. eigenvalues --  -10.28236 -10.28122 -10.27465 -10.27315 -10.27057
 Alpha  occ. eigenvalues --  -10.26846 -10.26404 -10.26401 -10.26335 -10.26259
 Alpha  occ. eigenvalues --  -10.26174 -10.26171 -10.26019 -10.26007 -10.25954
 Alpha  occ. eigenvalues --  -10.25773 -10.25744 -10.25718 -10.25623 -10.25555
 Alpha  occ. eigenvalues --  -10.25518 -10.25412 -10.25395 -10.25315 -10.25062
 Alpha  occ. eigenvalues --  -10.25013 -10.24914 -10.24902 -10.24861 -10.24790
 Alpha  occ. eigenvalues --  -10.24774 -10.24685 -10.24577 -10.24547 -10.24533
 Alpha  occ. eigenvalues --  -10.24397 -10.24349 -10.24227 -10.24089 -10.23962
 Alpha  occ. eigenvalues --  -10.23873 -10.23767 -10.23650 -10.23598 -10.23467
 Alpha  occ. eigenvalues --  -10.23460 -10.23370 -10.23117 -10.23027 -10.22807
 Alpha  occ. eigenvalues --  -10.21968  -3.14699  -3.14294  -1.87510  -1.87108
 Alpha  occ. eigenvalues --   -1.87096  -1.86903  -1.86683  -1.86517  -1.10838
 Alpha  occ. eigenvalues --   -1.10748  -1.06726  -1.05213  -1.03823  -1.03039
 Alpha  occ. eigenvalues --   -1.02317  -1.01564  -0.99632  -0.99405  -0.98915
 Alpha  occ. eigenvalues --   -0.98729  -0.97519  -0.97220  -0.96807  -0.94807
 Alpha  occ. eigenvalues --   -0.87407  -0.86347  -0.83610  -0.83464  -0.83295
 Alpha  occ. eigenvalues --   -0.83171  -0.82887  -0.82825  -0.81948  -0.81479
 Alpha  occ. eigenvalues --   -0.81037  -0.80853  -0.80462  -0.79350  -0.78875
 Alpha  occ. eigenvalues --   -0.78542  -0.78536  -0.78029  -0.76846  -0.76782
 Alpha  occ. eigenvalues --   -0.76728  -0.76540  -0.75411  -0.75291  -0.75212
 Alpha  occ. eigenvalues --   -0.74477  -0.72368  -0.72238  -0.72040  -0.71559
 Alpha  occ. eigenvalues --   -0.70792  -0.70735  -0.70614  -0.70301  -0.69477
 Alpha  occ. eigenvalues --   -0.69469  -0.67491  -0.67340  -0.66623  -0.66028
 Alpha  occ. eigenvalues --   -0.63990  -0.63419  -0.63268  -0.63056  -0.62526
 Alpha  occ. eigenvalues --   -0.62103  -0.61276  -0.61255  -0.60524  -0.60282
 Alpha  occ. eigenvalues --   -0.60110  -0.59745  -0.59433  -0.59208  -0.59060
 Alpha  occ. eigenvalues --   -0.58074  -0.57309  -0.56703  -0.54783  -0.54638
 Alpha  occ. eigenvalues --   -0.54063  -0.53760  -0.53712  -0.53632  -0.53510
 Alpha  occ. eigenvalues --   -0.52993  -0.52462  -0.52315  -0.51996  -0.51753
 Alpha  occ. eigenvalues --   -0.51310  -0.50871  -0.50703  -0.50670  -0.49836
 Alpha  occ. eigenvalues --   -0.49684  -0.49430  -0.49134  -0.48722  -0.48605
 Alpha  occ. eigenvalues --   -0.48250  -0.48158  -0.47738  -0.47708  -0.47638
 Alpha  occ. eigenvalues --   -0.47465  -0.47416  -0.47193  -0.47088  -0.46928
 Alpha  occ. eigenvalues --   -0.46773  -0.46419  -0.46346  -0.45876  -0.45752
 Alpha  occ. eigenvalues --   -0.45638  -0.45515  -0.45455  -0.45275  -0.45146
 Alpha  occ. eigenvalues --   -0.44770  -0.44558  -0.44487  -0.44285  -0.44191
 Alpha  occ. eigenvalues --   -0.43953  -0.43925  -0.43705  -0.43600  -0.43333
 Alpha  occ. eigenvalues --   -0.43277  -0.43028  -0.42927  -0.42769  -0.42759
 Alpha  occ. eigenvalues --   -0.42419  -0.42266  -0.42233  -0.41857  -0.41814
 Alpha  occ. eigenvalues --   -0.41510  -0.41332  -0.41326  -0.41190  -0.41056
 Alpha  occ. eigenvalues --   -0.41031  -0.40947  -0.40880  -0.40736  -0.40441
 Alpha  occ. eigenvalues --   -0.40173  -0.40151  -0.40040  -0.39881  -0.39646
 Alpha  occ. eigenvalues --   -0.39264  -0.39237  -0.39102  -0.39020  -0.38768
 Alpha  occ. eigenvalues --   -0.38672  -0.38667  -0.38409  -0.38300  -0.38177
 Alpha  occ. eigenvalues --   -0.38158  -0.37932  -0.37611  -0.37517  -0.37423
 Alpha  occ. eigenvalues --   -0.37332  -0.37261  -0.37053  -0.37029  -0.36997
 Alpha  occ. eigenvalues --   -0.36858  -0.36740  -0.36611  -0.36580  -0.36481
 Alpha  occ. eigenvalues --   -0.36038  -0.35918  -0.35826  -0.35693  -0.35621
 Alpha  occ. eigenvalues --   -0.35296  -0.34961  -0.34854  -0.34268  -0.33992
 Alpha  occ. eigenvalues --   -0.33908  -0.33320  -0.33009  -0.32500  -0.32364
 Alpha  occ. eigenvalues --   -0.32104  -0.32101  -0.31740  -0.31625  -0.31529
 Alpha  occ. eigenvalues --   -0.31336  -0.30807  -0.29937  -0.29741  -0.29218
 Alpha  occ. eigenvalues --   -0.29041  -0.28991  -0.28252  -0.27045  -0.26985
 Alpha  occ. eigenvalues --   -0.26138  -0.25886  -0.25800  -0.25617  -0.25360
 Alpha  occ. eigenvalues --   -0.25289  -0.25225  -0.24242  -0.21312  -0.21214
 Alpha  occ. eigenvalues --   -0.18697  -0.18406
 Alpha virt. eigenvalues --   -0.11047  -0.10908  -0.05669  -0.05253  -0.03736
 Alpha virt. eigenvalues --   -0.03077  -0.01966  -0.01906  -0.01340  -0.00902
 Alpha virt. eigenvalues --   -0.00391   0.00217   0.00728   0.01075   0.01737

 Mulliken charges:
               1
     1  Mg  11.999803
     2  C    5.998938
     3  C    6.000295
     4  C    6.000806
     5  C    5.999945
     6  N    6.999669
     7  C    6.001240
     8  C    6.000055
     9  C    6.000407
    10  C    5.998489
    11  C    6.000118
    12  C    6.000016
    13  C    5.999959
    14  H    0.999956
    15  N    7.000422
    16  C    5.998115
    17  C    5.998919
    18  C    5.999343
    19  C    5.998084
    20  C    6.000186
    21  C    5.999208
    22  O    7.998804
    23  C    6.000472
    24  N    7.000002
    25  C    5.998529
    26  C    6.000464
    27  C    5.999660
    28  C    6.001551
    29  C    6.000214
    30  C    5.999571
    31  C    5.999950
    32  N    7.000004
    33  C    6.001543
    34  C    6.001784
    35  C    5.999910
    36  C    6.001601
    37  C    5.999966
    38  C    6.001224
    39  O    8.001734
    40  C    5.999760
    41  C    6.000275
    42  O    8.000141
    43  O    8.000071
    44  C    5.999961
    45  H    0.999122
    46  H    0.999508
    47  H    1.001218
    48  H    0.999595
    49  H    0.999622
    50  H    0.999657
    51  H    0.999095
    52  H    0.999995
    53  H    1.000403
    54  H    1.000138
    55  H    0.999795
    56  H    0.999911
    57  H    0.998953
    58  H    0.999080
    59  H    0.998858
    60  H    0.999599
    61  H    0.999115
    62  H    0.999484
    63  H    0.999959
    64  H    1.000184
    65  H    0.999876
    66  H    0.999700
    67  H    0.999645
    68  H    1.000173
    69  H    1.000409
    70  H    1.000160
    71  H    1.000251
    72  H    1.000660
    73  H    1.001462
    74  H    1.001324
    75  H    1.001283
    76  H    1.000419
    77  H    1.000123
    78  H    0.999978
    79  H    1.000082
    80  Mg  11.999702
    81  C    5.972474
    82  C    5.990763
    83  C    6.030850
    84  C    6.007752
    85  N    6.976474
    86  C    6.026161
    87  C    5.996562
    88  C    6.002090
    89  C    5.988157
    90  C    6.001958
    91  C    5.998618
    92  C    5.994276
    93  H    1.001904
    94  N    7.007872
    95  C    5.968382
    96  C    5.972765
    97  C    5.997703
    98  C    5.955486
    99  C    6.004592
   100  C    5.987794
   101  O    7.984536
   102  C    6.001755
   103  N    7.008560
   104  C    5.960844
   105  C    6.010022
   106  C    5.988673
   107  C    6.032040
   108  C    5.999937
   109  C    5.993467
   110  C    6.001956
   111  N    7.000393
   112  C    6.030228
   113  C    6.024081
   114  C    6.001594
   115  C    6.035144
   116  C    6.001281
   117  C    6.015950
   118  O    8.032860
   119  C    6.006614
   120  C    6.003738
   121  O    8.001484
   122  O    8.002061
   123  C    6.000081
   124  H    0.986722
   125  H    0.994954
   126  H    1.015738
   127  H    0.995039
   128  H    1.000826
   129  H    0.994986
   130  H    0.986104
   131  H    1.002859
   132  H    0.997182
   133  H    1.007751
   134  H    1.009919
   135  H    0.993119
   136  H    0.982632
   137  H    0.985754
   138  H    0.982054
   139  H    0.989737
   140  H    0.989104
   141  H    0.992452
   142  H    0.999635
   143  H    1.006577
   144  H    1.002886
   145  H    1.004940
   146  H    0.991227
   147  H    0.994528
   148  H    1.008931
   149  H    1.004868
   150  H    1.005645
   151  H    0.997492
   152  H    1.014870
   153  H    1.015495
   154  H    1.012975
   155  H    1.005802
   156  H    1.004599
   157  H    1.004072
   158  H    0.998886
 Sum of Mulliken charges = 624.00000

 Dipole moment (field-independent basis, Debye):
    X=             -8.9141    Y=             -4.9276    Z=              2.9971  Tot=             10.6172
 Quadrupole moment (field-independent basis, Debye-Ang):
   XX=            168.0737   YY=             -5.5376   ZZ=              3.4548
   XY=             47.8841   XZ=            -34.1788   YZ=              4.2619

 Normal termination of Gaussian 16 at Fri Oct 15 14:43:10 2021.
