 Gaussian 16, Revision A.03,
 Gaussian 16:  ES64L-G16RevA.03 25-Dec-2016

 --------------------------------------------------------
 #p PBE1PBE/Def2SVP td=(nstates=5) density=(transition=1)
 --------------------------------------------------------

 --------------------------------
 TDDFT excited states in gaussian
 --------------------------------
 Symbolic Z-matrix:
 Charge =  0 Multiplicity = 1

                         Standard orientation:
 ---------------------------------------------------------------------
 Center     Atomic      Atomic             Coordinates (Angstroms)
 Number     Number       Type             X           Y           Z
 ---------------------------------------------------------------------
      1         12           0      -23.867768    0.355071    0.196966
      2          6           0      -22.392453   -1.906308   -1.944446
      3          6           0      -22.630413    2.844821   -1.797311
      4          6           0      -25.058256    2.580499    2.440761
      5          6           0      -24.561736   -2.212930    2.435919
      6          7           0      -22.506111    0.372846   -1.621411
      7          6           0      -22.220816   -0.604923   -2.392173
      8          6           0      -21.476328   -0.238830   -3.777848
      9          6           0      -21.308613    1.312652   -3.532107
     10          6           0      -22.130429    1.564790   -2.180325
     11          6           0      -19.788371    1.807722   -3.285412
     12          6           0      -22.280449   -0.598707   -5.101550
     13          6           0      -21.451892   -0.985973   -6.377534
     14          1           0      -19.974863   -0.737479   -6.320435
     15          7           0      -23.920878    2.367853    0.278079
     16          6           0      -23.411715    3.292349   -0.716523
     17          6           0      -23.759659    4.639964   -0.278168
     18          6           0      -24.363734    4.587572    1.002768
     19          6           0      -24.513212    3.140304    1.276070
     20          6           0      -23.452557    5.754038   -1.212927
     21          6           0      -24.906807    5.708817    1.919364
     22          8           0      -25.311763    5.563861    3.034361
     23          6           0      -24.730655    7.138836    1.369740
     24          7           0      -24.613289    0.277329    2.231553
     25          6           0      -25.029861    1.278543    2.940292
     26          6           0      -25.318984    0.862774    4.410591
     27          6           0      -25.268902   -0.683513    4.374342
     28          6           0      -24.801953   -0.927725    2.920010
     29          6           0      -24.300000    1.501281    5.378308
     30          6           0      -26.633806   -1.334963    4.754895
     31          6           0      -27.014158   -1.224692    6.240275
     32          7           0      -23.559254   -1.683378    0.275903
     33          6           0      -23.995486   -2.600133    1.215851
     34          6           0      -23.642457   -3.901730    0.713220
     35          6           0      -22.958493   -3.734791   -0.528085
     36          6           0      -22.996139   -2.326648   -0.719162
     37          6           0      -23.879552   -5.125177    1.387322
     38          6           0      -22.353349   -4.350584   -1.665813
     39          8           0      -22.094650   -5.576762   -1.853276
     40          6           0      -21.861083   -3.153307   -2.568051
     41          6           0      -20.424000   -3.270573   -2.693856
     42          8           0      -19.617583   -2.876323   -1.851830
     43          8           0      -20.176788   -4.020038   -3.815780
     44          6           0      -18.764875   -4.442260   -3.931323
     45          1           0      -22.227107    3.660771   -2.399895
     46          1           0      -25.442691    3.356799    3.106630
     47          1           0      -24.865327   -2.989421    3.141803
     48          1           0      -20.511828   -0.738755   -3.685302
     49          1           0      -21.682056    1.870047   -4.390919
     50          1           0      -19.197041    0.940609   -2.989862
     51          1           0      -19.770261    2.555347   -2.492574
     52          1           0      -19.288555    2.276606   -4.133643
     53          1           0      -22.823430    0.319106   -5.325567
     54          1           0      -23.151299   -1.243554   -4.978758
     55          1           0      -21.800953   -0.504647   -7.291009
     56          1           0      -21.508689   -2.064939   -6.521729
     57          1           0      -22.420453    6.084112   -1.091545
     58          1           0      -24.203641    6.543907   -1.196186
     59          1           0      -23.555240    5.353891   -2.221330
     60          1           0      -25.415418    7.403731    0.563512
     61          1           0      -23.689997    7.115758    1.047903
     62          1           0      -24.782249    7.940470    2.105901
     63          1           0      -26.338514    1.218809    4.556632
     64          1           0      -24.471432   -1.037855    5.027435
     65          1           0      -23.339486    1.775329    4.941399
     66          1           0      -23.943501    0.901287    6.216234
     67          1           0      -24.791485    2.395404    5.761720
     68          1           0      -26.582762   -2.402080    4.543142
     69          1           0      -27.428954   -0.907873    4.142867
     70          1           0      -26.262390   -0.602922    6.726451
     71          1           0      -26.823075   -2.183180    6.723094
     72          1           0      -28.032822   -0.942505    6.505256
     73          1           0      -24.900641   -5.036933    1.758591
     74          1           0      -23.251288   -5.329299    2.254185
     75          1           0      -23.671655   -5.944779    0.698705
     76          1           0      -22.321314   -3.372301   -3.531908
     77          1           0      -18.588389   -5.131354   -3.104948
     78          1           0      -18.089549   -3.590430   -4.004288
     79          1           0      -18.671173   -5.000945   -4.862685
     80         12           0       23.539338    0.570144   -0.450872
     81          6           0       22.352996   -2.689857    0.110543
     82          6           0       20.323357    1.534327   -1.192466
     83          6           0       24.595860    3.696204   -0.212011
     84          6           0       26.762747   -0.499878    0.589575
     85          7           0       21.561822   -0.399450   -0.280521
     86          6           0       21.292906   -1.770499   -0.033510
     87          6           0       19.928373   -2.165154   -0.423794
     88          6           0       19.316238   -0.791962   -0.939971
     89          6           0       20.476259    0.185783   -0.837774
     90          6           0       18.631161   -0.928642   -2.321278
     91          6           0       19.066849   -2.641483    0.705726
     92          6           0       19.238644   -1.927639    2.054827
     93          1           0       18.011353   -1.677721    3.015288
     94          7           0       22.614107    2.413227   -0.704663
     95          6           0       21.342087    2.561719   -1.121289
     96          6           0       21.107204    3.960845   -1.376710
     97          6           0       22.347593    4.614764   -1.174541
     98          6           0       23.282293    3.579723   -0.704352
     99          6           0       19.787463    4.581235   -1.749088
    100          6           0       22.618374    6.101960   -1.400217
    101          8           0       21.736697    6.850003   -1.775106
    102          6           0       23.882549    6.853499   -1.104949
    103          7           0       25.317576    1.488756    0.348545
    104          6           0       25.540653    2.838397    0.284801
    105          6           0       27.045173    3.182735    0.538461
    106          6           0       27.599002    1.833388    1.088163
    107          6           0       26.515667    0.877537    0.638788
    108          6           0       27.843493    3.636375   -0.707576
    109          6           0       27.632027    1.683579    2.682175
    110          6           0       28.881140    1.144670    3.279619
    111          7           0       24.433236   -1.157790    0.102149
    112          6           0       25.728438   -1.442252    0.293854
    113          6           0       25.955926   -2.931674    0.172408
    114          6           0       24.618603   -3.425737    0.046260
    115          6           0       23.726002   -2.322183    0.156278
    116          6           0       27.242543   -3.743261    0.219400
    117          6           0       23.858625   -4.642306    0.036102
    118          8           0       24.221494   -5.806884    0.087361
    119          6           0       22.340849   -4.196275    0.046045
    120          6           0       21.758423   -4.645287    1.370162
    121          8           0       22.012209   -4.230208    2.452425
    122          8           0       20.769887   -5.569292    1.106087
    123          6           0       19.926168   -5.877186    2.265252
    124          1           0       19.349095    1.787941   -1.615044
    125          1           0       25.010298    4.702015   -0.298428
    126          1           0       27.806439   -0.767806    0.766641
    127          1           0       20.014625   -2.955150   -1.169821
    128          1           0       18.617320   -0.296314   -0.266293
    129          1           0       17.685672   -0.424117   -2.121474
    130          1           0       18.533348   -1.995464   -2.522658
    131          1           0       19.146859   -0.380048   -3.109692
    132          1           0       19.041993   -3.725924    0.816061
    133          1           0       17.995444   -2.520098    0.544660
    134          1           0       19.712772   -0.977282    1.807289
    135          1           0       20.004540   -2.536555    2.535487
    136          1           0       19.595236    5.477154   -1.157837
    137          1           0       18.994075    3.838174   -1.669418
    138          1           0       19.915234    4.862171   -2.794757
    139          1           0       24.150653    6.924178   -0.051293
    140          1           0       23.583160    7.870014   -1.360663
    141          1           0       24.685457    6.637685   -1.810644
    142          1           0       27.080496    3.991843    1.267868
    143          1           0       28.561357    1.552921    0.659232
    144          1           0       28.575718    2.865926   -0.948476
    145          1           0       28.170656    4.672607   -0.623789
    146          1           0       27.164222    3.669491   -1.558643
    147          1           0       26.783141    1.100249    3.038107
    148          1           0       27.480739    2.702307    3.039525
    149          1           0       29.315514    1.806399    4.028689
    150          1           0       29.645998    0.899248    2.542467
    151          1           0       28.701904    0.216992    3.822442
    152          1           0       27.132041   -4.445564    1.045650
    153          1           0       28.077454   -3.041455    0.223036
    154          1           0       27.230146   -4.357253   -0.681042
    155          1           0       21.784631   -4.602110   -0.798656
    156          1           0       19.833570   -5.041796    2.959125
    157          1           0       20.444796   -6.710210    2.739903
    158          1           0       19.011268   -6.306338    1.857633
 ---------------------------------------------------------------------

 SCF Done:  E(RPBE1PBE) =  -4067.38192988     A.U. after   17 cycles

 Excitation energies and oscillator strengths:

 Excited State   1:      Singlet-A      1.8294 eV  677.74 nm  f=0.3595  <S**2>=0.000
     309 -> 315        0.16662
     312 -> 313        0.69540
     312 <- 313       -0.11481
 This state for optimization and/or second-order correction.
 Total Energy, E(TD-HF/TD-DFT) =  -4067.31470152
 Copying the excited state density for this state as the 1-particle RhoCI density.

 Excited State   2:      Singlet-A      1.9096 eV  649.28 nm  f=0.3737  <S**2>=0.000
     310 -> 316        0.19440
     311 -> 314        0.68533

 Excited State   3:      Singlet-A      1.9922 eV  622.34 nm  f=0.0000  <S**2>=0.000
     311 -> 313        0.70711

 Excited State   4:      Singlet-A      2.0381 eV  608.32 nm  f=0.0000  <S**2>=0.000
     312 -> 314        0.70711

 Excited State   5:      Singlet-A      2.2083 eV  561.44 nm  f=0.1060  <S**2>=0.000
     310 -> 314        0.65634
     311 -> 316       -0.25143

 The electronic state is 1-A.
 Alpha  occ. eigenvalues --  -46.91958 -46.91811 -19.25459 -19.25250 -19.20583
 Alpha  occ. eigenvalues --  -19.20189 -19.19540 -19.19353 -19.18665 -19.18420
 Alpha  occ. eigenvalues --  -14.41878 -14.41599 -14.41406 -14.41074 -14.39324
 Alpha  occ. eigenvalues --  -14.39244 -14.39114 -14.38663 -10.36231 -10.35545
 Alpha  occ. eigenvalues --  -10.33242 -10.32131 -10.32046 -10.31722 -10.29455
 Alpha  occ. eigenvalues --  -10.28992 -10.28655 -10.28610 -10.28486 -10.28484
 Alpha  occ. eigenvalues --  -10.28432 -10.28395 -10.28347 -10.28199 -10.28173
 Alpha  occ. eigenvalues --  -10.28118 -10.28061 -10.27983 -10.27580 -10.27068
 Alpha  occ. eigenvalues --  -10.26885 -10.26834 -10.26755 -10.26737 -10.26692
 Alpha  occ. eigenvalues --  -10.26484 -10.26324 -10.26140 -10.26111 -10.26008
 Alpha  occ. eigenvalues --  -10.25929 -10.25927 -10.25788 -10.25635 -10.25601
 Alpha  occ. eigenvalues --  -10.25440 -10.25390 -10.25377 -10.25347 -10.25291
 Alpha  occ. eigenvalues --  -10.25056 -10.24969 -10.24786 -10.24714 -10.24703
 Alpha  occ. eigenvalues --  -10.24440 -10.24429 -10.24391 -10.24232 -10.24117
 Alpha  occ. eigenvalues --  -10.24075 -10.24050 -10.24038 -10.23961 -10.23589
 Alpha  occ. eigenvalues --  -10.23585 -10.23423 -10.23122 -10.22976 -10.22909
 Alpha  occ. eigenvalues --  -10.22891 -10.22842 -10.22792 -10.22776 -10.22400
 Alpha  occ. eigenvalues --  -10.22211  -3.14179  -3.14002  -1.86981  -1.86836
 Alpha  occ. eigenvalues --   -1.86558  -1.86420  -1.86381  -1.86229  -1.11985
 Alpha  occ. eigenvalues --   -1.10280  -1.07108  -1.05113  -1.04696  -1.03772
 Alpha  occ. eigenvalues --   -1.02034  -1.01594  -1.00009  -0.99206  -0.98979
 Alpha  occ. eigenvalues --   -0.98676  -0.98270  -0.97905  -0.97254  -0.95334
 Alpha  occ. eigenvalues --   -0.87530  -0.86948  -0.84137  -0.83733  -0.83606
 Alpha  occ. eigenvalues --   -0.82693  -0.82590  -0.82035  -0.81836  -0.81823
 Alpha  occ. eigenvalues --   -0.81309  -0.81099  -0.80629  -0.80102  -0.79001
 Alpha  occ. eigenvalues --   -0.78455  -0.78203  -0.77724  -0.76988  -0.76573
 Alpha  occ. eigenvalues --   -0.75885  -0.75815  -0.75363  -0.75148  -0.74799
 Alpha  occ. eigenvalues --   -0.74584  -0.72759  -0.72285  -0.71790  -0.71708
 Alpha  occ. eigenvalues --   -0.71124  -0.70671  -0.70348  -0.70044  -0.69500
 Alpha  occ. eigenvalues --   -0.69175  -0.67162  -0.66698  -0.66083  -0.65901
 Alpha  occ. eigenvalues --   -0.63930  -0.63747  -0.63281  -0.63139  -0.63023
 Alpha  occ. eigenvalues --   -0.62669  -0.61517  -0.61344  -0.60287  -0.60191
 Alpha  occ. eigenvalues --   -0.59801  -0.59614  -0.59298  -0.59053  -0.58893
 Alpha  occ. eigenvalues --   -0.58634  -0.56647  -0.56143  -0.54510  -0.54476
 Alpha  occ. eigenvalues --   -0.54069  -0.53970  -0.53686  -0.53514  -0.53397
 Alpha  occ. eigenvalues --   -0.52898  -0.52683  -0.52460  -0.52152  -0.52002
 Alpha  occ. eigenvalues --   -0.51105  -0.50541  -0.50525  -0.50172  -0.49959
 Alpha  occ. eigenvalues --   -0.49768  -0.49659  -0.49188  -0.49101  -0.48678
 Alpha  occ. eigenvalues --   -0.48569  -0.47859  -0.47650  -0.47604  -0.47560
 Alpha  occ. eigenvalues --   -0.47361  -0.47156  -0.46880  -0.46763  -0.46751
 Alpha  occ. eigenvalues --   -0.46615  -0.46477  -0.46251  -0.45950  -0.45936
 Alpha  occ. eigenvalues --   -0.45766  -0.45591  -0.45526  -0.45439  -0.45287
 Alpha  occ. eigenvalues --   -0.44809  -0.44612  -0.44219  -0.44091  -0.43988
 Alpha  occ. eigenvalues --   -0.43930  -0.43710  -0.43578  -0.43516  -0.43416
 Alpha  occ. eigenvalues --   -0.43191  -0.43144  -0.43090  -0.43064  -0.42793
 Alpha  occ. eigenvalues --   -0.42469  -0.42449  -0.42220  -0.41880  -0.41799
 Alpha  occ. eigenvalues --   -0.41656  -0.41595  -0.41448  -0.41274  -0.41144
 Alpha  occ. eigenvalues --   -0.41093  -0.41011  -0.40712  -0.40688  -0.40592
 Alpha  occ. eigenvalues --   -0.40375  -0.40240  -0.39965  -0.39904  -0.39686
 Alpha  occ. eigenvalues --   -0.39471  -0.39189  -0.39158  -0.39067  -0.38918
 Alpha  occ. eigenvalues --   -0.38835  -0.38691  -0.38492  -0.38408  -0.38197
 Alpha  occ. eigenvalues --   -0.38026  -0.37881  -0.37775  -0.37649  -0.37580
 Alpha  occ. eigenvalues --   -0.37493  -0.37367  -0.37162  -0.37113  -0.37032
 Alpha  occ. eigenvalues --   -0.36996  -0.36712  -0.36610  -0.36476  -0.36285
 Alpha  occ. eigenvalues --   -0.36068  -0.36059  -0.35648  -0.35480  -0.35262
 Alpha  occ. eigenvalues --   -0.35144  -0.34784  -0.34672  -0.34315  -0.34027
 Alpha  occ. eigenvalues --   -0.33414  -0.33169  -0.32936  -0.32829  -0.32609
 Alpha  occ. eigenvalues --   -0.32242  -0.32082  -0.31961  -0.31482  -0.31446
 Alpha  occ. eigenvalues --   -0.31392  -0.30735  -0.29898  -0.29559  -0.29402
 Alpha  occ. eigenvalues --   -0.29090  -0.28660  -0.28581  -0.26992  -0.26957
 Alpha  occ. eigenvalues --   -0.26243  -0.26079  -0.25771  -0.25498  -0.25384
 Alpha  occ. eigenvalues --   -0.25242  -0.25125  -0.24954  -0.21218  -0.20610
 Alpha  occ. eigenvalues --   -0.18831  -0.18696
 Alpha virt. eigenvalues --   -0.11230  -0.10926  -0.05310  -0.05135  -0.04217
 Alpha virt. eigenvalues --   -0.03994  -0.02271  -0.01899  -0.01319  -0.00113
 Alpha virt. eigenvalues --    0.00881   0.00892   0.01023   0.01417   0.01513

 Mulliken charges:
               1
     1  Mg  11.999986
     2  C    5.999961
     3  C    6.000068
     4  C    6.000049
     5  C    5.999903
     6  N    6.999946
     7  C    6.000083
     8  C    5.999955
     9  C    6.000043
    10  C    5.999928
    11  C    6.000027
    12  C    5.999984
    13  C    6.000007
    14  H    0.999962
    15  N    7.000017
    16  C    5.999863
    17  C    5.999881
    18  C    5.999964
    19  C    5.999857
    20  C    6.000058
    21  C    5.999979
    22  O    7.999927
    23  C    6.000034
    24  N    7.000090
    25  C    5.999930
    26  C    6.000016
    27  C    5.999947
    28  C    6.000070
    29  C    6.000015
    30  C    5.999976
    31  C    5.999992
    32  N    6.999993
    33  C    6.000163
    34  C    6.000137
    35  C    6.000045
    36  C    6.000098
    37  C    5.999935
    38  C    6.000073
    39  O    8.000111
    40  C    5.999972
    41  C    6.000015
    42  O    7.999997
    43  O    8.000010
    44  C    5.999996
    45  H    0.999922
    46  H    0.999989
    47  H    1.000059
    48  H    0.999981
    49  H    0.999971
    50  H    0.999950
    51  H    0.999987
    52  H    0.999934
    53  H    1.000031
    54  H    1.000009
    55  H    1.000011
    56  H    1.000013
    57  H    0.999895
    58  H    0.999949
    59  H    0.999951
    60  H    0.999964
    61  H    0.999954
    62  H    0.999936
    63  H    1.000024
    64  H    1.000021
    65  H    0.999984
    66  H    0.999978
    67  H    1.000011
    68  H    1.000005
    69  H    1.000030
    70  H    1.000011
    71  H    1.000022
    72  H    1.000029
    73  H    1.000078
    74  H    1.000103
    75  H    1.000065
    76  H    1.000039
    77  H    1.000022
    78  H    0.999985
    79  H    1.000030
    80  Mg  12.001989
    81  C    6.027558
    82  C    5.992217
    83  C    5.978644
    84  C    6.007301
    85  N    7.006591
    86  C    5.960491
    87  C    6.013897
    88  C    5.991484
    89  C    6.029001
    90  C    5.998124
    91  C    6.003501
    92  C    6.005644
    93  H    0.991539
    94  N    6.991951
    95  C    6.039856
    96  C    6.022081
    97  C    6.005475
    98  C    6.042653
    99  C    5.997279
   100  C    6.010641
   101  O    8.018424
   102  C    5.996379
   103  N    6.996111
   104  C    6.032704
   105  C    5.993686
   106  C    6.005461
   107  C    5.976699
   108  C    6.000176
   109  C    6.007192
   110  C    6.000259
   111  N    7.001196
   112  C    5.965853
   113  C    5.960913
   114  C    6.005122
   115  C    5.962839
   116  C    6.000374
   117  C    5.985024
   118  O    7.975076
   119  C    5.998018
   120  C    5.997300
   121  O    7.996297
   122  O    7.997973
   123  C    6.001215
   124  H    1.012251
   125  H    1.007575
   126  H    0.988880
   127  H    0.998691
   128  H    0.998142
   129  H    1.000134
   130  H    1.012245
   131  H    0.998210
   132  H    1.003497
   133  H    0.991441
   134  H    0.990519
   135  H    1.006642
   136  H    1.015868
   137  H    1.017107
   138  H    1.017420
   139  H    1.010490
   140  H    1.010686
   141  H    1.011135
   142  H    0.999610
   143  H    1.000247
   144  H    1.012025
   145  H    1.000080
   146  H    0.995345
   147  H    1.000761
   148  H    0.986112
   149  H    0.994709
   150  H    0.999426
   151  H    1.002944
   152  H    0.981725
   153  H    0.982688
   154  H    0.981371
   155  H    0.990254
   156  H    0.996043
   157  H    0.998632
   158  H    0.994888
 Sum of Mulliken charges = 624.00000

 Dipole moment (field-independent basis, Debye):
    X=             -4.2825    Y=              8.9517    Z=             -2.2756  Tot=             10.1809
 Quadrupole moment (field-independent basis, Debye-Ang):
   XX=           -203.0002   YY=              9.2369   ZZ=              1.3791
   XY=            209.3602   XZ=            -50.1040   YZ=             -5.8493

 Normal termination of Gaussian 16 at Fri Oct 15 09:25:10 2021.
