 Gaussian 16, Revision A.03,
 Gaussian 16:  ES64L-G16RevA.03 25-Dec-2016

 --------------------------------------------------------
 #p PBE1PBE/Def2SVP td=(nstates=5) density=(transition=1)
 --------------------------------------------------------

 --------------------------------
 TDDFT excited states in gaussian
 --------------------------------
 Symbolic Z-matrix:
 Charge =  0 Multiplicity = 1

                         Standard orientation:
 ---------------------------------------------------------------------
 Center     Atomic      Atomic             Coordinates (Angstroms)
 Number     Number       Type             X           Y           Z
 ---------------------------------------------------------------------
      1         12           0      -12.406303   -0.492662    0.210252
      2          6           0       -8.948282   -0.019940   -0.607200
      3          6           0      -13.101065   -0.596874   -2.997243
      4          6           0      -15.561751   -0.105373    1.147048
      5          6           0      -11.389507    0.038337    3.704948
      6          7           0      -11.144419   -0.371872   -1.586785
      7          6           0       -9.760315   -0.145428   -1.722892
      8          6           0       -9.268986   -0.090903   -3.218806
      9          6           0      -10.722982   -0.363454   -3.949038
     10          6           0      -11.739364   -0.470551   -2.816562
     11          6           0      -11.121599    0.801963   -4.952713
     12          6           0       -8.118030   -1.087034   -3.596933
     13          6           0       -7.921620   -1.337551   -5.087342
     14          1           0       -6.589687   -0.815791   -5.656818
     15          7           0      -14.108506   -0.468059   -0.795400
     16          6           0      -14.275112   -0.545278   -2.158189
     17          6           0      -15.670399   -0.552582   -2.544149
     18          6           0      -16.378850   -0.418141   -1.284925
     19          6           0      -15.312293   -0.397047   -0.221435
     20          6           0      -16.204454   -0.731979   -3.886899
     21          6           0      -17.870766   -0.367583   -1.004729
     22          8           0      -18.348723   -0.372745    0.094929
     23          6           0      -18.736066   -0.218405   -2.227819
     24          7           0      -13.345935   -0.025357    2.151604
     25          6           0      -14.698388    0.041458    2.238254
     26          6           0      -15.152195    0.231362    3.710364
     27          6           0      -13.797106    0.134735    4.493901
     28          6           0      -12.763837   -0.011222    3.393428
     29          6           0      -15.962881    1.521788    4.073939
     30          6           0      -13.674927   -1.045119    5.521636
     31          6           0      -14.430238   -0.785672    6.843906
     32          7           0      -10.621855   -0.060049    1.363232
     33          6           0      -10.361668    0.042917    2.710342
     34          6           0       -8.970075    0.151767    2.901129
     35          6           0       -8.373999    0.191326    1.696691
     36          6           0       -9.417928    0.080115    0.728887
     37          6           0       -8.361705    0.140289    4.297442
     38          6           0       -7.145162    0.350085    0.912450
     39          8           0       -6.007187    0.521532    1.266332
     40          6           0       -7.511807    0.236445   -0.643688
     41          6           0       -7.304733    1.588914   -1.247271
     42          8           0       -8.032368    2.551912   -1.337924
     43          8           0       -6.031648    1.541959   -1.779883
     44          6           0       -5.547307    2.758158   -2.475237
     45          1           0      -13.436313   -0.590280   -4.036370
     46          1           0      -16.597110    0.163998    1.369243
     47          1           0      -11.247247    0.072249    4.787584
     48          1           0       -9.008105    0.943584   -3.442755
     49          1           0      -10.632360   -1.272577   -4.543958
     50          1           0      -11.507575    0.367539   -5.874754
     51          1           0      -10.380389    1.559304   -5.206546
     52          1           0      -11.987874    1.344273   -4.575056
     53          1           0       -8.428675   -1.956127   -3.015576
     54          1           0       -7.120825   -0.904183   -3.196022
     55          1           0       -8.730501   -0.857746   -5.637621
     56          1           0       -7.834718   -2.411414   -5.250441
     57          1           0      -16.704998   -1.690442   -3.749587
     58          1           0      -15.407614   -0.730756   -4.630795
     59          1           0      -16.952452   -0.022169   -4.239543
     60          1           0      -19.056159   -1.204322   -2.564613
     61          1           0      -18.397108    0.560626   -2.911310
     62          1           0      -19.545909    0.418641   -1.873369
     63          1           0      -15.624374   -0.713276    3.981834
     64          1           0      -13.568645    1.109183    4.926162
     65          1           0      -15.525590    2.168981    4.834766
     66          1           0      -16.865651    1.160196    4.565734
     67          1           0      -16.200422    2.176437    3.235429
     68          1           0      -12.626491   -1.189539    5.780038
     69          1           0      -14.029022   -1.923821    4.980772
     70          1           0      -14.588796    0.283213    6.988202
     71          1           0      -13.824026   -1.242811    7.625885
     72          1           0      -15.436058   -1.205706    6.873774
     73          1           0       -7.339031   -0.236557    4.278826
     74          1           0       -9.000075   -0.452661    4.952498
     75          1           0       -8.412958    1.134655    4.741515
     76          1           0       -6.922375   -0.533566   -1.142005
     77          1           0       -4.500586    2.858869   -2.188572
     78          1           0       -6.087956    3.668583   -2.216965
     79          1           0       -5.684105    2.434262   -3.507439
     80         12           0       11.981375    0.737364   -0.651540
     81          6           0       11.723836   -2.796418   -0.440551
     82          6           0        8.571905    0.792104   -1.386144
     83          6           0       12.014614    3.881661    0.322335
     84          6           0       15.446888    0.320207    0.453073
     85          7           0       10.259950   -0.882009   -0.639563
     86          6           0       10.482366   -2.210758   -0.794710
     87          6           0        9.201594   -2.884233   -1.253961
     88          6           0        8.482612   -1.802973   -2.060908
     89          6           0        9.096619   -0.528944   -1.284476
     90          6           0        8.783470   -1.686084   -3.556289
     91          6           0        8.432097   -3.481249    0.003927
     92          6           0        7.932698   -4.850900   -0.240176
     93          1           0        6.521727   -5.198050    0.273261
     94          7           0       10.473495    2.200591   -0.485263
     95          6           0        9.135482    2.037772   -0.922533
     96          6           0        8.490123    3.313319   -0.739066
     97          6           0        9.443436    4.283953   -0.331767
     98          6           0       10.712243    3.502064   -0.113482
     99          6           0        7.003281    3.482452   -1.035089
    100          6           0        9.172639    5.707570   -0.042734
    101          8           0        8.029425    6.128324   -0.169841
    102          6           0       10.135503    6.717235    0.490198
    103          7           0       13.576107    1.915079    0.384647
    104          6           0       13.313670    3.235653    0.447711
    105          6           0       14.572934    4.021543    0.855723
    106          6           0       15.758103    2.905314    0.757825
    107          6           0       14.919977    1.631645    0.475275
    108          6           0       14.798459    5.378141    0.048042
    109          6           0       16.694984    2.807891    2.002353
    110          6           0       16.402824    1.678727    3.048529
    111          7           0       13.295888   -0.809839   -0.124218
    112          6           0       14.674654   -0.810419    0.231961
    113          6           0       15.181691   -2.251239    0.205037
    114          6           0       14.028930   -2.991059   -0.004820
    115          6           0       12.935726   -2.075901   -0.213455
    116          6           0       16.577135   -2.869361    0.416903
    117          6           0       13.525105   -4.316514   -0.177817
    118          8           0       14.116823   -5.396542   -0.216607
    119          6           0       12.050169   -4.170871   -0.298613
    120          6           0       11.535555   -4.723911    1.050058
    121          8           0       11.524810   -4.147406    2.135644
    122          8           0       11.137301   -6.071104    0.826137
    123          6           0       10.739578   -6.840875    1.934112
    124          1           0        7.532639    0.877416   -1.710743
    125          1           0       11.963742    4.964545    0.451947
    126          1           0       16.500614    0.097305    0.629287
    127          1           0        9.369772   -3.686418   -1.972357
    128          1           0        7.394273   -1.758052   -2.077830
    129          1           0        9.228019   -2.582802   -3.987034
    130          1           0        9.269267   -0.739831   -3.795682
    131          1           0        7.782829   -1.629020   -3.986302
    132          1           0        7.560973   -2.857699    0.205288
    133          1           0        8.970612   -3.382347    0.946494
    134          1           0        8.704109   -5.452318    0.239448
    135          1           0        7.933898   -5.027403   -1.315686
    136          1           0        6.813736    4.017046   -1.965682
    137          1           0        6.526615    3.944288   -0.171688
    138          1           0        6.527851    2.508279   -1.150249
    139          1           0       10.878402    6.918569   -0.281989
    140          1           0       10.648542    6.445057    1.413405
    141          1           0        9.684149    7.706561    0.554551
    142          1           0       14.399921    4.223231    1.912623
    143          1           0       16.322943    3.081154   -0.157051
    144          1           0       13.858145    5.757926   -0.351311
    145          1           0       15.584088    5.421546   -0.707215
    146          1           0       15.286960    6.011527    0.790162
    147          1           0       16.761027    3.749291    2.547190
    148          1           0       17.657202    2.582427    1.543204
    149          1           0       16.755917    2.241179    3.913181
    150          1           0       16.963760    0.747223    2.969598
    151          1           0       15.322550    1.536642    3.085168
    152          1           0       16.885316   -3.446477   -0.454214
    153          1           0       16.275373   -3.607974    1.158915
    154          1           0       17.222853   -2.090519    0.821969
    155          1           0       11.687024   -4.809250   -1.104112
    156          1           0       10.458714   -7.867846    1.697266
    157          1           0        9.871401   -6.351759    2.374049
    158          1           0       11.602401   -6.837929    2.600768
 ---------------------------------------------------------------------

 SCF Done:  E(RPBE1PBE) =  -4067.34013615     A.U. after   16 cycles

 Excitation energies and oscillator strengths:

 Excited State   1:      Singlet-A      1.8402 eV  673.74 nm  f=0.4062  <S**2>=0.000
     309 -> 315        0.18744
     311 -> 313        0.68143
 This state for optimization and/or second-order correction.
 Total Energy, E(TD-HF/TD-DFT) =  -4067.27250886
 Copying the excited state density for this state as the 1-particle RhoCI density.

 Excited State   2:      Singlet-A      1.8605 eV  666.41 nm  f=0.3366  <S**2>=0.000
     310 -> 316        0.16705
     312 -> 314        0.68776
     312 <- 314       -0.10748

 Excited State   3:      Singlet-A      1.9038 eV  651.25 nm  f=0.0000  <S**2>=0.000
     312 -> 313        0.70709

 Excited State   4:      Singlet-A      1.9557 eV  633.96 nm  f=0.0000  <S**2>=0.000
     311 -> 314        0.70708

 Excited State   5:      Singlet-A      2.1946 eV  564.94 nm  f=0.0644  <S**2>=0.000
     309 -> 313        0.63431
     311 -> 315       -0.29980

 The electronic state is 1-A.
 Alpha  occ. eigenvalues --  -46.94613 -46.91953 -19.25293 -19.24444 -19.21513
 Alpha  occ. eigenvalues --  -19.20032 -19.19244 -19.19141 -19.19016 -19.17752
 Alpha  occ. eigenvalues --  -14.41808 -14.41667 -14.41435 -14.40834 -14.39794
 Alpha  occ. eigenvalues --  -14.39381 -14.39240 -14.38478 -10.37575 -10.35887
 Alpha  occ. eigenvalues --  -10.32364 -10.31865 -10.31559 -10.31215 -10.29562
 Alpha  occ. eigenvalues --  -10.29159 -10.29138 -10.28921 -10.28640 -10.28631
 Alpha  occ. eigenvalues --  -10.28571 -10.28533 -10.28354 -10.28170 -10.28076
 Alpha  occ. eigenvalues --  -10.27924 -10.27822 -10.27805 -10.27786 -10.26996
 Alpha  occ. eigenvalues --  -10.26934 -10.26856 -10.26756 -10.26710 -10.26657
 Alpha  occ. eigenvalues --  -10.26581 -10.26408 -10.26306 -10.26155 -10.26151
 Alpha  occ. eigenvalues --  -10.26115 -10.25823 -10.25582 -10.25470 -10.25391
 Alpha  occ. eigenvalues --  -10.25302 -10.25274 -10.25236 -10.25126 -10.25101
 Alpha  occ. eigenvalues --  -10.24813 -10.24737 -10.24679 -10.24672 -10.24658
 Alpha  occ. eigenvalues --  -10.24555 -10.24484 -10.24404 -10.24396 -10.24392
 Alpha  occ. eigenvalues --  -10.24353 -10.24341 -10.24239 -10.23788 -10.23729
 Alpha  occ. eigenvalues --  -10.23627 -10.23350 -10.23225 -10.23049 -10.23024
 Alpha  occ. eigenvalues --  -10.22995 -10.22971 -10.22964 -10.22675 -10.22576
 Alpha  occ. eigenvalues --  -10.22352  -3.16401  -3.14075  -1.89179  -1.88826
 Alpha  occ. eigenvalues --   -1.88577  -1.86911  -1.86430  -1.86322  -1.10475
 Alpha  occ. eigenvalues --   -1.10357  -1.06101  -1.05478  -1.04202  -1.04050
 Alpha  occ. eigenvalues --   -1.03374  -1.02203  -0.98728  -0.98433  -0.97988
 Alpha  occ. eigenvalues --   -0.97955  -0.97403  -0.97092  -0.96167  -0.95902
 Alpha  occ. eigenvalues --   -0.88679  -0.87309  -0.83356  -0.83188  -0.82943
 Alpha  occ. eigenvalues --   -0.82501  -0.82279  -0.82020  -0.81480  -0.81448
 Alpha  occ. eigenvalues --   -0.81153  -0.81100  -0.80335  -0.79826  -0.78985
 Alpha  occ. eigenvalues --   -0.78160  -0.77874  -0.77425  -0.76901  -0.76407
 Alpha  occ. eigenvalues --   -0.76198  -0.75795  -0.75068  -0.75006  -0.74548
 Alpha  occ. eigenvalues --   -0.74387  -0.72398  -0.72287  -0.71510  -0.71253
 Alpha  occ. eigenvalues --   -0.71113  -0.70889  -0.70262  -0.69806  -0.69504
 Alpha  occ. eigenvalues --   -0.69165  -0.67168  -0.67105  -0.66245  -0.65699
 Alpha  occ. eigenvalues --   -0.64204  -0.63930  -0.63092  -0.63089  -0.62157
 Alpha  occ. eigenvalues --   -0.61615  -0.61406  -0.61162  -0.59760  -0.59488
 Alpha  occ. eigenvalues --   -0.59373  -0.59136  -0.59102  -0.59026  -0.58783
 Alpha  occ. eigenvalues --   -0.58421  -0.56693  -0.55970  -0.54599  -0.54405
 Alpha  occ. eigenvalues --   -0.54250  -0.54033  -0.53835  -0.53323  -0.53219
 Alpha  occ. eigenvalues --   -0.52838  -0.52623  -0.52457  -0.51511  -0.51490
 Alpha  occ. eigenvalues --   -0.50668  -0.50578  -0.50500  -0.50159  -0.50121
 Alpha  occ. eigenvalues --   -0.49558  -0.49358  -0.49076  -0.48979  -0.48782
 Alpha  occ. eigenvalues --   -0.48493  -0.48227  -0.48213  -0.47885  -0.47572
 Alpha  occ. eigenvalues --   -0.47265  -0.47240  -0.46909  -0.46662  -0.46494
 Alpha  occ. eigenvalues --   -0.46399  -0.46205  -0.46128  -0.45906  -0.45892
 Alpha  occ. eigenvalues --   -0.45739  -0.45429  -0.45101  -0.45092  -0.44791
 Alpha  occ. eigenvalues --   -0.44717  -0.44436  -0.44390  -0.44205  -0.44027
 Alpha  occ. eigenvalues --   -0.43949  -0.43720  -0.43719  -0.43529  -0.43367
 Alpha  occ. eigenvalues --   -0.43075  -0.43046  -0.42857  -0.42618  -0.42448
 Alpha  occ. eigenvalues --   -0.42441  -0.42376  -0.42136  -0.41775  -0.41728
 Alpha  occ. eigenvalues --   -0.41551  -0.41387  -0.40981  -0.40729  -0.40560
 Alpha  occ. eigenvalues --   -0.40543  -0.40523  -0.40458  -0.40372  -0.40189
 Alpha  occ. eigenvalues --   -0.40109  -0.39997  -0.39959  -0.39880  -0.39830
 Alpha  occ. eigenvalues --   -0.39733  -0.39595  -0.39449  -0.39228  -0.39157
 Alpha  occ. eigenvalues --   -0.38842  -0.38693  -0.38614  -0.38479  -0.38253
 Alpha  occ. eigenvalues --   -0.38249  -0.38052  -0.37974  -0.37753  -0.37595
 Alpha  occ. eigenvalues --   -0.37390  -0.37184  -0.36925  -0.36887  -0.36693
 Alpha  occ. eigenvalues --   -0.36402  -0.36339  -0.36073  -0.35907  -0.35781
 Alpha  occ. eigenvalues --   -0.35753  -0.35697  -0.35591  -0.35330  -0.35293
 Alpha  occ. eigenvalues --   -0.34876  -0.34313  -0.34008  -0.33759  -0.33431
 Alpha  occ. eigenvalues --   -0.33219  -0.33063  -0.32821  -0.32738  -0.32547
 Alpha  occ. eigenvalues --   -0.32046  -0.31515  -0.31468  -0.31394  -0.31238
 Alpha  occ. eigenvalues --   -0.30717  -0.30617  -0.29961  -0.29367  -0.29358
 Alpha  occ. eigenvalues --   -0.29087  -0.28892  -0.28221  -0.26831  -0.26682
 Alpha  occ. eigenvalues --   -0.26181  -0.25799  -0.25744  -0.25719  -0.25437
 Alpha  occ. eigenvalues --   -0.25316  -0.25159  -0.24769  -0.20923  -0.20532
 Alpha  occ. eigenvalues --   -0.18680  -0.18560
 Alpha virt. eigenvalues --   -0.11010  -0.10939  -0.05930  -0.04684  -0.04305
 Alpha virt. eigenvalues --   -0.03272  -0.03074  -0.02115  -0.01736  -0.00203
 Alpha virt. eigenvalues --    0.00175   0.00841   0.00866   0.01445   0.01769

 Mulliken charges:
               1
     1  Mg  11.999965
     2  C    5.997125
     3  C    6.000786
     4  C    6.001726
     5  C    5.998826
     6  N    6.998903
     7  C    6.003846
     8  C    5.998185
     9  C    6.001652
    10  C    5.996518
    11  C    6.000093
    12  C    5.999664
    13  C    5.999982
    14  H    1.000629
    15  N    7.000532
    16  C    5.995113
    17  C    5.997858
    18  C    5.997567
    19  C    5.996503
    20  C    6.000604
    21  C    5.998001
    22  O    7.996116
    23  C    6.001139
    24  N    7.000118
    25  C    5.995947
    26  C    6.001475
    27  C    5.998850
    28  C    6.003762
    29  C    6.000137
    30  C    5.999233
    31  C    6.000263
    32  N    6.999986
    33  C    6.003973
    34  C    6.003471
    35  C    6.000189
    36  C    6.004785
    37  C    5.999958
    38  C    6.002526
    39  O    8.004399
    40  C    6.000698
    41  C    6.000021
    42  O    8.001019
    43  O    8.000229
    44  C    5.999588
    45  H    0.998758
    46  H    0.999208
    47  H    1.001226
    48  H    1.000861
    49  H    0.999332
    50  H    0.999829
    51  H    0.998812
    52  H    1.000659
    53  H    0.999955
    54  H    0.999742
    55  H    1.000755
    56  H    1.000036
    57  H    0.997710
    58  H    0.997806
    59  H    0.997546
    60  H    0.998476
    61  H    0.999136
    62  H    0.998039
    63  H    0.999812
    64  H    0.999958
    65  H    0.998866
    66  H    0.999709
    67  H    1.000597
    68  H    0.999308
    69  H    1.000955
    70  H    1.000360
    71  H    0.999862
    72  H    1.000672
    73  H    1.001891
    74  H    1.001805
    75  H    1.002679
    76  H    1.001160
    77  H    1.001428
    78  H    1.000447
    79  H    1.000644
    80  Mg  11.998094
    81  C    5.982501
    82  C    6.012223
    83  C    6.013495
    84  C    5.985217
    85  N    6.996606
    86  C    6.024287
    87  C    5.996695
    88  C    6.001727
    89  C    5.972411
    90  C    6.001200
    91  C    5.995376
    92  C    5.999173
    93  H    1.006150
    94  N    7.009473
    95  C    5.958692
    96  C    5.982195
    97  C    5.987913
    98  C    5.969009
    99  C    6.004295
   100  C    5.990673
   101  O    7.978212
   102  C    6.002586
   103  N    6.996625
   104  C    5.970591
   105  C    6.010784
   106  C    5.987995
   107  C    6.034619
   108  C    6.002997
   109  C    6.000974
   110  C    5.992282
   111  N    6.997348
   112  C    6.042147
   113  C    6.027641
   114  C    6.000765
   115  C    6.025920
   116  C    6.001714
   117  C    6.019287
   118  O    8.030451
   119  C    5.997240
   120  C    6.002644
   121  O    8.005663
   122  O    8.001542
   123  C    5.997935
   124  H    0.991069
   125  H    0.996577
   126  H    1.009226
   127  H    0.998470
   128  H    0.999554
   129  H    0.986809
   130  H    1.002190
   131  H    0.998335
   132  H    1.011634
   133  H    0.997364
   134  H    0.994438
   135  H    1.002769
   136  H    0.981923
   137  H    0.985409
   138  H    0.983595
   139  H    0.989426
   140  H    0.989139
   141  H    0.988878
   142  H    0.999363
   143  H    1.004321
   144  H    1.008130
   145  H    0.994240
   146  H    0.995573
   147  H    1.009353
   148  H    1.000122
   149  H    1.008141
   150  H    0.996187
   151  H    1.001688
   152  H    1.015756
   153  H    1.011751
   154  H    1.014600
   155  H    1.009115
   156  H    1.004330
   157  H    1.005702
   158  H    0.999458
 Sum of Mulliken charges = 624.00000

 Dipole moment (field-independent basis, Debye):
    X=              7.9591    Y=             -7.0481    Z=              1.8412  Tot=             10.7895
 Quadrupole moment (field-independent basis, Debye-Ang):
   XX=            128.0356   YY=             -6.7761   ZZ=             -0.4108
   XY=            -80.1837   XZ=              4.2318   YZ=              0.5805

 Normal termination of Gaussian 16 at Thu Oct 14 12:33:02 2021.
