 Gaussian 16, Revision A.03,
 Gaussian 16:  ES64L-G16RevA.03 25-Dec-2016

 --------------------------------------------------------
 #p PBE1PBE/Def2SVP td=(nstates=5) density=(transition=1)
 --------------------------------------------------------

 --------------------------------
 TDDFT excited states in gaussian
 --------------------------------
 Symbolic Z-matrix:
 Charge =  0 Multiplicity = 1

                         Standard orientation:
 ---------------------------------------------------------------------
 Center     Atomic      Atomic             Coordinates (Angstroms)
 Number     Number       Type             X           Y           Z
 ---------------------------------------------------------------------
      1         12           0      -28.319357    0.349994    0.363278
      2          6           0      -26.777225   -2.073115   -1.643664
      3          6           0      -27.455543    2.767429   -2.075128
      4          6           0      -29.493015    2.769693    2.436215
      5          6           0      -28.429298   -1.949554    2.936412
      6          7           0      -27.404777    0.272415   -1.654008
      7          6           0      -27.020064   -0.899098   -2.312454
      8          6           0      -26.875965   -0.602333   -3.848629
      9          6           0      -27.005531    0.924172   -3.906337
     10          6           0      -27.263503    1.376455   -2.426695
     11          6           0      -25.710909    1.555857   -4.485270
     12          6           0      -27.935669   -1.399401   -4.599433
     13          6           0      -27.639660   -1.808728   -6.032967
     14          1           0      -26.446468   -1.140583   -6.752874
     15          7           0      -28.488125    2.473789    0.243044
     16          6           0      -28.047717    3.275752   -0.826987
     17          6           0      -28.284359    4.680437   -0.543683
     18          6           0      -28.948409    4.755831    0.743556
     19          6           0      -28.981155    3.300876    1.201870
     20          6           0      -28.048603    5.816724   -1.546933
     21          6           0      -29.496429    5.944014    1.510454
     22          8           0      -30.046143    5.781005    2.591631
     23          6           0      -29.545561    7.261474    0.836921
     24          7           0      -28.944003    0.351687    2.401895
     25          6           0      -29.472006    1.461102    2.989959
     26          6           0      -30.050557    1.090969    4.380753
     27          6           0      -29.772286   -0.454720    4.533603
     28          6           0      -29.098150   -0.772868    3.173907
     29          6           0      -29.400418    1.952840    5.477847
     30          6           0      -31.039434   -1.332789    4.710932
     31          6           0      -31.188609   -1.705896    6.182615
     32          7           0      -27.652639   -1.600144    0.723966
     33          6           0      -27.683829   -2.407271    1.811879
     34          6           0      -26.857030   -3.599048    1.502302
     35          6           0      -26.577744   -3.571569    0.167312
     36          6           0      -27.050321   -2.300617   -0.248562
     37          6           0      -26.624669   -4.692748    2.531165
     38          6           0      -25.996848   -4.284589   -0.978160
     39          8           0      -25.441497   -5.376118   -1.009658
     40          6           0      -26.199110   -3.365506   -2.167341
     41          6           0      -24.881331   -3.263959   -2.814079
     42          8           0      -23.884926   -2.598585   -2.500726
     43          8           0      -24.874620   -4.143252   -3.877494
     44          6           0      -23.638196   -4.256625   -4.620145
     45          1           0      -27.245567    3.469140   -2.884768
     46          1           0      -29.947639    3.591206    2.993849
     47          1           0      -28.421560   -2.585621    3.824086
     48          1           0      -25.856612   -0.950668   -4.019354
     49          1           0      -27.757169    1.129048   -4.668618
     50          1           0      -25.119658    2.128581   -3.770570
     51          1           0      -26.037355    2.371669   -5.129616
     52          1           0      -25.048165    0.809549   -4.922900
     53          1           0      -28.838891   -0.795974   -4.504092
     54          1           0      -28.181335   -2.288733   -4.020252
     55          1           0      -28.544864   -1.678798   -6.624574
     56          1           0      -27.479103   -2.880944   -5.915013
     57          1           0      -27.532328    5.505064   -2.455112
     58          1           0      -27.448507    6.601164   -1.083874
     59          1           0      -29.002804    6.300317   -1.752715
     60          1           0      -30.238687    7.195934   -0.002128
     61          1           0      -28.542344    7.644881    0.650910
     62          1           0      -30.004581    8.022083    1.468563
     63          1           0      -31.109612    1.347728    4.373419
     64          1           0      -29.033497   -0.530726    5.332493
     65          1           0      -28.899634    1.419255    6.285166
     66          1           0      -30.299496    2.412115    5.888173
     67          1           0      -28.617344    2.623074    5.124441
     68          1           0      -30.874636   -2.322414    4.284433
     69          1           0      -31.955199   -0.860330    4.355098
     70          1           0      -32.238169   -1.500924    6.393035
     71          1           0      -30.677155   -1.032222    6.869705
     72          1           0      -30.941236   -2.738110    6.432053
     73          1           0      -26.901073   -4.436882    3.554350
     74          1           0      -25.591673   -5.037950    2.550024
     75          1           0      -27.328152   -5.501582    2.330560
     76          1           0      -26.941302   -3.826555   -2.818210
     77          1           0      -22.838096   -4.434380   -3.901118
     78          1           0      -23.393660   -3.365068   -5.197995
     79          1           0      -23.682308   -5.246117   -5.073915
     80         12           0       28.325186    0.414269   -0.680781
     81          6           0       26.310562   -2.491818   -0.264740
     82          6           0       25.550111    2.167308   -1.659840
     83          6           0       30.049647    3.395451   -0.059615
     84          6           0       30.976370   -1.282429    0.881561
     85          7           0       26.061426   -0.157590   -0.665103
     86          6           0       25.533036   -1.391723   -0.703418
     87          6           0       24.182058   -1.338681   -1.393061
     88          6           0       23.883568    0.185677   -1.793276
     89          6           0       25.361680    0.737488   -1.462734
     90          6           0       23.516997    0.243749   -3.293286
     91          6           0       23.095922   -1.919272   -0.501821
     92          6           0       23.198435   -1.616280    1.011942
     93          1           0       22.179447   -0.598668    1.593672
     94          7           0       27.892439    2.537421   -0.923279
     95          6           0       26.656516    2.991568   -1.329400
     96          6           0       26.809208    4.397543   -1.536511
     97          6           0       28.075196    4.845674   -0.997914
     98          6           0       28.783389    3.584392   -0.662642
     99          6           0       25.673417    5.280571   -1.999056
    100          6           0       28.514609    6.280054   -0.699807
    101          8           0       27.745670    7.203263   -0.886695
    102          6           0       29.807124    6.618594   -0.183882
    103          7           0       30.191516    0.999074    0.364100
    104          6           0       30.705959    2.219503    0.330870
    105          6           0       32.049276    2.327058    1.034045
    106          6           0       32.143968    0.864679    1.648936
    107          6           0       31.103504    0.115724    0.897144
    108          6           0       33.270204    2.683005    0.052770
    109          6           0       31.968046    0.912994    3.236365
    110          6           0       33.122657    0.590472    4.142106
    111          7           0       28.694377   -1.474174   -0.100354
    112          6           0       29.873812   -2.055782    0.407738
    113          6           0       29.716768   -3.515866    0.543862
    114          6           0       28.359953   -3.676600    0.263554
    115          6           0       27.706995   -2.423455   -0.006750
    116          6           0       30.800136   -4.617361    0.810292
    117          6           0       27.319759   -4.707765    0.192334
    118          8           0       27.332420   -5.939503    0.352232
    119          6           0       25.966628   -4.008404   -0.164232
    120          6           0       25.189310   -4.324492    1.066741
    121          8           0       25.506428   -4.019024    2.187687
    122          8           0       24.156528   -5.106365    0.765490
    123          6           0       23.177772   -5.484643    1.843856
    124          1           0       24.765685    2.649577   -2.246568
    125          1           0       30.725185    4.233184    0.124564
    126          1           0       31.810296   -1.683733    1.462111
    127          1           0       24.404501   -2.008728   -2.223550
    128          1           0       23.108933    0.637306   -1.172968
    129          1           0       22.513782    0.660413   -3.380754
    130          1           0       23.483769   -0.726664   -3.789230
    131          1           0       24.230006    0.932357   -3.745854
    132          1           0       23.081262   -3.004231   -0.605861
    133          1           0       22.119293   -1.523707   -0.782309
    134          1           0       24.099582   -1.118437    1.369706
    135          1           0       23.080518   -2.588783    1.490026
    136          1           0       24.744035    4.721393   -2.110062
    137          1           0       26.006897    5.801382   -2.897291
    138          1           0       25.579445    6.090022   -1.275985
    139          1           0       30.026875    6.238945    0.814185
    140          1           0       29.901659    7.703203   -0.134650
    141          1           0       30.480605    6.142648   -0.897446
    142          1           0       32.048442    2.997040    1.893453
    143          1           0       33.201512    0.645022    1.501370
    144          1           0       32.888998    2.853172   -0.954543
    145          1           0       33.918765    1.807463    0.017319
    146          1           0       33.909414    3.510529    0.364373
    147          1           0       31.264387    0.154054    3.578574
    148          1           0       31.601053    1.886337    3.559071
    149          1           0       33.085937   -0.414017    4.563790
    150          1           0       32.951466    1.334831    4.920443
    151          1           0       34.100023    0.891219    3.764373
    152          1           0       31.063410   -4.572069    1.866696
    153          1           0       31.626260   -4.424575    0.125660
    154          1           0       30.342213   -5.593512    0.651520
    155          1           0       25.625572   -4.472170   -1.090543
    156          1           0       23.497822   -6.353409    2.419558
    157          1           0       22.196451   -5.709108    1.423878
    158          1           0       23.099399   -4.595129    2.468909
 ---------------------------------------------------------------------

 SCF Done:  E(RPBE1PBE) =  -4067.33349259     A.U. after   16 cycles

 Excitation energies and oscillator strengths:

 Excited State   1:      Singlet-A      1.8263 eV  678.86 nm  f=0.3765  <S**2>=0.000
     310 -> 316        0.16169
     312 -> 314        0.69457
     312 <- 314       -0.11150
 This state for optimization and/or second-order correction.
 Total Energy, E(TD-HF/TD-DFT) =  -4067.26637549
 Copying the excited state density for this state as the 1-particle RhoCI density.

 Excited State   2:      Singlet-A      1.8532 eV  669.02 nm  f=0.3488  <S**2>=0.000
     309 -> 315        0.19395
     311 -> 313        0.68724

 Excited State   3:      Singlet-A      1.9253 eV  643.98 nm  f=0.0000  <S**2>=0.000
     312 -> 313        0.70711

 Excited State   4:      Singlet-A      2.0768 eV  597.00 nm  f=0.0000  <S**2>=0.000
     311 -> 314        0.70711

 Excited State   5:      Singlet-A      2.2008 eV  563.37 nm  f=0.1155  <S**2>=0.000
     310 -> 314        0.65564
     312 -> 316       -0.24478

 The electronic state is 1-A.
 Alpha  occ. eigenvalues --  -46.93577 -46.92520 -19.25695 -19.25164 -19.20077
 Alpha  occ. eigenvalues --  -19.19645 -19.19229 -19.19125 -19.19068 -19.18252
 Alpha  occ. eigenvalues --  -14.41920 -14.41719 -14.41455 -14.41265 -14.39838
 Alpha  occ. eigenvalues --  -14.39693 -14.39189 -14.38937 -10.36422 -10.35727
 Alpha  occ. eigenvalues --  -10.32669 -10.32405 -10.32179 -10.31403 -10.29765
 Alpha  occ. eigenvalues --  -10.29659 -10.29582 -10.29136 -10.28836 -10.28792
 Alpha  occ. eigenvalues --  -10.28648 -10.28552 -10.28546 -10.28528 -10.28500
 Alpha  occ. eigenvalues --  -10.28349 -10.28226 -10.28012 -10.27704 -10.27466
 Alpha  occ. eigenvalues --  -10.27358 -10.26972 -10.26707 -10.26567 -10.26555
 Alpha  occ. eigenvalues --  -10.26533 -10.26507 -10.26089 -10.26028 -10.26012
 Alpha  occ. eigenvalues --  -10.25878 -10.25807 -10.25752 -10.25696 -10.25677
 Alpha  occ. eigenvalues --  -10.25651 -10.25585 -10.25550 -10.25545 -10.25517
 Alpha  occ. eigenvalues --  -10.25509 -10.25371 -10.25229 -10.25082 -10.24878
 Alpha  occ. eigenvalues --  -10.24719 -10.24557 -10.24433 -10.24397 -10.24309
 Alpha  occ. eigenvalues --  -10.24224 -10.24159 -10.24087 -10.23980 -10.23864
 Alpha  occ. eigenvalues --  -10.23647 -10.23622 -10.23553 -10.23071 -10.22977
 Alpha  occ. eigenvalues --  -10.22965 -10.22919 -10.22742 -10.22684 -10.22479
 Alpha  occ. eigenvalues --  -10.22462  -3.15471  -3.14501  -1.88272  -1.87875
 Alpha  occ. eigenvalues --   -1.87670  -1.87355  -1.86833  -1.86755  -1.11818
 Alpha  occ. eigenvalues --   -1.10602  -1.05003  -1.04924  -1.04864  -1.03567
 Alpha  occ. eigenvalues --   -1.02510  -1.01722  -0.99209  -0.99164  -0.98270
 Alpha  occ. eigenvalues --   -0.97401  -0.97213  -0.97080  -0.96219  -0.96181
 Alpha  occ. eigenvalues --   -0.87829  -0.86300  -0.83528  -0.83246  -0.83082
 Alpha  occ. eigenvalues --   -0.83044  -0.82556  -0.82212  -0.81462  -0.81398
 Alpha  occ. eigenvalues --   -0.81068  -0.80475  -0.79960  -0.79607  -0.78906
 Alpha  occ. eigenvalues --   -0.78598  -0.78330  -0.78147  -0.77077  -0.77037
 Alpha  occ. eigenvalues --   -0.76828  -0.76439  -0.75424  -0.75265  -0.74597
 Alpha  occ. eigenvalues --   -0.74387  -0.72262  -0.72234  -0.71632  -0.71623
 Alpha  occ. eigenvalues --   -0.71131  -0.70689  -0.70553  -0.70299  -0.69296
 Alpha  occ. eigenvalues --   -0.68908  -0.67299  -0.67024  -0.66178  -0.65459
 Alpha  occ. eigenvalues --   -0.63482  -0.63222  -0.62925  -0.62888  -0.62529
 Alpha  occ. eigenvalues --   -0.62354  -0.61434  -0.61133  -0.60006  -0.59806
 Alpha  occ. eigenvalues --   -0.59615  -0.59332  -0.59322  -0.59178  -0.58564
 Alpha  occ. eigenvalues --   -0.58473  -0.57000  -0.56756  -0.54844  -0.54574
 Alpha  occ. eigenvalues --   -0.54248  -0.53848  -0.53592  -0.53590  -0.53338
 Alpha  occ. eigenvalues --   -0.53074  -0.53009  -0.52395  -0.52265  -0.51831
 Alpha  occ. eigenvalues --   -0.50741  -0.50534  -0.50356  -0.50315  -0.49654
 Alpha  occ. eigenvalues --   -0.49593  -0.49474  -0.49319  -0.49104  -0.48455
 Alpha  occ. eigenvalues --   -0.48180  -0.48080  -0.48029  -0.47878  -0.47737
 Alpha  occ. eigenvalues --   -0.47687  -0.47527  -0.47458  -0.47199  -0.46924
 Alpha  occ. eigenvalues --   -0.46659  -0.46534  -0.46407  -0.46374  -0.46075
 Alpha  occ. eigenvalues --   -0.46023  -0.45418  -0.45209  -0.44831  -0.44803
 Alpha  occ. eigenvalues --   -0.44356  -0.44339  -0.44275  -0.44155  -0.44030
 Alpha  occ. eigenvalues --   -0.44020  -0.43802  -0.43783  -0.43663  -0.43519
 Alpha  occ. eigenvalues --   -0.43270  -0.43118  -0.42914  -0.42876  -0.42503
 Alpha  occ. eigenvalues --   -0.42445  -0.42080  -0.41957  -0.41710  -0.41631
 Alpha  occ. eigenvalues --   -0.41606  -0.41475  -0.41325  -0.41076  -0.41031
 Alpha  occ. eigenvalues --   -0.40823  -0.40585  -0.40525  -0.40283  -0.40083
 Alpha  occ. eigenvalues --   -0.39991  -0.39921  -0.39808  -0.39699  -0.39560
 Alpha  occ. eigenvalues --   -0.39484  -0.39240  -0.39167  -0.39134  -0.39042
 Alpha  occ. eigenvalues --   -0.38758  -0.38568  -0.38419  -0.38346  -0.38180
 Alpha  occ. eigenvalues --   -0.37980  -0.37958  -0.37824  -0.37743  -0.37679
 Alpha  occ. eigenvalues --   -0.37346  -0.37273  -0.37253  -0.36875  -0.36752
 Alpha  occ. eigenvalues --   -0.36387  -0.36337  -0.36211  -0.36161  -0.36115
 Alpha  occ. eigenvalues --   -0.35853  -0.35712  -0.35253  -0.35005  -0.34956
 Alpha  occ. eigenvalues --   -0.34827  -0.34728  -0.33886  -0.33649  -0.33469
 Alpha  occ. eigenvalues --   -0.32992  -0.32951  -0.32925  -0.32766  -0.32403
 Alpha  occ. eigenvalues --   -0.32094  -0.31768  -0.31571  -0.31411  -0.31267
 Alpha  occ. eigenvalues --   -0.30909  -0.30706  -0.29387  -0.29273  -0.29124
 Alpha  occ. eigenvalues --   -0.29094  -0.28828  -0.28252  -0.27014  -0.26926
 Alpha  occ. eigenvalues --   -0.26442  -0.26150  -0.26016  -0.25938  -0.25542
 Alpha  occ. eigenvalues --   -0.25528  -0.25367  -0.24483  -0.21223  -0.20730
 Alpha  occ. eigenvalues --   -0.18983  -0.18576
 Alpha virt. eigenvalues --   -0.11265  -0.11116  -0.05926  -0.05051  -0.04038
 Alpha virt. eigenvalues --   -0.03964  -0.02439  -0.02065  -0.01663  -0.00429
 Alpha virt. eigenvalues --    0.00417   0.00566   0.00968   0.01082   0.01486

 Mulliken charges:
               1
     1  Mg  12.000304
     2  C    5.977021
     3  C    6.003375
     4  C    6.022432
     5  C    5.994860
     6  N    6.985781
     7  C    6.033246
     8  C    5.994787
     9  C    6.011224
    10  C    5.970425
    11  C    6.001826
    12  C    5.995825
    13  C    6.000204
    14  H    1.006408
    15  N    7.004584
    16  C    5.964053
    17  C    5.981532
    18  C    5.982711
    19  C    5.971817
    20  C    6.002314
    21  C    5.985554
    22  O    7.969520
    23  C    6.007583
    24  N    7.006404
    25  C    5.968557
    26  C    6.006932
    27  C    5.988945
    28  C    6.027253
    29  C    6.002264
    30  C    5.995725
    31  C    5.998498
    32  N    6.998859
    33  C    6.033616
    34  C    6.030497
    35  C    6.000417
    36  C    6.033638
    37  C    5.996999
    38  C    6.019383
    39  O    8.026485
    40  C    6.000293
    41  C    6.003215
    42  O    8.007869
    43  O    8.000620
    44  C    5.998788
    45  H    0.986920
    46  H    0.997941
    47  H    1.010865
    48  H    0.997103
    49  H    0.993826
    50  H    1.001129
    51  H    1.000750
    52  H    0.987147
    53  H    1.009107
    54  H    0.992449
    55  H    1.003033
    56  H    0.995661
    57  H    0.984350
    58  H    0.983307
    59  H    0.983602
    60  H    0.992631
    61  H    0.992420
    62  H    0.985321
    63  H    1.001911
    64  H    1.003573
    65  H    0.991875
    66  H    1.000223
    67  H    1.005195
    68  H    0.995534
    69  H    1.009258
    70  H    1.005445
    71  H    1.005281
    72  H    0.998812
    73  H    1.017331
    74  H    1.017730
    75  H    1.020287
    76  H    1.007381
    77  H    1.000641
    78  H    1.006690
    79  H    1.002630
    80  Mg  12.000034
    81  C    5.999985
    82  C    5.999924
    83  C    6.000013
    84  C    6.000060
    85  N    6.999997
    86  C    5.999890
    87  C    5.999996
    88  C    5.999928
    89  C    6.000201
    90  C    5.999992
    91  C    6.000018
    92  C    6.000042
    93  H    0.999922
    94  N    6.999984
    95  C    6.000182
    96  C    6.000083
    97  C    6.000071
    98  C    6.000159
    99  C    5.999975
   100  C    6.000094
   101  O    8.000123
   102  C    5.999973
   103  N    7.000053
   104  C    6.000086
   105  C    5.999934
   106  C    6.000060
   107  C    5.999839
   108  C    5.999982
   109  C    6.000008
   110  C    6.000001
   111  N    6.999999
   112  C    5.999811
   113  C    5.999835
   114  C    6.000028
   115  C    5.999874
   116  C    5.999969
   117  C    5.999872
   118  O    7.999783
   119  C    6.000008
   120  C    5.999956
   121  O    7.999986
   122  O    7.999990
   123  C    6.000022
   124  H    1.000044
   125  H    1.000074
   126  H    0.999947
   127  H    1.000022
   128  H    1.000032
   129  H    1.000023
   130  H    1.000053
   131  H    0.999986
   132  H    1.000014
   133  H    0.999941
   134  H    1.000013
   135  H    1.000006
   136  H    1.000116
   137  H    1.000133
   138  H    1.000113
   139  H    1.000067
   140  H    1.000101
   141  H    1.000040
   142  H    1.000021
   143  H    0.999980
   144  H    0.999982
   145  H    1.000073
   146  H    1.000025
   147  H    1.000018
   148  H    0.999928
   149  H    1.000009
   150  H    0.999977
   151  H    0.999983
   152  H    0.999896
   153  H    0.999914
   154  H    0.999922
   155  H    0.999922
   156  H    0.999971
   157  H    0.999936
   158  H    0.999976
 Sum of Mulliken charges = 624.00000

 Dipole moment (field-independent basis, Debye):
    X=              1.8772    Y=            -10.1418    Z=              1.5313  Tot=             10.4272
 Quadrupole moment (field-independent basis, Debye-Ang):
   XX=           -103.4047   YY=            -12.5548   ZZ=              3.6729
   XY=            285.7044   XZ=            -43.5199   YZ=             -3.8012

 Normal termination of Gaussian 16 at Fri Oct 15 00:57:43 2021.
