 Gaussian 16, Revision A.03,
 Gaussian 16:  ES64L-G16RevA.03 25-Dec-2016

 --------------------------------------------------------
 #p PBE1PBE/Def2SVP td=(nstates=5) density=(transition=1)
 --------------------------------------------------------

 --------------------------------
 TDDFT excited states in gaussian
 --------------------------------
 Symbolic Z-matrix:
 Charge =  0 Multiplicity = 1

                         Standard orientation:
 ---------------------------------------------------------------------
 Center     Atomic      Atomic             Coordinates (Angstroms)
 Number     Number       Type             X           Y           Z
 ---------------------------------------------------------------------
      1         12           0      -13.164533   -0.734595    0.278767
      2          6           0      -13.746897    2.434735   -1.081062
      3          6           0      -12.584184    0.882310    3.293201
      4          6           0      -12.205247   -3.611614    1.450861
      5          6           0      -13.583881   -2.097145   -2.963343
      6          7           0      -12.770272    1.495928    0.942231
      7          6           0      -13.230139    2.545492    0.253494
      8          6           0      -13.109331    3.749868    1.126154
      9          6           0      -12.317978    3.270093    2.367583
     10          6           0      -12.580195    1.782547    2.240084
     11          6           0      -10.833570    3.613215    2.504561
     12          6           0      -14.505683    4.330371    1.516126
     13          6           0      -14.765477    5.861599    1.341689
     14          1           0      -13.570815    6.856409    1.477838
     15          7           0      -12.616396   -1.325591    2.200752
     16          6           0      -12.632197   -0.506190    3.321687
     17          6           0      -12.333674   -1.341754    4.438959
     18          6           0      -12.081504   -2.674103    3.918571
     19          6           0      -12.300806   -2.612527    2.481212
     20          6           0      -12.178672   -0.842123    5.892039
     21          6           0      -11.599575   -3.956786    4.655451
     22          8           0      -11.403004   -5.004495    4.126226
     23          6           0      -11.442996   -3.839193    6.158795
     24          7           0      -12.953861   -2.561772   -0.651697
     25          6           0      -12.468624   -3.607935    0.053618
     26          6           0      -12.340919   -4.918848   -0.770259
     27          6           0      -13.049328   -4.463144   -2.117632
     28          6           0      -13.246873   -2.963873   -1.927887
     29          6           0      -10.773327   -5.369085   -0.899000
     30          6           0      -14.314612   -5.303495   -2.477729
     31          6           0      -15.673413   -4.732304   -2.113934
     32          7           0      -13.622376   -0.046511   -1.681935
     33          6           0      -13.842518   -0.718416   -2.853958
     34          6           0      -14.224903    0.288189   -3.905553
     35          6           0      -14.195204    1.529557   -3.230768
     36          6           0      -13.782295    1.305588   -1.875647
     37          6           0      -14.402133    0.056955   -5.381668
     38          6           0      -14.395115    2.968949   -3.379922
     39          8           0      -14.713544    3.589778   -4.398131
     40          6           0      -14.270438    3.549600   -1.974448
     41          6           0      -13.311133    4.699076   -2.093223
     42          8           0      -12.100436    4.597327   -2.169850
     43          8           0      -14.058523    5.773194   -2.287413
     44          6           0      -13.426260    6.960394   -2.840885
     45          1           0      -12.261763    1.392044    4.202999
     46          1           0      -12.063442   -4.613570    1.860502
     47          1           0      -13.727803   -2.520834   -3.959762
     48          1           0      -12.570788    4.522568    0.578431
     49          1           0      -12.785821    3.753332    3.225414
     50          1           0      -10.405393    4.234782    1.717963
     51          1           0      -10.239913    2.700597    2.564407
     52          1           0      -10.734969    4.144082    3.451170
     53          1           0      -14.837241    4.034720    2.511276
     54          1           0      -15.124114    3.771461    0.813935
     55          1           0      -15.489845    6.084183    2.126189
     56          1           0      -15.224632    6.026217    0.367252
     57          1           0      -11.235801   -1.139027    6.351429
     58          1           0      -12.903994   -1.298162    6.566040
     59          1           0      -12.291501    0.235994    6.013629
     60          1           0      -12.326832   -3.425758    6.645041
     61          1           0      -10.542159   -3.258475    6.357581
     62          1           0      -11.164543   -4.802170    6.586820
     63          1           0      -12.877324   -5.751982   -0.316435
     64          1           0      -12.427730   -4.616800   -2.999622
     65          1           0      -10.520597   -5.166512   -1.939852
     66          1           0      -10.621643   -6.445093   -0.810731
     67          1           0      -10.086168   -4.763542   -0.306963
     68          1           0      -14.227625   -6.185452   -1.843000
     69          1           0      -14.317678   -5.629645   -3.517586
     70          1           0      -15.532107   -4.341632   -1.105473
     71          1           0      -16.295877   -5.625661   -2.158713
     72          1           0      -16.086233   -3.882539   -2.657001
     73          1           0      -14.172880   -0.928086   -5.788279
     74          1           0      -13.767638    0.752681   -5.930926
     75          1           0      -15.425188    0.365787   -5.594010
     76          1           0      -15.167248    4.046538   -1.603946
     77          1           0      -12.389736    6.922445   -3.174437
     78          1           0      -13.418690    7.641511   -1.989377
     79          1           0      -14.180647    7.517988   -3.396080
     80         12           0       12.682190   -0.621714   -0.480302
     81          6           0       14.793076    2.121488   -0.122236
     82          6           0       10.101217    1.187843    0.709449
     83          6           0       10.837420   -3.453798   -0.440246
     84          6           0       15.461432   -2.524628   -1.218220
     85          7           0       12.509547    1.467358    0.238955
     86          6           0       13.454942    2.450257    0.091674
     87          6           0       12.896869    3.765755    0.482481
     88          6           0       11.418597    3.530429    0.813691
     89          6           0       11.264805    1.967303    0.570945
     90          6           0       10.878460    4.008657    2.152518
     91          6           0       13.149590    4.889066   -0.675277
     92          6           0       14.014194    6.117798   -0.307938
     93          1           0       13.650835    7.495878   -0.803685
     94          7           0       10.716227   -1.050392   -0.059040
     95          6           0        9.781938   -0.158745    0.446244
     96          6           0        8.557507   -0.834370    0.678931
     97          6           0        8.742411   -2.205621    0.354149
     98          6           0       10.137755   -2.281398   -0.090712
     99          6           0        7.297550    0.021169    1.094865
    100          6           0        7.697233   -3.304427    0.538806
    101          8           0        7.881445   -4.513061    0.329807
    102          6           0        6.327798   -2.945013    0.916957
    103          7           0       13.085891   -2.764877   -0.540610
    104          6           0       12.172459   -3.710223   -0.620648
    105          6           0       12.827550   -5.106627   -0.715715
    106          6           0       14.160771   -4.661713   -1.436410
    107          6           0       14.251556   -3.184740   -1.066059
    108          6           0       13.150319   -5.933397    0.583723
    109          6           0       14.239120   -4.882185   -3.022815
    110          6           0       13.235507   -4.211974   -3.868774
    111          7           0       14.809661   -0.358356   -0.621803
    112          6           0       15.844806   -1.253242   -0.956539
    113          6           0       17.093081   -0.559451   -0.941173
    114          6           0       16.768069    0.728204   -0.563626
    115          6           0       15.340078    0.824101   -0.484558
    116          6           0       18.412321   -1.157934   -1.005330
    117          6           0       17.276587    2.014449   -0.461633
    118          8           0       18.426974    2.453856   -0.559458
    119          6           0       16.070723    2.986664   -0.074780
    120          6           0       16.329834    3.396490    1.337297
    121          8           0       16.444735    2.751469    2.358318
    122          8           0       16.460154    4.723530    1.292039
    123          6           0       16.700443    5.405840    2.605664
    124          1           0        9.311979    1.921981    0.884230
    125          1           0       10.168031   -4.307106   -0.562039
    126          1           0       16.321980   -3.126032   -1.517893
    127          1           0       13.451116    4.046360    1.377262
    128          1           0       10.806219    4.001646    0.045212
    129          1           0       11.007165    3.061811    2.675615
    130          1           0        9.868935    4.419782    2.136631
    131          1           0       11.423535    4.765002    2.716607
    132          1           0       12.183544    5.225455   -1.050544
    133          1           0       13.722257    4.519000   -1.526063
    134          1           0       14.987044    5.946426   -0.769601
    135          1           0       14.230768    6.161726    0.758599
    136          1           0        6.865601   -0.418080    1.993877
    137          1           0        6.677566   -0.239981    0.237153
    138          1           0        7.447134    1.065477    1.369172
    139          1           0        6.313065   -2.391216    1.854652
    140          1           0        5.863572   -3.874941    1.244474
    141          1           0        5.730419   -2.489586    0.126713
    142          1           0       12.312297   -5.670803   -1.493223
    143          1           0       14.919379   -5.297032   -0.979882
    144          1           0       13.531315   -5.359438    1.427566
    145          1           0       13.872707   -6.663992    0.217961
    146          1           0       12.259169   -6.447436    0.944856
    147          1           0       14.150930   -5.928152   -3.317565
    148          1           0       15.112709   -4.386676   -3.446288
    149          1           0       13.629571   -3.200970   -3.962176
    150          1           0       12.211641   -4.114164   -3.506614
    151          1           0       13.100096   -4.562575   -4.891400
    152          1           0       18.594933   -1.481490    0.020091
    153          1           0       19.215890   -0.490554   -1.315411
    154          1           0       18.492437   -1.952975   -1.747484
    155          1           0       15.941287    3.814559   -0.771954
    156          1           0       15.749278    5.886301    2.835980
    157          1           0       17.529915    6.106032    2.509251
    158          1           0       16.917300    4.773598    3.467137
 ---------------------------------------------------------------------

 SCF Done:  E(RPBE1PBE) =  -4067.35243822     A.U. after   16 cycles

 Excitation energies and oscillator strengths:

 Excited State   1:      Singlet-A      1.8586 eV  667.07 nm  f=0.3562  <S**2>=0.000
     309 -> 315        0.16346
     311 -> 313        0.69079
     311 <- 313       -0.10735
 This state for optimization and/or second-order correction.
 Total Energy, E(TD-HF/TD-DFT) =  -4067.28413409
 Copying the excited state density for this state as the 1-particle RhoCI density.

 Excited State   2:      Singlet-A      1.8589 eV  666.97 nm  f=0.0000  <S**2>=0.000
     312 -> 313        0.70710

 Excited State   3:      Singlet-A      1.8765 eV  660.72 nm  f=0.3812  <S**2>=0.000
     310 -> 316       -0.18187
     312 -> 314        0.68895
     312 <- 314       -0.10303

 Excited State   4:      Singlet-A      2.0454 eV  606.16 nm  f=0.0000  <S**2>=0.000
     311 -> 314        0.70710

 Excited State   5:      Singlet-A      2.1771 eV  569.49 nm  f=0.1388  <S**2>=0.000
     309 -> 313        0.66015
     311 -> 315       -0.23482

 The electronic state is 1-A.
 Alpha  occ. eigenvalues --  -46.92712 -46.92230 -19.26865 -19.25672 -19.19811
 Alpha  occ. eigenvalues --  -19.19443 -19.19289 -19.19033 -19.18874 -19.18452
 Alpha  occ. eigenvalues --  -14.41617 -14.41439 -14.41200 -14.41035 -14.39360
 Alpha  occ. eigenvalues --  -14.38929 -14.38593 -14.38583 -10.36087 -10.35591
 Alpha  occ. eigenvalues --  -10.32449 -10.32181 -10.31840 -10.31260 -10.29271
 Alpha  occ. eigenvalues --  -10.29191 -10.28921 -10.28891 -10.28890 -10.28728
 Alpha  occ. eigenvalues --  -10.28716 -10.28346 -10.28157 -10.27990 -10.27813
 Alpha  occ. eigenvalues --  -10.27670 -10.27502 -10.27493 -10.27000 -10.26998
 Alpha  occ. eigenvalues --  -10.26880 -10.26808 -10.26776 -10.26605 -10.26411
 Alpha  occ. eigenvalues --  -10.26358 -10.26353 -10.26334 -10.26049 -10.25921
 Alpha  occ. eigenvalues --  -10.25808 -10.25793 -10.25792 -10.25657 -10.25606
 Alpha  occ. eigenvalues --  -10.25522 -10.25448 -10.25321 -10.25239 -10.25113
 Alpha  occ. eigenvalues --  -10.24989 -10.24937 -10.24897 -10.24888 -10.24768
 Alpha  occ. eigenvalues --  -10.24374 -10.24367 -10.24338 -10.24286 -10.23991
 Alpha  occ. eigenvalues --  -10.23990 -10.23959 -10.23946 -10.23824 -10.23804
 Alpha  occ. eigenvalues --  -10.23729 -10.23580 -10.23386 -10.23353 -10.23339
 Alpha  occ. eigenvalues --  -10.22967 -10.22846 -10.22681 -10.22498 -10.22320
 Alpha  occ. eigenvalues --  -10.22100  -3.14705  -3.14270  -1.87548  -1.87119
 Alpha  occ. eigenvalues --   -1.87057  -1.86944  -1.86679  -1.86453  -1.13081
 Alpha  occ. eigenvalues --   -1.11765  -1.06339  -1.04171  -1.03825  -1.03409
 Alpha  occ. eigenvalues --   -1.03279  -1.02157  -1.00013  -0.99653  -0.98908
 Alpha  occ. eigenvalues --   -0.98446  -0.98037  -0.97296  -0.97229  -0.96738
 Alpha  occ. eigenvalues --   -0.87622  -0.86539  -0.83499  -0.83067  -0.83022
 Alpha  occ. eigenvalues --   -0.82918  -0.82675  -0.82456  -0.82247  -0.81924
 Alpha  occ. eigenvalues --   -0.81474  -0.81135  -0.80481  -0.79909  -0.78925
 Alpha  occ. eigenvalues --   -0.78800  -0.78520  -0.78042  -0.77348  -0.76925
 Alpha  occ. eigenvalues --   -0.76220  -0.75817  -0.75794  -0.75161  -0.75063
 Alpha  occ. eigenvalues --   -0.74350  -0.73060  -0.72288  -0.71955  -0.71692
 Alpha  occ. eigenvalues --   -0.71662  -0.71387  -0.70647  -0.70281  -0.69678
 Alpha  occ. eigenvalues --   -0.69553  -0.67903  -0.67134  -0.66242  -0.66124
 Alpha  occ. eigenvalues --   -0.63914  -0.63758  -0.63456  -0.63364  -0.62434
 Alpha  occ. eigenvalues --   -0.62147  -0.61556  -0.60672  -0.60252  -0.59896
 Alpha  occ. eigenvalues --   -0.59777  -0.59495  -0.59309  -0.59227  -0.58925
 Alpha  occ. eigenvalues --   -0.58471  -0.57356  -0.56605  -0.54987  -0.54471
 Alpha  occ. eigenvalues --   -0.54455  -0.54248  -0.53863  -0.53817  -0.53240
 Alpha  occ. eigenvalues --   -0.53156  -0.52804  -0.52432  -0.52360  -0.51919
 Alpha  occ. eigenvalues --   -0.51444  -0.51018  -0.50632  -0.50238  -0.50074
 Alpha  occ. eigenvalues --   -0.49604  -0.49536  -0.49429  -0.49332  -0.49259
 Alpha  occ. eigenvalues --   -0.49177  -0.48205  -0.47893  -0.47885  -0.47795
 Alpha  occ. eigenvalues --   -0.47508  -0.47420  -0.47262  -0.47256  -0.46712
 Alpha  occ. eigenvalues --   -0.46567  -0.46471  -0.46325  -0.45965  -0.45834
 Alpha  occ. eigenvalues --   -0.45801  -0.45669  -0.45549  -0.44959  -0.44711
 Alpha  occ. eigenvalues --   -0.44401  -0.44333  -0.44304  -0.44102  -0.44011
 Alpha  occ. eigenvalues --   -0.43835  -0.43809  -0.43581  -0.43522  -0.43329
 Alpha  occ. eigenvalues --   -0.43134  -0.43124  -0.42955  -0.42878  -0.42706
 Alpha  occ. eigenvalues --   -0.42697  -0.41977  -0.41957  -0.41752  -0.41604
 Alpha  occ. eigenvalues --   -0.41513  -0.41381  -0.41189  -0.40958  -0.40904
 Alpha  occ. eigenvalues --   -0.40751  -0.40733  -0.40668  -0.40510  -0.40435
 Alpha  occ. eigenvalues --   -0.40318  -0.40055  -0.39989  -0.39735  -0.39622
 Alpha  occ. eigenvalues --   -0.39391  -0.39236  -0.39120  -0.38988  -0.38834
 Alpha  occ. eigenvalues --   -0.38531  -0.38514  -0.38177  -0.38159  -0.38091
 Alpha  occ. eigenvalues --   -0.38026  -0.37978  -0.37763  -0.37743  -0.37601
 Alpha  occ. eigenvalues --   -0.37282  -0.37076  -0.37003  -0.36924  -0.36734
 Alpha  occ. eigenvalues --   -0.36697  -0.36564  -0.36405  -0.36146  -0.36040
 Alpha  occ. eigenvalues --   -0.35933  -0.35773  -0.35610  -0.35562  -0.35200
 Alpha  occ. eigenvalues --   -0.35079  -0.34597  -0.34357  -0.34324  -0.33861
 Alpha  occ. eigenvalues --   -0.33317  -0.33039  -0.33025  -0.32667  -0.32231
 Alpha  occ. eigenvalues --   -0.32185  -0.32022  -0.31782  -0.31372  -0.31358
 Alpha  occ. eigenvalues --   -0.31244  -0.31157  -0.29661  -0.29502  -0.29181
 Alpha  occ. eigenvalues --   -0.29155  -0.28967  -0.28584  -0.27088  -0.26534
 Alpha  occ. eigenvalues --   -0.26152  -0.26068  -0.25768  -0.25705  -0.25459
 Alpha  occ. eigenvalues --   -0.25420  -0.25220  -0.24788  -0.20949  -0.20769
 Alpha  occ. eigenvalues --   -0.19056  -0.18758
 Alpha virt. eigenvalues --   -0.11417  -0.11033  -0.05142  -0.05060  -0.03996
 Alpha virt. eigenvalues --   -0.03896  -0.02104  -0.01666  -0.00580  -0.00037
 Alpha virt. eigenvalues --    0.01026   0.01053   0.01165   0.01448   0.01941

 Mulliken charges:
               1
     1  Mg  12.000150
     2  C    6.000525
     3  C    5.998828
     4  C    5.999504
     5  C    6.001395
     6  N    6.999687
     7  C    5.998288
     8  C    6.000374
     9  C    5.999263
    10  C    6.002759
    11  C    5.999964
    12  C    6.000194
    13  C    6.000118
    14  H    0.999748
    15  N    6.999481
    16  C    6.002979
    17  C    6.000997
    18  C    6.001311
    19  C    6.002013
    20  C    5.999868
    21  C    6.001154
    22  O    8.001780
    23  C    5.999498
    24  N    7.000476
    25  C    6.002175
    26  C    5.999191
    27  C    6.000730
    28  C    5.997649
    29  C    5.999557
    30  C    6.000124
    31  C    6.000468
    32  N    7.000178
    33  C    5.997260
    34  C    5.997812
    35  C    5.999735
    36  C    5.998073
    37  C    6.000139
    38  C    5.998758
    39  O    7.997678
    40  C    6.000267
    41  C    5.999597
    42  O    7.999683
    43  O    7.999871
    44  C    6.000367
    45  H    1.000743
    46  H    1.000511
    47  H    0.999474
    48  H    0.999989
    49  H    1.000030
    50  H    1.001047
    51  H    1.000034
    52  H    1.000149
    53  H    0.998975
    54  H    1.000340
    55  H    0.999516
    56  H    1.000244
    57  H    1.001349
    58  H    1.001004
    59  H    1.001148
    60  H    1.000215
    61  H    1.000887
    62  H    1.001016
    63  H    0.999936
    64  H    1.000000
    65  H    1.000969
    66  H    1.000264
    67  H    1.000167
    68  H    0.999239
    69  H    0.999895
    70  H    0.999353
    71  H    0.999472
    72  H    1.000442
    73  H    0.998621
    74  H    0.998832
    75  H    0.998575
    76  H    0.999074
    77  H    0.999861
    78  H    0.999432
    79  H    0.999529
    80  Mg  11.996979
    81  C    5.970153
    82  C    5.997297
    83  C    6.029868
    84  C    6.016979
    85  N    6.979512
    86  C    6.031896
    87  C    5.989630
    88  C    6.004455
    89  C    5.977886
    90  C    6.002313
    91  C    5.998415
    92  C    5.999858
    93  H    1.002795
    94  N    7.006058
    95  C    5.967511
    96  C    5.981546
    97  C    5.987093
    98  C    5.966170
    99  C    5.999408
   100  C    5.988273
   101  O    7.971934
   102  C    6.007762
   103  N    7.022824
   104  C    5.962600
   105  C    6.008878
   106  C    5.991051
   107  C    6.018966
   108  C    5.998886
   109  C    5.991194
   110  C    6.000903
   111  N    6.995962
   112  C    6.025702
   113  C    6.029146
   114  C    6.004761
   115  C    6.027702
   116  C    5.997132
   117  C    6.011992
   118  O    8.033039
   119  C    6.001544
   120  C    6.003885
   121  O    8.002326
   122  O    8.001101
   123  C    5.998297
   124  H    0.985557
   125  H    0.999451
   126  H    1.014900
   127  H    0.998504
   128  H    0.996928
   129  H    1.000578
   130  H    0.998308
   131  H    0.987085
   132  H    1.006290
   133  H    0.995107
   134  H    0.994333
   135  H    1.000012
   136  H    0.983885
   137  H    0.986032
   138  H    0.986631
   139  H    0.995219
   140  H    0.987110
   141  H    0.991746
   142  H    1.002215
   143  H    1.005014
   144  H    0.996638
   145  H    0.994034
   146  H    1.006284
   147  H    1.010230
   148  H    0.996888
   149  H    0.994001
   150  H    1.015158
   151  H    1.004663
   152  H    1.019123
   153  H    1.014957
   154  H    1.014993
   155  H    1.006843
   156  H    1.006373
   157  H    1.001412
   158  H    1.001812
 Sum of Mulliken charges = 624.00000

 Dipole moment (field-independent basis, Debye):
    X=              9.9562    Y=             -0.2242    Z=             -1.3756  Tot=             10.0533
 Quadrupole moment (field-independent basis, Debye-Ang):
   XX=            242.5827   YY=              0.6011   ZZ=              1.7313
   XY=             -1.3093   XZ=            -35.5495   YZ=              2.3013

 Normal termination of Gaussian 16 at Fri Oct 15 17:47:17 2021.
