 Gaussian 16, Revision A.03,
 Gaussian 16:  ES64L-G16RevA.03 25-Dec-2016

 --------------------------------------------------------
 #p PBE1PBE/Def2SVP td=(nstates=5) density=(transition=1)
 --------------------------------------------------------

 --------------------------------
 TDDFT excited states in gaussian
 --------------------------------
 Symbolic Z-matrix:
 Charge =  0 Multiplicity = 1

                         Standard orientation:
 ---------------------------------------------------------------------
 Center     Atomic      Atomic             Coordinates (Angstroms)
 Number     Number       Type             X           Y           Z
 ---------------------------------------------------------------------
      1         12           0        9.755189   -0.413304    0.765658
      2          6           0        9.233461    1.974393   -1.861300
      3          6           0        6.409287    0.358641    1.749992
      4          6           0        9.566974   -3.217952    2.606143
      5          6           0       12.598142   -1.443235   -0.832206
      6          7           0        8.069145    0.967016   -0.015653
      7          6           0        8.094385    1.846848   -1.058122
      8          6           0        6.738272    2.622067   -1.201388
      9          6           0        6.068869    2.331696    0.226330
     10          6           0        6.850501    1.094869    0.639745
     11          6           0        6.246784    3.434669    1.244394
     12          6           0        5.962806    2.257534   -2.456536
     13          6           0        5.329964    3.416693   -3.269483
     14          1           0        3.773135    3.758469   -3.137827
     15          7           0        8.206329   -1.299317    2.130196
     16          6           0        6.947762   -0.742173    2.438657
     17          6           0        6.298853   -1.579971    3.454589
     18          6           0        7.262376   -2.624111    3.746391
     19          6           0        8.337518   -2.477682    2.788918
     20          6           0        4.937643   -1.411905    4.016978
     21          6           0        7.129047   -3.641116    4.852012
     22          8           0        6.234264   -3.497688    5.654521
     23          6           0        8.047642   -4.826842    5.037184
     24          7           0       10.848538   -2.070536    0.744044
     25          6           0       10.649349   -3.027604    1.735069
     26          6           0       11.735302   -4.092699    1.566032
     27          6           0       12.796194   -3.409816    0.627353
     28          6           0       12.049163   -2.198923    0.179964
     29          6           0       12.329725   -4.761241    2.859673
     30          6           0       13.410351   -4.259269   -0.527422
     31          6           0       14.898466   -4.368426   -0.602043
     32          7           0       10.813034    0.177083   -0.887537
     33          6           0       12.015712   -0.283412   -1.394395
     34          6           0       12.527981    0.628091   -2.435740
     35          6           0       11.390987    1.494748   -2.670891
     36          6           0       10.420767    1.151779   -1.724266
     37          6           0       13.844812    0.629328   -3.166563
     38          6           0       10.930586    2.643076   -3.505987
     39          8           0       11.447676    3.182323   -4.442514
     40          6           0        9.490529    2.884947   -3.065404
     41          6           0        9.367274    4.328045   -2.676816
     42          8           0        9.977657    4.726942   -1.708338
     43          8           0        8.444194    5.105356   -3.438886
     44          6           0        8.157411    6.482942   -2.935597
     45          1           0        5.409240    0.601735    2.115487
     46          1           0        9.672379   -4.158850    3.148815
     47          1           0       13.602405   -1.686815   -1.184323
     48          1           0        6.883987    3.701533   -1.173166
     49          1           0        5.028639    2.023147    0.122990
     50          1           0        7.241769    3.342765    1.679283
     51          1           0        5.437249    3.335580    1.967405
     52          1           0        6.217338    4.471464    0.907684
     53          1           0        5.129086    1.639907   -2.123976
     54          1           0        6.577205    1.571118   -3.039097
     55          1           0        5.544378    3.135576   -4.300830
     56          1           0        5.816214    4.377838   -3.102113
     57          1           0        5.064748   -0.896920    4.968724
     58          1           0        4.540202   -2.390137    4.287715
     59          1           0        4.162490   -0.905212    3.440837
     60          1           0        7.750124   -5.530542    5.814362
     61          1           0        9.011462   -4.404461    5.321606
     62          1           0        8.294744   -5.450254    4.178681
     63          1           0       11.168757   -4.906575    1.112629
     64          1           0       13.565242   -2.963393    1.257021
     65          1           0       12.145441   -4.136922    3.734365
     66          1           0       13.387699   -4.983829    2.722136
     67          1           0       11.876887   -5.739716    3.018248
     68          1           0       13.049496   -3.868581   -1.478810
     69          1           0       12.941578   -5.242212   -0.482685
     70          1           0       15.258122   -3.765613   -1.435664
     71          1           0       15.179166   -5.403660   -0.795476
     72          1           0       15.472344   -4.049295    0.267699
     73          1           0       14.058676    1.612113   -3.586179
     74          1           0       13.763912   -0.128207   -3.946615
     75          1           0       14.604914    0.253185   -2.481587
     76          1           0        8.841950    2.543768   -3.872419
     77          1           0        8.974155    7.144978   -3.223743
     78          1           0        8.125539    6.500276   -1.846407
     79          1           0        7.200753    6.842031   -3.314532
     80         12           0       -9.845307   -0.506415   -0.395776
     81          6           0       -7.959447    1.952163    1.497081
     82          6           0       -6.894821   -1.343705   -1.795228
     83          6           0      -11.532616   -2.620994   -2.094107
     84          6           0      -12.819201    0.814701    0.999746
     85          7           0       -7.581066    0.264918   -0.109768
     86          6           0       -7.094279    1.170149    0.756516
     87          6           0       -5.553907    1.158015    0.730401
     88          6           0       -5.378131    0.412344   -0.673738
     89          6           0       -6.650912   -0.305025   -0.843955
     90          6           0       -4.794497    1.194814   -1.838247
     91          6           0       -5.044186    0.413894    1.976750
     92          6           0       -3.612388    0.854660    2.401387
     93          1           0       -2.882223    2.145860    1.805927
     94          7           0       -9.296538   -1.881222   -1.765243
     95          6           0       -8.035131   -2.043895   -2.305177
     96          6           0       -8.119806   -3.066935   -3.342988
     97          6           0       -9.465065   -3.508871   -3.389665
     98          6           0      -10.151638   -2.646472   -2.386579
     99          6           0       -6.988520   -3.510437   -4.159350
    100          6           0      -10.144240   -4.683290   -4.270302
    101          8           0      -11.268334   -5.051860   -4.065437
    102          6           0       -9.304590   -5.583479   -5.194368
    103          7           0      -11.920572   -0.652518   -0.712515
    104          6           0      -12.350245   -1.735018   -1.355993
    105          6           0      -13.839946   -1.941822   -1.298583
    106          6           0      -14.151209   -1.114032   -0.027772
    107          6           0      -12.915435   -0.149668   -0.022568
    108          6           0      -14.631159   -1.388159   -2.573557
    109          6           0      -14.352311   -1.938565    1.312367
    110          6           0      -14.911040   -3.390108    1.254325
    111          7           0      -10.349369    1.100364    0.860041
    112          6           0      -11.532823    1.491845    1.393833
    113          6           0      -11.363625    2.470356    2.370047
    114          6           0      -10.016291    2.692935    2.384836
    115          6           0       -9.401502    1.846163    1.483798
    116          6           0      -12.463200    3.068095    3.243549
    117          6           0       -9.005924    3.503991    3.080596
    118          8           0       -9.079988    4.471697    3.822957
    119          6           0       -7.611674    2.954352    2.546669
    120          6           0       -6.836713    4.097228    2.096282
    121          8           0       -6.969093    4.712768    1.033691
    122          8           0       -6.124562    4.530083    3.157556
    123          6           0       -5.602974    5.871745    2.967892
    124          1           0       -5.976498   -1.480960   -2.370078
    125          1           0      -12.080508   -3.327831   -2.719837
    126          1           0      -13.753838    1.122018    1.473138
    127          1           0       -5.146462    2.162335    0.613832
    128          1           0       -4.622384   -0.353429   -0.504397
    129          1           0       -3.809636    0.828290   -2.126163
    130          1           0       -4.715784    2.250798   -1.580475
    131          1           0       -5.425952    1.207358   -2.726649
    132          1           0       -4.932622   -0.635410    1.702685
    133          1           0       -5.731544    0.439848    2.822106
    134          1           0       -2.907851    0.022969    2.368973
    135          1           0       -3.708759    0.896365    3.486228
    136          1           0       -6.035631   -3.329451   -3.662464
    137          1           0       -7.066744   -2.939230   -5.084552
    138          1           0       -6.997557   -4.575761   -4.390835
    139          1           0       -8.592403   -6.216107   -4.664635
    140          1           0       -8.906198   -4.902811   -5.947067
    141          1           0       -9.962360   -6.218376   -5.788531
    142          1           0      -13.928886   -3.025822   -1.231023
    143          1           0      -15.046193   -0.500170   -0.126177
    144          1           0      -15.301798   -2.219431   -2.789909
    145          1           0      -14.003977   -1.195506   -3.444684
    146          1           0      -15.244363   -0.503988   -2.403648
    147          1           0      -14.954910   -1.344148    1.997661
    148          1           0      -13.314797   -2.070687    1.619820
    149          1           0      -14.101174   -4.102734    1.100069
    150          1           0      -15.669038   -3.334044    0.472267
    151          1           0      -15.460116   -3.656667    2.156747
    152          1           0      -13.202785    2.271971    3.332224
    153          1           0      -12.978642    3.905066    2.773393
    154          1           0      -12.026136    3.336516    4.205164
    155          1           0       -7.130809    2.464868    3.394525
    156          1           0       -5.044455    6.244157    3.826177
    157          1           0       -6.293167    6.611458    2.561898
    158          1           0       -4.827514    5.871813    2.201112
 ---------------------------------------------------------------------

 SCF Done:  E(RPBE1PBE) =  -4067.35144073     A.U. after   16 cycles

 Excitation energies and oscillator strengths:

 Excited State   1:      Singlet-A      1.8169 eV  682.41 nm  f=0.0000  <S**2>=0.000
     312 -> 313        0.70706
 This state for optimization and/or second-order correction.
 Total Energy, E(TD-HF/TD-DFT) =  -4067.28467195
 Copying the excited state density for this state as the 1-particle RhoCI density.

 Excited State   2:      Singlet-A      1.8360 eV  675.29 nm  f=0.3877  <S**2>=0.000
     309 -> 315        0.16419
     311 -> 313        0.69668
     311 <- 313       -0.11948

 Excited State   3:      Singlet-A      1.9476 eV  636.61 nm  f=0.3540  <S**2>=0.000
     310 -> 316       -0.18536
     312 -> 314        0.68730

 Excited State   4:      Singlet-A      2.0220 eV  613.17 nm  f=0.0000  <S**2>=0.000
     311 -> 314        0.70708

 Excited State   5:      Singlet-A      2.2150 eV  559.75 nm  f=0.0000  <S**2>=0.000
     310 -> 313        0.70707

 The electronic state is 1-A.
 Alpha  occ. eigenvalues --  -46.92847 -46.92757 -19.25945 -19.25595 -19.20948
 Alpha  occ. eigenvalues --  -19.20499 -19.19932 -19.19320 -19.19056 -19.18356
 Alpha  occ. eigenvalues --  -14.42239 -14.41467 -14.40781 -14.40739 -14.39436
 Alpha  occ. eigenvalues --  -14.39111 -14.38938 -14.38475 -10.37270 -10.35246
 Alpha  occ. eigenvalues --  -10.33938 -10.32575 -10.32191 -10.31807 -10.29528
 Alpha  occ. eigenvalues --  -10.29235 -10.29137 -10.28598 -10.28588 -10.28295
 Alpha  occ. eigenvalues --  -10.28241 -10.28118 -10.28055 -10.28036 -10.28031
 Alpha  occ. eigenvalues --  -10.27826 -10.27540 -10.27505 -10.27395 -10.26899
 Alpha  occ. eigenvalues --  -10.26835 -10.26779 -10.26664 -10.26517 -10.26499
 Alpha  occ. eigenvalues --  -10.26472 -10.26458 -10.26362 -10.26026 -10.25923
 Alpha  occ. eigenvalues --  -10.25886 -10.25820 -10.25742 -10.25693 -10.25560
 Alpha  occ. eigenvalues --  -10.25292 -10.25236 -10.25192 -10.25188 -10.25170
 Alpha  occ. eigenvalues --  -10.25141 -10.24894 -10.24834 -10.24831 -10.24605
 Alpha  occ. eigenvalues --  -10.24449 -10.24439 -10.24424 -10.24323 -10.24233
 Alpha  occ. eigenvalues --  -10.24178 -10.24134 -10.24027 -10.23910 -10.23611
 Alpha  occ. eigenvalues --  -10.23586 -10.23483 -10.23460 -10.23343 -10.23323
 Alpha  occ. eigenvalues --  -10.23269 -10.23113 -10.23013 -10.22975 -10.22905
 Alpha  occ. eigenvalues --  -10.21741  -3.14993  -3.14839  -1.87779  -1.87681
 Alpha  occ. eigenvalues --   -1.87374  -1.87231  -1.87222  -1.87047  -1.11324
 Alpha  occ. eigenvalues --   -1.10103  -1.07156  -1.06503  -1.05121  -1.04410
 Alpha  occ. eigenvalues --   -1.02724  -1.01487  -1.00442  -0.99768  -0.99347
 Alpha  occ. eigenvalues --   -0.99161  -0.98378  -0.98305  -0.97488  -0.96312
 Alpha  occ. eigenvalues --   -0.87140  -0.86808  -0.83829  -0.83259  -0.83220
 Alpha  occ. eigenvalues --   -0.82980  -0.82896  -0.82408  -0.82018  -0.81730
 Alpha  occ. eigenvalues --   -0.81248  -0.80661  -0.80176  -0.80078  -0.78877
 Alpha  occ. eigenvalues --   -0.78600  -0.78376  -0.77478  -0.76876  -0.76629
 Alpha  occ. eigenvalues --   -0.76140  -0.75895  -0.75085  -0.74949  -0.74625
 Alpha  occ. eigenvalues --   -0.74464  -0.72684  -0.72594  -0.71905  -0.71200
 Alpha  occ. eigenvalues --   -0.71165  -0.70988  -0.70710  -0.70120  -0.69715
 Alpha  occ. eigenvalues --   -0.69595  -0.67313  -0.67217  -0.66336  -0.66068
 Alpha  occ. eigenvalues --   -0.64011  -0.63971  -0.63424  -0.63169  -0.62460
 Alpha  occ. eigenvalues --   -0.62201  -0.61256  -0.61074  -0.60505  -0.59931
 Alpha  occ. eigenvalues --   -0.59633  -0.59543  -0.59248  -0.59134  -0.58955
 Alpha  occ. eigenvalues --   -0.58259  -0.56967  -0.56457  -0.55181  -0.54465
 Alpha  occ. eigenvalues --   -0.54098  -0.54011  -0.53905  -0.53841  -0.53574
 Alpha  occ. eigenvalues --   -0.53111  -0.52967  -0.52520  -0.52353  -0.52137
 Alpha  occ. eigenvalues --   -0.51228  -0.51000  -0.50300  -0.50165  -0.50029
 Alpha  occ. eigenvalues --   -0.49818  -0.49138  -0.48897  -0.48566  -0.48539
 Alpha  occ. eigenvalues --   -0.48236  -0.48032  -0.48009  -0.47829  -0.47584
 Alpha  occ. eigenvalues --   -0.47565  -0.47236  -0.46991  -0.46838  -0.46441
 Alpha  occ. eigenvalues --   -0.46361  -0.46083  -0.46013  -0.45931  -0.45741
 Alpha  occ. eigenvalues --   -0.45674  -0.45584  -0.45255  -0.45183  -0.44997
 Alpha  occ. eigenvalues --   -0.44750  -0.44591  -0.44546  -0.44419  -0.44287
 Alpha  occ. eigenvalues --   -0.44047  -0.43890  -0.43558  -0.43460  -0.43430
 Alpha  occ. eigenvalues --   -0.43398  -0.43338  -0.43309  -0.42931  -0.42879
 Alpha  occ. eigenvalues --   -0.42655  -0.42488  -0.42234  -0.42095  -0.41946
 Alpha  occ. eigenvalues --   -0.41769  -0.41730  -0.41470  -0.41231  -0.41141
 Alpha  occ. eigenvalues --   -0.40985  -0.40922  -0.40803  -0.40779  -0.40726
 Alpha  occ. eigenvalues --   -0.40569  -0.40278  -0.40060  -0.39838  -0.39774
 Alpha  occ. eigenvalues --   -0.39500  -0.39444  -0.39118  -0.38965  -0.38836
 Alpha  occ. eigenvalues --   -0.38720  -0.38682  -0.38551  -0.38415  -0.38362
 Alpha  occ. eigenvalues --   -0.38246  -0.38073  -0.38013  -0.37908  -0.37831
 Alpha  occ. eigenvalues --   -0.37605  -0.37559  -0.37533  -0.37407  -0.37265
 Alpha  occ. eigenvalues --   -0.37159  -0.37080  -0.36918  -0.36515  -0.36312
 Alpha  occ. eigenvalues --   -0.36171  -0.36135  -0.35773  -0.35634  -0.35346
 Alpha  occ. eigenvalues --   -0.35321  -0.34635  -0.34339  -0.34228  -0.33649
 Alpha  occ. eigenvalues --   -0.33570  -0.33177  -0.33007  -0.32802  -0.32461
 Alpha  occ. eigenvalues --   -0.32430  -0.32138  -0.31677  -0.31670  -0.30975
 Alpha  occ. eigenvalues --   -0.30886  -0.30700  -0.29884  -0.29667  -0.29422
 Alpha  occ. eigenvalues --   -0.28944  -0.28680  -0.27994  -0.26963  -0.26953
 Alpha  occ. eigenvalues --   -0.26568  -0.26448  -0.26157  -0.25532  -0.25434
 Alpha  occ. eigenvalues --   -0.25352  -0.25292  -0.24523  -0.21318  -0.20344
 Alpha  occ. eigenvalues --   -0.18895  -0.18882
 Alpha virt. eigenvalues --   -0.11513  -0.10768  -0.05138  -0.04641  -0.03659
 Alpha virt. eigenvalues --   -0.03619  -0.02071  -0.01828  -0.01655  -0.00457
 Alpha virt. eigenvalues --   -0.00304   0.00083   0.00101   0.01086   0.01131

 Mulliken charges:
               1
     1  Mg  12.000000
     2  C    6.000000
     3  C    6.000000
     4  C    6.000000
     5  C    6.000000
     6  N    7.000000
     7  C    6.000000
     8  C    6.000000
     9  C    6.000000
    10  C    6.000000
    11  C    6.000000
    12  C    6.000000
    13  C    6.000000
    14  H    1.000000
    15  N    7.000000
    16  C    6.000000
    17  C    6.000000
    18  C    6.000000
    19  C    6.000000
    20  C    6.000000
    21  C    6.000000
    22  O    8.000000
    23  C    6.000000
    24  N    7.000000
    25  C    6.000000
    26  C    6.000000
    27  C    6.000000
    28  C    6.000000
    29  C    6.000000
    30  C    6.000000
    31  C    6.000000
    32  N    7.000000
    33  C    6.000000
    34  C    6.000000
    35  C    6.000000
    36  C    6.000000
    37  C    6.000000
    38  C    6.000000
    39  O    8.000000
    40  C    6.000000
    41  C    6.000000
    42  O    8.000000
    43  O    8.000000
    44  C    6.000000
    45  H    1.000000
    46  H    1.000000
    47  H    1.000000
    48  H    1.000000
    49  H    1.000000
    50  H    1.000000
    51  H    1.000000
    52  H    1.000000
    53  H    1.000000
    54  H    1.000000
    55  H    1.000000
    56  H    1.000000
    57  H    1.000000
    58  H    1.000000
    59  H    1.000000
    60  H    1.000000
    61  H    1.000000
    62  H    1.000000
    63  H    1.000000
    64  H    1.000000
    65  H    1.000000
    66  H    1.000000
    67  H    1.000000
    68  H    1.000000
    69  H    1.000000
    70  H    1.000000
    71  H    1.000000
    72  H    1.000000
    73  H    1.000000
    74  H    1.000000
    75  H    1.000000
    76  H    1.000000
    77  H    1.000000
    78  H    1.000000
    79  H    1.000000
    80  Mg  12.000000
    81  C    6.000000
    82  C    6.000000
    83  C    6.000000
    84  C    6.000000
    85  N    7.000000
    86  C    6.000000
    87  C    6.000000
    88  C    6.000000
    89  C    6.000000
    90  C    6.000000
    91  C    6.000000
    92  C    6.000000
    93  H    1.000000
    94  N    7.000000
    95  C    6.000000
    96  C    6.000000
    97  C    6.000000
    98  C    6.000000
    99  C    6.000000
   100  C    6.000000
   101  O    8.000000
   102  C    6.000000
   103  N    7.000000
   104  C    6.000000
   105  C    6.000000
   106  C    6.000000
   107  C    6.000000
   108  C    6.000000
   109  C    6.000000
   110  C    6.000000
   111  N    7.000000
   112  C    6.000000
   113  C    6.000000
   114  C    6.000000
   115  C    6.000000
   116  C    6.000000
   117  C    6.000000
   118  O    8.000000
   119  C    6.000000
   120  C    6.000000
   121  O    8.000000
   122  O    8.000000
   123  C    6.000000
   124  H    1.000000
   125  H    1.000000
   126  H    1.000000
   127  H    1.000000
   128  H    1.000000
   129  H    1.000000
   130  H    1.000000
   131  H    1.000000
   132  H    1.000000
   133  H    1.000000
   134  H    1.000000
   135  H    1.000000
   136  H    1.000000
   137  H    1.000000
   138  H    1.000000
   139  H    1.000000
   140  H    1.000000
   141  H    1.000000
   142  H    1.000000
   143  H    1.000000
   144  H    1.000000
   145  H    1.000000
   146  H    1.000000
   147  H    1.000000
   148  H    1.000000
   149  H    1.000000
   150  H    1.000000
   151  H    1.000000
   152  H    1.000000
   153  H    1.000000
   154  H    1.000000
   155  H    1.000000
   156  H    1.000000
   157  H    1.000000
   158  H    1.000000
 Sum of Mulliken charges = 624.00000

 Dipole moment (field-independent basis, Debye):
    X=             -0.0000    Y=             -0.0000    Z=              0.0000  Tot=              0.0000
 Quadrupole moment (field-independent basis, Debye-Ang):
   XX=             -0.0005   YY=              0.0000   ZZ=              0.0000
   XY=              0.0000   XZ=              0.0003   YZ=             -0.0000

 Normal termination of Gaussian 16 at Thu Oct 14 20:02:59 2021.
