 Gaussian 16, Revision A.03,
 Gaussian 16:  ES64L-G16RevA.03 25-Dec-2016

 --------------------------------------------------------
 #p PBE1PBE/Def2SVP td=(nstates=5) density=(transition=1)
 --------------------------------------------------------

 --------------------------------
 TDDFT excited states in gaussian
 --------------------------------
 Symbolic Z-matrix:
 Charge =  0 Multiplicity = 1

                         Standard orientation:
 ---------------------------------------------------------------------
 Center     Atomic      Atomic             Coordinates (Angstroms)
 Number     Number       Type             X           Y           Z
 ---------------------------------------------------------------------
      1         12           0       -9.617487   -0.871030    0.502356
      2          6           0       -9.556303    2.527775   -0.407233
      3          6           0       -7.691749   -0.025268    3.271257
      4          6           0       -9.429028   -4.124558    1.140016
      5          6           0      -10.824468   -1.669364   -2.783423
      6          7           0       -8.718660    1.001655    1.311059
      7          6           0       -8.950126    2.290889    0.811285
      8          6           0       -8.631436    3.307670    1.891734
      9          6           0       -7.787064    2.529437    2.940589
     10          6           0       -8.087281    1.069853    2.484162
     11          6           0       -6.281183    2.925386    3.051419
     12          6           0       -9.881596    4.042991    2.487719
     13          6           0       -9.592950    5.532483    2.970235
     14          1           0       -8.158396    6.055233    2.857112
     15          7           0       -8.822876   -1.875114    2.018342
     16          6           0       -8.136837   -1.354361    3.102002
     17          6           0       -7.833483   -2.383842    4.053774
     18          6           0       -8.208909   -3.606826    3.411159
     19          6           0       -8.870518   -3.223231    2.176843
     20          6           0       -7.076444   -2.127652    5.392602
     21          6           0       -7.994550   -5.010990    3.873461
     22          8           0       -8.238244   -5.990558    3.129124
     23          6           0       -7.394389   -5.522916    5.215950
     24          7           0       -9.800042   -2.665823   -0.733527
     25          6           0       -9.773378   -3.895912   -0.186669
     26          6           0      -10.376516   -4.936685   -1.163235
     27          6           0      -10.801500   -4.170724   -2.421193
     28          6           0      -10.490161   -2.692754   -1.917434
     29          6           0       -9.481714   -6.126211   -1.334460
     30          6           0      -12.253661   -4.365638   -2.907581
     31          6           0      -13.351597   -3.979275   -1.886092
     32          7           0      -10.058289    0.163294   -1.316269
     33          6           0      -10.665578   -0.277460   -2.442643
     34          6           0      -11.054525    0.910443   -3.201133
     35          6           0      -10.682788    2.071308   -2.466863
     36          6           0      -10.020190    1.565363   -1.322139
     37          6           0      -11.860036    0.914722   -4.497680
     38          6           0      -10.684759    3.499284   -2.449062
     39          8           0      -11.197721    4.360066   -3.159197
     40          6           0       -9.849686    3.882040   -1.060689
     41          6           0       -8.704197    4.813723   -1.409203
     42          8           0       -7.645645    4.434610   -1.870667
     43          8           0       -8.994107    6.107055   -1.038101
     44          6           0       -8.216056    7.198467   -1.615170
     45          1           0       -7.203015    0.369175    4.164363
     46          1           0       -9.425367   -5.171839    1.448360
     47          1           0      -11.312701   -1.983663   -3.707926
     48          1           0       -8.013847    4.100016    1.469051
     49          1           0       -8.259145    2.691127    3.909230
     50          1           0       -5.778330    1.973721    2.882757
     51          1           0       -6.035258    3.221191    4.071993
     52          1           0       -5.861439    3.656019    2.360018
     53          1           0      -10.235247    3.554923    3.395386
     54          1           0      -10.688289    4.002655    1.756917
     55          1           0       -9.760351    5.561360    4.047028
     56          1           0      -10.274401    6.185325    2.425323
     57          1           0       -6.402196   -2.969664    5.553839
     58          1           0       -7.745467   -2.089541    6.251625
     59          1           0       -6.487664   -1.223599    5.547204
     60          1           0       -7.943902   -5.112794    6.063733
     61          1           0       -6.326646   -5.320714    5.300020
     62          1           0       -7.637392   -6.558769    5.449743
     63          1           0      -11.200981   -5.397122   -0.620364
     64          1           0      -10.006699   -4.363907   -3.142524
     65          1           0       -9.815340   -6.992586   -0.763025
     66          1           0       -8.455347   -5.857735   -1.083761
     67          1           0       -9.383723   -6.467005   -2.365769
     68          1           0      -12.314332   -5.440839   -3.077233
     69          1           0      -12.409698   -3.835308   -3.847466
     70          1           0      -13.930850   -3.195583   -2.373927
     71          1           0      -12.837928   -3.614910   -0.996395
     72          1           0      -13.950843   -4.817968   -1.531353
     73          1           0      -12.635880    1.679758   -4.506644
     74          1           0      -12.438393   -0.001752   -4.611074
     75          1           0      -11.158447    0.967812   -5.330631
     76          1           0      -10.565612    4.454255   -0.470119
     77          1           0       -7.181982    6.854773   -1.652030
     78          1           0       -8.232413    8.125513   -1.041986
     79          1           0       -8.678639    7.405348   -2.580250
     80         12           0        9.573772   -0.604587   -0.141221
     81          6           0        7.807082    2.410519   -0.321747
     82          6           0       12.224432    1.040267    1.254868
     83          6           0       11.300544   -3.420174   -0.319892
     84          6           0        6.804908   -2.160416   -1.781103
     85          7           0        9.961045    1.520614    0.354078
     86          6           0        9.102740    2.594822    0.276087
     87          6           0        9.668481    3.783351    1.031263
     88          6           0       11.177497    3.374175    1.257808
     89          6           0       11.065095    1.831161    1.010374
     90          6           0       12.144475    4.046824    0.291776
     91          6           0        8.757081    4.117014    2.268153
     92          6           0        9.371851    5.181054    3.219257
     93          1           0       10.280667    6.214410    2.586663
     94          7           0       11.426318   -1.103034    0.391810
     95          6           0       12.435973   -0.272111    0.860839
     96          6           0       13.699890   -1.004594    1.053631
     97          6           0       13.390552   -2.330151    0.619014
     98          6           0       11.992210   -2.316322    0.197581
     99          6           0       14.917406   -0.386650    1.632013
    100          6           0       14.340532   -3.499657    0.591439
    101          8           0       13.970849   -4.652362    0.233794
    102          6           0       15.761223   -3.363641    1.068108
    103          7           0        9.081482   -2.550939   -0.898169
    104          6           0       10.005992   -3.508989   -0.827805
    105          6           0        9.499441   -4.822754   -1.570469
    106          6           0        8.017714   -4.393883   -2.095351
    107          6           0        7.959822   -2.954338   -1.582438
    108          6           0       10.529493   -5.179557   -2.719200
    109          6           0        6.827417   -5.234713   -1.463410
    110          6           0        6.481069   -6.567771   -2.186767
    111          7           0        7.743181   -0.057068   -0.959568
    112          6           0        6.652699   -0.792643   -1.494369
    113          6           0        5.483455    0.152944   -1.766391
    114          6           0        5.908118    1.424692   -1.395144
    115          6           0        7.268096    1.223075   -0.833290
    116          6           0        4.122154   -0.196175   -2.281058
    117          6           0        5.546356    2.815541   -1.252490
    118          8           0        4.518193    3.437880   -1.537042
    119          6           0        6.706631    3.498138   -0.371602
    120          6           0        7.184856    4.810312   -0.949811
    121          8           0        8.045622    4.904702   -1.782548
    122          8           0        6.667399    5.906276   -0.222968
    123          6           0        7.367161    7.192968   -0.355185
    124          1           0       12.993298    1.711390    1.644252
    125          1           0       11.881030   -4.342582   -0.390341
    126          1           0        5.971727   -2.545149   -2.373083
    127          1           0        9.609327    4.647466    0.370740
    128          1           0       11.553400    3.504403    2.273133
    129          1           0       12.870209    4.565664    0.917866
    130          1           0       11.569216    4.666211   -0.395981
    131          1           0       12.796766    3.336458   -0.215597
    132          1           0        8.482936    3.117746    2.604960
    133          1           0        7.835892    4.515466    1.844338
    134          1           0        9.908203    4.575127    3.949571
    135          1           0        8.552482    5.716408    3.698764
    136          1           0       15.620079   -0.435541    0.800349
    137          1           0       15.265272   -0.885188    2.536358
    138          1           0       14.902770    0.667321    1.912499
    139          1           0       15.755542   -3.124647    2.130684
    140          1           0       16.077810   -2.566487    0.394334
    141          1           0       16.420535   -4.209832    0.876786
    142          1           0        9.459969   -5.511103   -0.725345
    143          1           0        7.896976   -4.203004   -3.162542
    144          1           0       11.358933   -4.479334   -2.816782
    145          1           0       10.018214   -5.196022   -3.682083
    146          1           0       10.980926   -6.124764   -2.419162
    147          1           0        5.961465   -4.615802   -1.230253
    148          1           0        7.175535   -5.535869   -0.475903
    149          1           0        6.543098   -7.354721   -1.435959
    150          1           0        7.153364   -6.684035   -3.036927
    151          1           0        5.462185   -6.570117   -2.574759
    152          1           0        3.445871   -0.106651   -1.430645
    153          1           0        4.122766   -1.204570   -2.696634
    154          1           0        3.685802    0.448235   -3.043947
    155          1           0        6.286103    3.631573    0.624698
    156          1           0        7.031807    7.593337   -1.311551
    157          1           0        8.440646    7.065915   -0.213779
    158          1           0        7.037305    7.803435    0.484999
 ---------------------------------------------------------------------

 SCF Done:  E(RPBE1PBE) =  -4067.39608964     A.U. after   16 cycles

 Excitation energies and oscillator strengths:

 Excited State   1:      Singlet-A      1.5898 eV  779.90 nm  f=0.0000  <S**2>=0.000
     312 -> 313        0.70709
 This state for optimization and/or second-order correction.
 Total Energy, E(TD-HF/TD-DFT) =  -4067.33766738
 Copying the excited state density for this state as the 1-particle RhoCI density.

 Excited State   2:      Singlet-A      1.8180 eV  682.00 nm  f=0.3846  <S**2>=0.000
     309 -> 316        0.16249
     311 -> 313        0.69669
     311 <- 313       -0.11891

 Excited State   3:      Singlet-A      1.8621 eV  665.82 nm  f=0.3773  <S**2>=0.000
     310 -> 315       -0.19122
     312 -> 314        0.68816
     312 <- 314       -0.10014

 Excited State   4:      Singlet-A      2.1215 eV  584.42 nm  f=0.0000  <S**2>=0.000
     311 -> 314        0.70705

 Excited State   5:      Singlet-A      2.1899 eV  566.15 nm  f=0.1349  <S**2>=0.000
     309 -> 313        0.66501
     311 -> 316       -0.21991

 The electronic state is 1-A.
 Alpha  occ. eigenvalues --  -46.92243 -46.91438 -19.24786 -19.24582 -19.20409
 Alpha  occ. eigenvalues --  -19.19590 -19.19339 -19.19322 -19.18540 -19.18464
 Alpha  occ. eigenvalues --  -14.41841 -14.41544 -14.41077 -14.41001 -14.39806
 Alpha  occ. eigenvalues --  -14.39585 -14.39462 -14.39051 -10.36355 -10.35979
 Alpha  occ. eigenvalues --  -10.32715 -10.32612 -10.32493 -10.32285 -10.29015
 Alpha  occ. eigenvalues --  -10.28924 -10.28714 -10.28545 -10.28524 -10.28472
 Alpha  occ. eigenvalues --  -10.28447 -10.28387 -10.28311 -10.28145 -10.28023
 Alpha  occ. eigenvalues --  -10.28009 -10.27930 -10.27852 -10.27693 -10.27649
 Alpha  occ. eigenvalues --  -10.27224 -10.27121 -10.26903 -10.26840 -10.26782
 Alpha  occ. eigenvalues --  -10.26707 -10.26707 -10.26116 -10.26108 -10.26041
 Alpha  occ. eigenvalues --  -10.25888 -10.25842 -10.25811 -10.25797 -10.25793
 Alpha  occ. eigenvalues --  -10.25549 -10.25490 -10.25466 -10.25275 -10.25231
 Alpha  occ. eigenvalues --  -10.25176 -10.25064 -10.25006 -10.24913 -10.24877
 Alpha  occ. eigenvalues --  -10.24748 -10.24627 -10.24415 -10.24347 -10.24332
 Alpha  occ. eigenvalues --  -10.24284 -10.24058 -10.23781 -10.23695 -10.23605
 Alpha  occ. eigenvalues --  -10.23557 -10.23553 -10.23466 -10.23193 -10.23070
 Alpha  occ. eigenvalues --  -10.23067 -10.23015 -10.23014 -10.22829 -10.22763
 Alpha  occ. eigenvalues --  -10.22329  -3.14391  -3.13696  -1.87201  -1.86765
 Alpha  occ. eigenvalues --   -1.86628  -1.86543  -1.86056  -1.85951  -1.10136
 Alpha  occ. eigenvalues --   -1.10075  -1.04180  -1.03775  -1.02980  -1.02545
 Alpha  occ. eigenvalues --   -1.02402  -1.02138  -0.98871  -0.98805  -0.98041
 Alpha  occ. eigenvalues --   -0.97982  -0.97806  -0.97389  -0.96797  -0.96012
 Alpha  occ. eigenvalues --   -0.86498  -0.85893  -0.83456  -0.83103  -0.82790
 Alpha  occ. eigenvalues --   -0.82688  -0.82329  -0.82040  -0.81808  -0.81643
 Alpha  occ. eigenvalues --   -0.80980  -0.80925  -0.80591  -0.79650  -0.78459
 Alpha  occ. eigenvalues --   -0.77980  -0.77581  -0.77176  -0.76357  -0.76281
 Alpha  occ. eigenvalues --   -0.76117  -0.75256  -0.74988  -0.74875  -0.74279
 Alpha  occ. eigenvalues --   -0.74071  -0.73155  -0.72795  -0.71696  -0.71222
 Alpha  occ. eigenvalues --   -0.71207  -0.70960  -0.70049  -0.70029  -0.69259
 Alpha  occ. eigenvalues --   -0.68849  -0.66951  -0.66459  -0.65854  -0.65421
 Alpha  occ. eigenvalues --   -0.64185  -0.63673  -0.63459  -0.62913  -0.62757
 Alpha  occ. eigenvalues --   -0.62716  -0.61830  -0.61436  -0.59868  -0.59673
 Alpha  occ. eigenvalues --   -0.59596  -0.59205  -0.58665  -0.58546  -0.58412
 Alpha  occ. eigenvalues --   -0.58240  -0.56122  -0.55796  -0.55336  -0.55138
 Alpha  occ. eigenvalues --   -0.54006  -0.53974  -0.53292  -0.53202  -0.52667
 Alpha  occ. eigenvalues --   -0.52144  -0.52123  -0.51944  -0.51361  -0.51295
 Alpha  occ. eigenvalues --   -0.50687  -0.50414  -0.50263  -0.50211  -0.49288
 Alpha  occ. eigenvalues --   -0.49223  -0.49101  -0.48698  -0.48412  -0.48368
 Alpha  occ. eigenvalues --   -0.47922  -0.47914  -0.47798  -0.47610  -0.47232
 Alpha  occ. eigenvalues --   -0.47083  -0.47068  -0.46721  -0.46630  -0.46455
 Alpha  occ. eigenvalues --   -0.46426  -0.46286  -0.45925  -0.45836  -0.45671
 Alpha  occ. eigenvalues --   -0.45568  -0.45295  -0.45234  -0.44981  -0.44542
 Alpha  occ. eigenvalues --   -0.44395  -0.44065  -0.44022  -0.43985  -0.43824
 Alpha  occ. eigenvalues --   -0.43782  -0.43757  -0.43642  -0.43581  -0.43448
 Alpha  occ. eigenvalues --   -0.43341  -0.43119  -0.43108  -0.42744  -0.42732
 Alpha  occ. eigenvalues --   -0.42648  -0.42402  -0.42246  -0.42016  -0.41969
 Alpha  occ. eigenvalues --   -0.41463  -0.41323  -0.40984  -0.40883  -0.40866
 Alpha  occ. eigenvalues --   -0.40719  -0.40505  -0.40405  -0.40262  -0.40095
 Alpha  occ. eigenvalues --   -0.39897  -0.39884  -0.39797  -0.39597  -0.39371
 Alpha  occ. eigenvalues --   -0.39340  -0.39205  -0.38925  -0.38903  -0.38783
 Alpha  occ. eigenvalues --   -0.38762  -0.38729  -0.38244  -0.38115  -0.37928
 Alpha  occ. eigenvalues --   -0.37895  -0.37781  -0.37675  -0.37611  -0.37419
 Alpha  occ. eigenvalues --   -0.37395  -0.37201  -0.37108  -0.36971  -0.36734
 Alpha  occ. eigenvalues --   -0.36654  -0.36427  -0.36238  -0.36220  -0.36022
 Alpha  occ. eigenvalues --   -0.35703  -0.35487  -0.35303  -0.35213  -0.35021
 Alpha  occ. eigenvalues --   -0.34915  -0.34533  -0.34091  -0.34033  -0.33991
 Alpha  occ. eigenvalues --   -0.33590  -0.33435  -0.33178  -0.32938  -0.32723
 Alpha  occ. eigenvalues --   -0.32544  -0.31829  -0.31698  -0.31282  -0.31144
 Alpha  occ. eigenvalues --   -0.30879  -0.30739  -0.29330  -0.29306  -0.29121
 Alpha  occ. eigenvalues --   -0.28822  -0.28632  -0.28311  -0.26990  -0.26777
 Alpha  occ. eigenvalues --   -0.26325  -0.26217  -0.25720  -0.25695  -0.25527
 Alpha  occ. eigenvalues --   -0.25179  -0.25146  -0.24904  -0.20983  -0.20829
 Alpha  occ. eigenvalues --   -0.18909  -0.18100
 Alpha virt. eigenvalues --   -0.11555  -0.10418  -0.05482  -0.04946  -0.04342
 Alpha virt. eigenvalues --   -0.04200  -0.02241  -0.02135  -0.01203  -0.00136
 Alpha virt. eigenvalues --    0.00651   0.00717   0.01123   0.01157   0.01775

 Mulliken charges:
               1
     1  Mg  12.000000
     2  C    6.000000
     3  C    6.000000
     4  C    6.000000
     5  C    6.000000
     6  N    7.000000
     7  C    6.000000
     8  C    6.000000
     9  C    6.000000
    10  C    6.000000
    11  C    6.000000
    12  C    6.000000
    13  C    6.000000
    14  H    1.000000
    15  N    7.000000
    16  C    6.000000
    17  C    6.000000
    18  C    6.000000
    19  C    6.000000
    20  C    6.000000
    21  C    6.000000
    22  O    8.000000
    23  C    6.000000
    24  N    7.000000
    25  C    6.000000
    26  C    6.000000
    27  C    6.000000
    28  C    6.000000
    29  C    6.000000
    30  C    6.000000
    31  C    6.000000
    32  N    7.000000
    33  C    6.000000
    34  C    6.000000
    35  C    6.000000
    36  C    6.000000
    37  C    6.000000
    38  C    6.000000
    39  O    8.000000
    40  C    6.000000
    41  C    6.000000
    42  O    8.000000
    43  O    8.000000
    44  C    6.000000
    45  H    1.000000
    46  H    1.000000
    47  H    1.000000
    48  H    1.000000
    49  H    1.000000
    50  H    1.000000
    51  H    1.000000
    52  H    1.000000
    53  H    1.000000
    54  H    1.000000
    55  H    1.000000
    56  H    1.000000
    57  H    1.000000
    58  H    1.000000
    59  H    1.000000
    60  H    1.000000
    61  H    1.000000
    62  H    1.000000
    63  H    1.000000
    64  H    1.000000
    65  H    1.000000
    66  H    1.000000
    67  H    1.000000
    68  H    1.000000
    69  H    1.000000
    70  H    1.000000
    71  H    1.000000
    72  H    1.000000
    73  H    1.000000
    74  H    1.000000
    75  H    1.000000
    76  H    1.000000
    77  H    1.000000
    78  H    1.000000
    79  H    1.000000
    80  Mg  12.000000
    81  C    6.000000
    82  C    6.000000
    83  C    6.000000
    84  C    6.000000
    85  N    7.000000
    86  C    6.000000
    87  C    6.000000
    88  C    6.000000
    89  C    6.000000
    90  C    6.000000
    91  C    6.000000
    92  C    6.000000
    93  H    1.000000
    94  N    7.000000
    95  C    6.000000
    96  C    6.000000
    97  C    6.000000
    98  C    6.000000
    99  C    6.000000
   100  C    6.000000
   101  O    8.000000
   102  C    6.000000
   103  N    7.000000
   104  C    6.000000
   105  C    6.000000
   106  C    6.000000
   107  C    6.000000
   108  C    6.000000
   109  C    6.000000
   110  C    6.000000
   111  N    7.000000
   112  C    6.000000
   113  C    6.000000
   114  C    6.000000
   115  C    6.000000
   116  C    6.000000
   117  C    6.000000
   118  O    8.000000
   119  C    6.000000
   120  C    6.000000
   121  O    8.000000
   122  O    8.000000
   123  C    6.000000
   124  H    1.000000
   125  H    1.000000
   126  H    1.000000
   127  H    1.000000
   128  H    1.000000
   129  H    1.000000
   130  H    1.000000
   131  H    1.000000
   132  H    1.000000
   133  H    1.000000
   134  H    1.000000
   135  H    1.000000
   136  H    1.000000
   137  H    1.000000
   138  H    1.000000
   139  H    1.000000
   140  H    1.000000
   141  H    1.000000
   142  H    1.000000
   143  H    1.000000
   144  H    1.000000
   145  H    1.000000
   146  H    1.000000
   147  H    1.000000
   148  H    1.000000
   149  H    1.000000
   150  H    1.000000
   151  H    1.000000
   152  H    1.000000
   153  H    1.000000
   154  H    1.000000
   155  H    1.000000
   156  H    1.000000
   157  H    1.000000
   158  H    1.000000
 Sum of Mulliken charges = 624.00000

 Dipole moment (field-independent basis, Debye):
    X=              0.0000    Y=             -0.0000    Z=              0.0000  Tot=              0.0000
 Quadrupole moment (field-independent basis, Debye-Ang):
   XX=              0.0000   YY=              0.0000   ZZ=             -0.0000
   XY=             -0.0000   XZ=              0.0000   YZ=              0.0000

 Normal termination of Gaussian 16 at Thu Oct 14 11:32:18 2021.
