 Gaussian 16, Revision A.03,
 Gaussian 16:  ES64L-G16RevA.03 25-Dec-2016

 --------------------------------------------------------
 #p PBE1PBE/Def2SVP td=(nstates=5) density=(transition=1)
 --------------------------------------------------------

 --------------------------------
 TDDFT excited states in gaussian
 --------------------------------
 Symbolic Z-matrix:
 Charge =  0 Multiplicity = 1

                         Standard orientation:
 ---------------------------------------------------------------------
 Center     Atomic      Atomic             Coordinates (Angstroms)
 Number     Number       Type             X           Y           Z
 ---------------------------------------------------------------------
      1         12           0       31.383446    0.480472   -0.343667
      2          6           0       29.112586   -2.010860    0.428348
      3          6           0       28.931037    2.881957    0.557101
      4          6           0       33.726629    2.974252   -0.524564
      5          6           0       33.895881   -1.853637   -0.754297
      6          7           0       29.237546    0.392108    0.275711
      7          6           0       28.561202   -0.758260    0.623528
      8          6           0       27.174260   -0.497172    1.322001
      9          6           0       26.961223    1.054496    0.988680
     10          6           0       28.447008    1.534723    0.525529
     11          6           0       25.857027    1.474413   -0.054787
     12          6           0       27.137322   -0.772231    2.784152
     13          6           0       26.201994   -1.821757    3.353220
     14          1           0       25.725401   -1.589395    4.796004
     15          7           0       31.309164    2.660758   -0.115782
     16          6           0       30.158800    3.404969    0.207009
     17          6           0       30.463478    4.799875    0.166394
     18          6           0       31.939737    4.851050   -0.000229
     19          6           0       32.422648    3.451936   -0.215759
     20          6           0       29.469683    5.907900    0.530230
     21          6           0       32.702225    6.187077    0.033267
     22          8           0       32.233132    7.306413    0.218103
     23          6           0       34.181761    6.116316    0.172094
     24          7           0       33.636336    0.557741   -0.435004
     25          6           0       34.277343    1.709201   -0.677678
     26          6           0       35.770555    1.408478   -0.556728
     27          6           0       35.902586   -0.177599   -0.719027
     28          6           0       34.356898   -0.561739   -0.662615
     29          6           0       36.544349    2.098586   -1.735440
     30          6           0       36.759321   -1.007806    0.322750
     31          6           0       38.030585   -1.720050   -0.114529
     32          7           0       31.496534   -1.578711   -0.275260
     33          6           0       32.591207   -2.418990   -0.501308
     34          6           0       32.210712   -3.782426   -0.291576
     35          6           0       30.834863   -3.707642    0.087916
     36          6           0       30.469963   -2.306509    0.022106
     37          6           0       33.052231   -5.014103   -0.407978
     38          6           0       29.674325   -4.424591    0.423089
     39          8           0       29.542911   -5.627523    0.529320
     40          6           0       28.539309   -3.374391    0.736657
     41          6           0       27.300132   -3.811817    0.075023
     42          8           0       26.359025   -4.317845    0.675757
     43          8           0       27.383639   -3.589577   -1.291408
     44          6           0       26.184177   -4.049153   -2.027001
     45          1           0       28.250595    3.709388    0.766733
     46          1           0       34.387929    3.834549   -0.650388
     47          1           0       34.712381   -2.572723   -0.846207
     48          1           0       26.403068   -1.084465    0.824764
     49          1           0       26.793706    1.553695    1.943734
     50          1           0       25.230094    0.599219   -0.225058
     51          1           0       26.245737    1.847986   -1.002218
     52          1           0       25.304025    2.302654    0.386706
     53          1           0       26.809503    0.152761    3.260910
     54          1           0       28.123533   -1.081196    3.128938
     55          1           0       26.751242   -2.761558    3.401709
     56          1           0       25.275949   -1.926867    2.788442
     57          1           0       28.469823    5.675819    0.896318
     58          1           0       29.462078    6.509060   -0.378638
     59          1           0       30.050064    6.551253    1.190786
     60          1           0       34.805841    6.074552   -0.719557
     61          1           0       34.493231    5.347387    0.879247
     62          1           0       34.484599    7.066907    0.612720
     63          1           0       36.192908    1.735040    0.393848
     64          1           0       36.197466   -0.427139   -1.737679
     65          1           0       37.375293    2.643617   -1.287606
     66          1           0       35.951340    2.769643   -2.358109
     67          1           0       36.944314    1.389506   -2.460604
     68          1           0       36.051064   -1.734155    0.720749
     69          1           0       37.090698   -0.275906    1.060678
     70          1           0       38.168218   -2.521430    0.611821
     71          1           0       38.871830   -1.034220   -0.011918
     72          1           0       38.080328   -2.196457   -1.093073
     73          1           0       32.391292   -5.849089   -0.174006
     74          1           0       33.889943   -4.897756    0.278960
     75          1           0       33.457926   -5.207806   -1.401113
     76          1           0       28.387282   -3.478232    1.811527
     77          1           0       26.309423   -5.086711   -2.336477
     78          1           0       26.035913   -3.329515   -2.832105
     79          1           0       25.281139   -3.964677   -1.423114
     80         12           0      -31.644340    0.164019    0.354414
     81          6           0      -29.233886   -1.551887   -1.587727
     82          6           0      -32.145911    2.229204   -2.267169
     83          6           0      -33.762059    1.796257    2.243694
     84          6           0      -30.411779   -1.653707    3.190699
     85          7           0      -30.709061    0.409474   -1.711718
     86          6           0      -29.947922   -0.577166   -2.315855
     87          6           0      -29.929913   -0.275512   -3.775477
     88          6           0      -30.364568    1.186892   -3.876800
     89          6           0      -31.158741    1.327680   -2.554087
     90          6           0      -29.115823    2.146234   -3.878803
     91          6           0      -30.826796   -1.232673   -4.730478
     92          6           0      -30.267827   -1.732749   -6.097714
     93          1           0      -29.648009   -0.657666   -7.036587
     94          7           0      -32.789827    1.823901   -0.005726
     95          6           0      -32.856575    2.487109   -1.122318
     96          6           0      -33.780955    3.618383   -0.932496
     97          6           0      -34.451211    3.412684    0.311364
     98          6           0      -33.654657    2.316745    0.932708
     99          6           0      -34.066935    4.826270   -1.897189
    100          6           0      -35.659780    4.103781    0.941928
    101          8           0      -36.063389    3.890909    2.101214
    102          6           0      -36.260842    5.224398    0.235246
    103          7           0      -31.892517    0.170326    2.520979
    104          6           0      -32.963799    0.893102    3.039370
    105          6           0      -33.191558    0.462359    4.539648
    106          6           0      -32.203372   -0.716061    4.725089
    107          6           0      -31.470294   -0.778790    3.383239
    108          6           0      -33.082807    1.630605    5.519927
    109          6           0      -32.815551   -2.050838    5.219486
    110          6           0      -32.007282   -2.877456    6.246695
    111          7           0      -30.141421   -1.285122    0.778151
    112          6           0      -29.722740   -1.887148    1.960507
    113          6           0      -28.765208   -2.914176    1.637541
    114          6           0      -28.505538   -2.776412    0.273159
    115          6           0      -29.372781   -1.775354   -0.244911
    116          6           0      -28.221451   -3.869545    2.510392
    117          6           0      -27.760568   -3.315902   -0.873998
    118          8           0      -26.963272   -4.233382   -0.987706
    119          6           0      -28.237545   -2.539965   -2.145137
    120          6           0      -27.005999   -1.927577   -2.788191
    121          8           0      -26.383455   -0.908758   -2.590575
    122          8           0      -26.767768   -2.795790   -3.814160
    123          6           0      -25.842885   -2.358660   -4.887004
    124          1           0      -32.383098    2.849930   -3.134154
    125          1           0      -34.616054    2.225794    2.771440
    126          1           0      -30.186026   -2.364922    3.987405
    127          1           0      -28.960127   -0.352279   -4.267760
    128          1           0      -31.096691    1.354740   -4.666313
    129          1           0      -29.255919    3.052447   -4.467117
    130          1           0      -28.240960    1.712597   -4.363856
    131          1           0      -28.987850    2.439171   -2.837293
    132          1           0      -31.815139   -0.791424   -4.854952
    133          1           0      -31.090202   -2.142013   -4.189000
    134          1           0      -31.173287   -2.068466   -6.604523
    135          1           0      -29.568634   -2.505456   -5.778011
    136          1           0      -35.055491    4.833811   -2.355760
    137          1           0      -33.308953    4.790960   -2.680199
    138          1           0      -34.085326    5.806723   -1.421222
    139          1           0      -36.539167    4.940779   -0.780082
    140          1           0      -35.577570    6.073122    0.202554
    141          1           0      -37.225890    5.410714    0.705472
    142          1           0      -34.177747   -0.001159    4.569802
    143          1           0      -31.376298   -0.423882    5.371855
    144          1           0      -32.045580    1.729835    5.841640
    145          1           0      -33.629618    1.492782    6.452176
    146          1           0      -33.225730    2.563551    4.975686
    147          1           0      -33.135746   -2.716393    4.418003
    148          1           0      -33.787941   -1.884021    5.684822
    149          1           0      -31.497983   -3.626835    5.640594
    150          1           0      -32.762552   -3.385784    6.846949
    151          1           0      -31.316962   -2.232166    6.789288
    152          1           0      -27.269917   -4.345399    2.274300
    153          1           0      -28.997824   -4.616937    2.676954
    154          1           0      -28.024107   -3.330965    3.436556
    155          1           0      -28.743496   -3.220562   -2.829653
    156          1           0      -26.333057   -2.663045   -5.811319
    157          1           0      -24.850691   -2.809187   -4.881223
    158          1           0      -25.753665   -1.272649   -4.881458
 ---------------------------------------------------------------------

 SCF Done:  E(RPBE1PBE) =  -4067.35804983     A.U. after   16 cycles

 Excitation energies and oscillator strengths:

 Excited State   1:      Singlet-A      1.7060 eV  726.76 nm  f=0.0000  <S**2>=0.000
     312 -> 313        0.70711
 This state for optimization and/or second-order correction.
 Total Energy, E(TD-HF/TD-DFT) =  -4067.29535609
 Copying the excited state density for this state as the 1-particle RhoCI density.

 Excited State   2:      Singlet-A      1.8584 eV  667.14 nm  f=0.3585  <S**2>=0.000
     309 -> 315       -0.17012
     311 -> 313        0.69189
     311 <- 313       -0.10673

 Excited State   3:      Singlet-A      1.8848 eV  657.80 nm  f=0.3795  <S**2>=0.000
     310 -> 316       -0.17649
     312 -> 314        0.68858

 Excited State   4:      Singlet-A      2.1844 eV  567.60 nm  f=0.1537  <S**2>=0.000
     309 -> 313        0.65883
     311 -> 315        0.23360

 Excited State   5:      Singlet-A      2.2641 eV  547.60 nm  f=0.0697  <S**2>=0.000
     310 -> 314        0.63672
     312 -> 316        0.28664

 The electronic state is 1-A.
 Alpha  occ. eigenvalues --  -46.93858 -46.92742 -19.25820 -19.25057 -19.20252
 Alpha  occ. eigenvalues --  -19.20138 -19.19412 -19.19158 -19.18921 -19.18789
 Alpha  occ. eigenvalues --  -14.42952 -14.41545 -14.41305 -14.40921 -14.39629
 Alpha  occ. eigenvalues --  -14.39626 -14.39429 -14.38665 -10.36243 -10.36197
 Alpha  occ. eigenvalues --  -10.32562 -10.32240 -10.31993 -10.31532 -10.30675
 Alpha  occ. eigenvalues --  -10.29542 -10.29506 -10.29447 -10.29242 -10.28769
 Alpha  occ. eigenvalues --  -10.28766 -10.28688 -10.28570 -10.28390 -10.28204
 Alpha  occ. eigenvalues --  -10.28110 -10.27807 -10.27704 -10.27553 -10.27373
 Alpha  occ. eigenvalues --  -10.27346 -10.27230 -10.27184 -10.27072 -10.27004
 Alpha  occ. eigenvalues --  -10.26507 -10.26487 -10.26287 -10.26276 -10.26214
 Alpha  occ. eigenvalues --  -10.26094 -10.25935 -10.25767 -10.25697 -10.25673
 Alpha  occ. eigenvalues --  -10.25615 -10.25553 -10.25376 -10.25356 -10.25340
 Alpha  occ. eigenvalues --  -10.25254 -10.25165 -10.25133 -10.25116 -10.25048
 Alpha  occ. eigenvalues --  -10.24994 -10.24872 -10.24740 -10.24377 -10.24370
 Alpha  occ. eigenvalues --  -10.24215 -10.24123 -10.24028 -10.23827 -10.23776
 Alpha  occ. eigenvalues --  -10.23688 -10.23664 -10.23388 -10.23267 -10.23266
 Alpha  occ. eigenvalues --  -10.23185 -10.23087 -10.22955 -10.22699 -10.22628
 Alpha  occ. eigenvalues --  -10.22577  -3.15660  -3.14714  -1.88527  -1.88008
 Alpha  occ. eigenvalues --   -1.87883  -1.87551  -1.87089  -1.86928  -1.10889
 Alpha  occ. eigenvalues --   -1.10340  -1.04754  -1.04629  -1.04352  -1.04000
 Alpha  occ. eigenvalues --   -1.02602  -1.02371  -0.99785  -0.99670  -0.98766
 Alpha  occ. eigenvalues --   -0.98557  -0.97690  -0.97050  -0.96751  -0.96256
 Alpha  occ. eigenvalues --   -0.87149  -0.87042  -0.83771  -0.83630  -0.83180
 Alpha  occ. eigenvalues --   -0.82774  -0.82487  -0.82298  -0.82015  -0.81901
 Alpha  occ. eigenvalues --   -0.81710  -0.81335  -0.81168  -0.79946  -0.78718
 Alpha  occ. eigenvalues --   -0.78512  -0.78213  -0.77887  -0.77148  -0.76972
 Alpha  occ. eigenvalues --   -0.76579  -0.76370  -0.75842  -0.75261  -0.75114
 Alpha  occ. eigenvalues --   -0.74975  -0.72654  -0.72253  -0.71749  -0.71476
 Alpha  occ. eigenvalues --   -0.71345  -0.71182  -0.70514  -0.70167  -0.69861
 Alpha  occ. eigenvalues --   -0.69466  -0.68021  -0.66988  -0.66732  -0.66269
 Alpha  occ. eigenvalues --   -0.63774  -0.63552  -0.63223  -0.63113  -0.62415
 Alpha  occ. eigenvalues --   -0.62190  -0.61720  -0.61531  -0.60071  -0.59972
 Alpha  occ. eigenvalues --   -0.59893  -0.59839  -0.59764  -0.59435  -0.59316
 Alpha  occ. eigenvalues --   -0.58900  -0.57598  -0.56532  -0.54987  -0.54813
 Alpha  occ. eigenvalues --   -0.54386  -0.54133  -0.54019  -0.53826  -0.53682
 Alpha  occ. eigenvalues --   -0.52946  -0.52450  -0.52392  -0.52077  -0.51499
 Alpha  occ. eigenvalues --   -0.51143  -0.50748  -0.50506  -0.50437  -0.50016
 Alpha  occ. eigenvalues --   -0.49731  -0.49347  -0.49016  -0.48506  -0.48289
 Alpha  occ. eigenvalues --   -0.48275  -0.48126  -0.47820  -0.47807  -0.47628
 Alpha  occ. eigenvalues --   -0.47393  -0.47392  -0.47332  -0.47027  -0.46995
 Alpha  occ. eigenvalues --   -0.46701  -0.46672  -0.46256  -0.46136  -0.46133
 Alpha  occ. eigenvalues --   -0.45952  -0.45881  -0.45683  -0.45391  -0.44971
 Alpha  occ. eigenvalues --   -0.44961  -0.44807  -0.44608  -0.44311  -0.44177
 Alpha  occ. eigenvalues --   -0.44146  -0.43939  -0.43642  -0.43558  -0.43538
 Alpha  occ. eigenvalues --   -0.43429  -0.43351  -0.42963  -0.42863  -0.42671
 Alpha  occ. eigenvalues --   -0.42351  -0.42342  -0.42086  -0.41929  -0.41799
 Alpha  occ. eigenvalues --   -0.41764  -0.41458  -0.41453  -0.41361  -0.41337
 Alpha  occ. eigenvalues --   -0.41002  -0.40805  -0.40758  -0.40638  -0.40510
 Alpha  occ. eigenvalues --   -0.40363  -0.40317  -0.40164  -0.39971  -0.39764
 Alpha  occ. eigenvalues --   -0.39646  -0.39485  -0.39446  -0.39315  -0.39182
 Alpha  occ. eigenvalues --   -0.39027  -0.38798  -0.38677  -0.38640  -0.38492
 Alpha  occ. eigenvalues --   -0.38375  -0.37826  -0.37783  -0.37780  -0.37540
 Alpha  occ. eigenvalues --   -0.37540  -0.37285  -0.37176  -0.37036  -0.37007
 Alpha  occ. eigenvalues --   -0.36677  -0.36427  -0.36392  -0.36379  -0.36165
 Alpha  occ. eigenvalues --   -0.36036  -0.35757  -0.35422  -0.35311  -0.35096
 Alpha  occ. eigenvalues --   -0.34955  -0.34727  -0.34665  -0.34603  -0.34406
 Alpha  occ. eigenvalues --   -0.33701  -0.33374  -0.32874  -0.32669  -0.32455
 Alpha  occ. eigenvalues --   -0.32393  -0.32208  -0.31781  -0.31623  -0.31388
 Alpha  occ. eigenvalues --   -0.30952  -0.30933  -0.29780  -0.29588  -0.29357
 Alpha  occ. eigenvalues --   -0.29127  -0.28767  -0.28600  -0.27437  -0.26892
 Alpha  occ. eigenvalues --   -0.26484  -0.26107  -0.25914  -0.25816  -0.25559
 Alpha  occ. eigenvalues --   -0.25354  -0.25028  -0.24949  -0.21579  -0.20910
 Alpha  occ. eigenvalues --   -0.19765  -0.18626
 Alpha virt. eigenvalues --   -0.12145  -0.10814  -0.05864  -0.05560  -0.04261
 Alpha virt. eigenvalues --   -0.04141  -0.02231  -0.02149  -0.00884  -0.00398
 Alpha virt. eigenvalues --    0.00369   0.00620   0.01122   0.01270   0.01557

 Mulliken charges:
               1
     1  Mg  12.000000
     2  C    6.000000
     3  C    6.000000
     4  C    6.000000
     5  C    6.000000
     6  N    7.000000
     7  C    6.000000
     8  C    6.000000
     9  C    6.000000
    10  C    6.000000
    11  C    6.000000
    12  C    6.000000
    13  C    6.000000
    14  H    1.000000
    15  N    7.000000
    16  C    6.000000
    17  C    6.000000
    18  C    6.000000
    19  C    6.000000
    20  C    6.000000
    21  C    6.000000
    22  O    8.000000
    23  C    6.000000
    24  N    7.000000
    25  C    6.000000
    26  C    6.000000
    27  C    6.000000
    28  C    6.000000
    29  C    6.000000
    30  C    6.000000
    31  C    6.000000
    32  N    7.000000
    33  C    6.000000
    34  C    6.000000
    35  C    6.000000
    36  C    6.000000
    37  C    6.000000
    38  C    6.000000
    39  O    8.000000
    40  C    6.000000
    41  C    6.000000
    42  O    8.000000
    43  O    8.000000
    44  C    6.000000
    45  H    1.000000
    46  H    1.000000
    47  H    1.000000
    48  H    1.000000
    49  H    1.000000
    50  H    1.000000
    51  H    1.000000
    52  H    1.000000
    53  H    1.000000
    54  H    1.000000
    55  H    1.000000
    56  H    1.000000
    57  H    1.000000
    58  H    1.000000
    59  H    1.000000
    60  H    1.000000
    61  H    1.000000
    62  H    1.000000
    63  H    1.000000
    64  H    1.000000
    65  H    1.000000
    66  H    1.000000
    67  H    1.000000
    68  H    1.000000
    69  H    1.000000
    70  H    1.000000
    71  H    1.000000
    72  H    1.000000
    73  H    1.000000
    74  H    1.000000
    75  H    1.000000
    76  H    1.000000
    77  H    1.000000
    78  H    1.000000
    79  H    1.000000
    80  Mg  12.000000
    81  C    6.000000
    82  C    6.000000
    83  C    6.000000
    84  C    6.000000
    85  N    7.000000
    86  C    6.000000
    87  C    6.000000
    88  C    6.000000
    89  C    6.000000
    90  C    6.000000
    91  C    6.000000
    92  C    6.000000
    93  H    1.000000
    94  N    7.000000
    95  C    6.000000
    96  C    6.000000
    97  C    6.000000
    98  C    6.000000
    99  C    6.000000
   100  C    6.000000
   101  O    8.000000
   102  C    6.000000
   103  N    7.000000
   104  C    6.000000
   105  C    6.000000
   106  C    6.000000
   107  C    6.000000
   108  C    6.000000
   109  C    6.000000
   110  C    6.000000
   111  N    7.000000
   112  C    6.000000
   113  C    6.000000
   114  C    6.000000
   115  C    6.000000
   116  C    6.000000
   117  C    6.000000
   118  O    8.000000
   119  C    6.000000
   120  C    6.000000
   121  O    8.000000
   122  O    8.000000
   123  C    6.000000
   124  H    1.000000
   125  H    1.000000
   126  H    1.000000
   127  H    1.000000
   128  H    1.000000
   129  H    1.000000
   130  H    1.000000
   131  H    1.000000
   132  H    1.000000
   133  H    1.000000
   134  H    1.000000
   135  H    1.000000
   136  H    1.000000
   137  H    1.000000
   138  H    1.000000
   139  H    1.000000
   140  H    1.000000
   141  H    1.000000
   142  H    1.000000
   143  H    1.000000
   144  H    1.000000
   145  H    1.000000
   146  H    1.000000
   147  H    1.000000
   148  H    1.000000
   149  H    1.000000
   150  H    1.000000
   151  H    1.000000
   152  H    1.000000
   153  H    1.000000
   154  H    1.000000
   155  H    1.000000
   156  H    1.000000
   157  H    1.000000
   158  H    1.000000
 Sum of Mulliken charges = 624.00000

 Dipole moment (field-independent basis, Debye):
    X=              0.0000    Y=             -0.0000    Z=             -0.0000  Tot=              0.0000
 Quadrupole moment (field-independent basis, Debye-Ang):
   XX=              0.0000   YY=             -0.0000   ZZ=              0.0000
   XY=             -0.0000   XZ=             -0.0000   YZ=             -0.0000

 Normal termination of Gaussian 16 at Fri Oct 15 07:56:00 2021.
