 Gaussian 16, Revision A.03,
 Gaussian 16:  ES64L-G16RevA.03 25-Dec-2016

 --------------------------------------------------------
 #p PBE1PBE/Def2SVP td=(nstates=5) density=(transition=1)
 --------------------------------------------------------

 --------------------------------
 TDDFT excited states in gaussian
 --------------------------------
 Symbolic Z-matrix:
 Charge =  0 Multiplicity = 1

                         Standard orientation:
 ---------------------------------------------------------------------
 Center     Atomic      Atomic             Coordinates (Angstroms)
 Number     Number       Type             X           Y           Z
 ---------------------------------------------------------------------
      1         12           0      -19.318386    0.265138    0.204413
      2          6           0      -17.953415   -2.683483   -0.811698
      3          6           0      -16.088101    1.472648    0.573768
      4          6           0      -20.665451    3.275299    0.834445
      5          6           0      -22.497197   -0.828634   -0.837026
      6          7           0      -17.251872   -0.457254   -0.342983
      7          6           0      -16.993165   -1.730732   -0.701731
      8          6           0      -15.554597   -1.959984   -0.990418
      9          6           0      -14.920622   -0.683904   -0.152445
     10          6           0      -16.163852    0.205152    0.060826
     11          6           0      -14.189420   -1.120117    1.151416
     12          6           0      -15.307892   -1.852918   -2.486892
     13          6           0      -15.755536   -0.526987   -3.259716
     14          1           0      -14.869910    0.067624   -4.347605
     15          7           0      -18.507980    2.110407    0.639982
     16          6           0      -17.139706    2.387041    0.888128
     17          6           0      -17.071164    3.705905    1.422962
     18          6           0      -18.334615    4.281856    1.471109
     19          6           0      -19.268603    3.236724    1.019505
     20          6           0      -15.709962    4.246365    1.811320
     21          6           0      -18.684573    5.705309    1.833788
     22          8           0      -17.714183    6.442849    2.138083
     23          6           0      -19.955113    6.326430    1.663573
     24          7           0      -21.279281    1.148742   -0.192306
     25          6           0      -21.583867    2.408074    0.233859
     26          6           0      -23.065752    2.752908   -0.048642
     27          6           0      -23.631271    1.397859   -0.592716
     28          6           0      -22.385437    0.528552   -0.617325
     29          6           0      -23.801418    3.292854    1.159170
     30          6           0      -24.328717    1.593427   -2.042840
     31          6           0      -25.641296    0.820328   -2.214413
     32          7           0      -20.171749   -1.442168   -0.671024
     33          6           0      -21.459691   -1.835050   -0.848473
     34          6           0      -21.433236   -3.248466   -1.110065
     35          6           0      -20.069697   -3.703621   -1.077064
     36          6           0      -19.350595   -2.545720   -0.830879
     37          6           0      -22.583819   -4.052503   -1.611016
     38          6           0      -19.139991   -4.769390   -1.271558
     39          8           0      -19.457743   -5.940117   -1.516078
     40          6           0      -17.764146   -4.160718   -1.072965
     41          6           0      -17.086739   -4.876711    0.035307
     42          8           0      -16.936052   -6.080239   -0.040740
     43          8           0      -16.608850   -4.071067    1.023304
     44          6           0      -15.917520   -4.764617    2.111866
     45          1           0      -15.104011    1.758852    0.950431
     46          1           0      -21.106320    4.175764    1.266778
     47          1           0      -23.469700   -1.295807   -1.007559
     48          1           0      -15.114279   -2.911047   -0.690747
     49          1           0      -14.090038   -0.234890   -0.698624
     50          1           0      -13.151472   -0.790448    1.124035
     51          1           0      -14.191018   -2.210376    1.163190
     52          1           0      -14.660580   -0.779171    2.074212
     53          1           0      -15.724392   -2.751615   -2.942300
     54          1           0      -14.245153   -2.084084   -2.558346
     55          1           0      -15.930808    0.348649   -2.634563
     56          1           0      -16.655671   -0.867263   -3.770814
     57          1           0      -15.287939    4.652435    0.891833
     58          1           0      -15.081382    3.417972    2.135654
     59          1           0      -15.694642    5.003662    2.595711
     60          1           0      -19.861127    7.396162    1.473999
     61          1           0      -20.669796    6.082240    2.450569
     62          1           0      -20.315731    5.954682    0.705440
     63          1           0      -22.996887    3.493801   -0.845923
     64          1           0      -24.286311    0.952822    0.156013
     65          1           0      -23.164800    3.462905    2.027035
     66          1           0      -24.728754    2.838402    1.506868
     67          1           0      -24.001062    4.324574    0.868220
     68          1           0      -23.696574    1.297702   -2.880188
     69          1           0      -24.508341    2.643616   -2.272234
     70          1           0      -26.460161    1.538963   -2.194732
     71          1           0      -25.781625    0.190235   -1.335866
     72          1           0      -25.680290    0.247603   -3.141131
     73          1           0      -23.410096   -4.232004   -0.924215
     74          1           0      -22.148562   -4.998355   -1.935727
     75          1           0      -23.069433   -3.584547   -2.467411
     76          1           0      -17.219179   -4.337213   -2.000765
     77          1           0      -15.093934   -5.330137    1.675040
     78          1           0      -16.576593   -5.386041    2.718341
     79          1           0      -15.593247   -4.055969    2.873806
     80         12           0       19.393406   -0.121408   -0.681349
     81          6           0       16.662133    0.480669    1.589431
     82          6           0       20.064444   -2.965873    0.935599
     83          6           0       22.364640   -0.125582   -2.231349
     84          6           0       18.822858    3.104817   -1.934427
     85          7           0       18.505145   -1.065480    1.065514
     86          6           0       17.297896   -0.772532    1.722493
     87          6           0       16.864323   -1.948255    2.678655
     88          6           0       18.012415   -2.983444    2.479074
     89          6           0       18.897473   -2.332253    1.383165
     90          6           0       18.814385   -3.370874    3.695521
     91          6           0       15.368880   -2.491993    2.366832
     92          6           0       14.425955   -2.541307    3.575389
     93          1           0       13.845892   -3.973289    3.875909
     94          7           0       20.942718   -1.455675   -0.753855
     95          6           0       21.061310   -2.567596   -0.021219
     96          6           0       22.319151   -3.263636   -0.297742
     97          6           0       23.025703   -2.359308   -1.163720
     98          6           0       22.122569   -1.232007   -1.417937
     99          6           0       22.670511   -4.563672    0.287646
    100          6           0       24.507955   -2.564362   -1.608356
    101          8           0       25.056445   -1.811522   -2.395714
    102          6           0       25.348040   -3.703281   -1.125144
    103          7           0       20.391476    1.253988   -1.868191
    104          6           0       21.589357    0.955015   -2.508409
    105          6           0       22.011850    2.109701   -3.475043
    106          6           0       20.687730    2.950133   -3.611822
    107          6           0       19.880350    2.383655   -2.444087
    108          6           0       23.320867    2.897582   -3.143186
    109          6           0       19.945733    2.753219   -4.962134
    110          6           0       19.306284    3.950785   -5.618380
    111          7           0       18.069362    1.507832   -0.248502
    112          6           0       17.969355    2.734017   -0.842164
    113          6           0       16.732878    3.442279   -0.290513
    114          6           0       16.170326    2.578736    0.618088
    115          6           0       17.054903    1.447007    0.662579
    116          6           0       16.255891    4.778638   -0.812117
    117          6           0       15.107647    2.352148    1.581349
    118          8           0       14.187766    3.164565    1.812211
    119          6           0       15.440257    0.948076    2.367402
    120          6           0       15.787242    1.107722    3.832892
    121          8           0       16.694353    1.883413    4.193871
    122          8           0       14.882699    0.454595    4.671128
    123          6           0       14.952600    0.938989    6.044821
    124          1           0       20.277474   -3.955936    1.343560
    125          1           0       23.321388   -0.240054   -2.744493
    126          1           0       18.637087    4.045150   -2.458499
    127          1           0       16.868857   -1.466926    3.656416
    128          1           0       17.499472   -3.921554    2.262669
    129          1           0       18.518961   -2.830373    4.594890
    130          1           0       19.773655   -2.934937    3.418551
    131          1           0       18.762304   -4.435420    3.925827
    132          1           0       15.557408   -3.481069    1.950285
    133          1           0       14.950652   -1.920689    1.538525
    134          1           0       13.656643   -1.789436    3.399473
    135          1           0       14.975966   -2.245919    4.469800
    136          1           0       23.594911   -4.677690    0.852986
    137          1           0       22.943785   -5.178625   -0.569068
    138          1           0       21.841328   -5.122801    0.721710
    139          1           0       24.830579   -4.600051   -1.468039
    140          1           0       25.285256   -3.694163   -0.036631
    141          1           0       26.342297   -3.528861   -1.534489
    142          1           0       22.190577    1.597844   -4.420673
    143          1           0       20.829392    4.005781   -3.381421
    144          1           0       23.757750    2.347006   -2.310369
    145          1           0       23.167612    3.957738   -2.943518
    146          1           0       24.085144    2.765507   -3.910044
    147          1           0       19.195176    2.045490   -4.610688
    148          1           0       20.524351    2.242893   -5.732384
    149          1           0       19.542016    3.862088   -6.678946
    150          1           0       19.722519    4.899411   -5.277793
    151          1           0       18.230645    3.782883   -5.559046
    152          1           0       16.968563    5.098595   -1.572050
    153          1           0       16.334996    5.504659   -0.003267
    154          1           0       15.221399    4.693322   -1.144142
    155          1           0       14.604785    0.265075    2.213762
    156          1           0       14.087528    1.507745    6.382969
    157          1           0       15.838762    1.535278    6.262675
    158          1           0       15.027841    0.051968    6.673291
 ---------------------------------------------------------------------

 SCF Done:  E(RPBE1PBE) =  -4067.36398479     A.U. after   16 cycles

 Excitation energies and oscillator strengths:

 Excited State   1:      Singlet-A      1.7831 eV  695.33 nm  f=0.0000  <S**2>=0.000
     312 -> 313        0.70711
 This state for optimization and/or second-order correction.
 Total Energy, E(TD-HF/TD-DFT) =  -4067.29845699
 Copying the excited state density for this state as the 1-particle RhoCI density.

 Excited State   2:      Singlet-A      1.8518 eV  669.55 nm  f=0.4031  <S**2>=0.000
     310 -> 316        0.16674
     312 -> 314        0.69620
     312 <- 314       -0.11424

 Excited State   3:      Singlet-A      1.8909 eV  655.70 nm  f=0.3828  <S**2>=0.000
     309 -> 315       -0.16983
     311 -> 313        0.69187
     311 <- 313       -0.10818

 Excited State   4:      Singlet-A      2.1675 eV  572.02 nm  f=0.0000  <S**2>=0.000
     311 -> 314        0.70710

 Excited State   5:      Singlet-A      2.2081 eV  561.50 nm  f=0.1165  <S**2>=0.000
     309 -> 313        0.66035
     311 -> 315        0.22033

 The electronic state is 1-A.
 Alpha  occ. eigenvalues --  -46.92467 -46.91821 -19.27251 -19.27050 -19.20982
 Alpha  occ. eigenvalues --  -19.20048 -19.19752 -19.18886 -19.18678 -19.18241
 Alpha  occ. eigenvalues --  -14.42079 -14.41566 -14.41476 -14.41246 -14.39378
 Alpha  occ. eigenvalues --  -14.39282 -14.39086 -14.38377 -10.37752 -10.36511
 Alpha  occ. eigenvalues --  -10.33565 -10.32205 -10.31812 -10.31724 -10.29972
 Alpha  occ. eigenvalues --  -10.29300 -10.29234 -10.28913 -10.28812 -10.28732
 Alpha  occ. eigenvalues --  -10.28675 -10.28322 -10.28269 -10.28021 -10.28019
 Alpha  occ. eigenvalues --  -10.27979 -10.27864 -10.27621 -10.27454 -10.27388
 Alpha  occ. eigenvalues --  -10.27131 -10.26734 -10.26574 -10.26486 -10.26410
 Alpha  occ. eigenvalues --  -10.26376 -10.26256 -10.26241 -10.26213 -10.26138
 Alpha  occ. eigenvalues --  -10.26089 -10.26063 -10.25870 -10.25785 -10.25688
 Alpha  occ. eigenvalues --  -10.25683 -10.25533 -10.25359 -10.25219 -10.25126
 Alpha  occ. eigenvalues --  -10.24973 -10.24901 -10.24897 -10.24885 -10.24881
 Alpha  occ. eigenvalues --  -10.24863 -10.24675 -10.24645 -10.24630 -10.24482
 Alpha  occ. eigenvalues --  -10.24160 -10.23980 -10.23777 -10.23651 -10.23542
 Alpha  occ. eigenvalues --  -10.23539 -10.23473 -10.23310 -10.23076 -10.23065
 Alpha  occ. eigenvalues --  -10.22999 -10.22949 -10.22853 -10.22847 -10.22561
 Alpha  occ. eigenvalues --  -10.22458  -3.14502  -3.14047  -1.87318  -1.86895
 Alpha  occ. eigenvalues --   -1.86869  -1.86707  -1.86405  -1.86298  -1.12206
 Alpha  occ. eigenvalues --   -1.11006  -1.04970  -1.03892  -1.03658  -1.02948
 Alpha  occ. eigenvalues --   -1.02882  -1.02652  -0.99555  -0.99138  -0.98585
 Alpha  occ. eigenvalues --   -0.97999  -0.97546  -0.97250  -0.96536  -0.95973
 Alpha  occ. eigenvalues --   -0.88535  -0.86890  -0.83524  -0.83446  -0.83314
 Alpha  occ. eigenvalues --   -0.83036  -0.83016  -0.82393  -0.82081  -0.81639
 Alpha  occ. eigenvalues --   -0.81580  -0.80513  -0.80402  -0.80173  -0.79389
 Alpha  occ. eigenvalues --   -0.78586  -0.78448  -0.77925  -0.77501  -0.77049
 Alpha  occ. eigenvalues --   -0.76988  -0.76178  -0.75787  -0.75508  -0.75257
 Alpha  occ. eigenvalues --   -0.74562  -0.72975  -0.72829  -0.72241  -0.71916
 Alpha  occ. eigenvalues --   -0.71381  -0.71218  -0.70490  -0.70433  -0.69275
 Alpha  occ. eigenvalues --   -0.69151  -0.66999  -0.66861  -0.66545  -0.65459
 Alpha  occ. eigenvalues --   -0.64417  -0.63624  -0.63426  -0.63232  -0.62797
 Alpha  occ. eigenvalues --   -0.62199  -0.61532  -0.61201  -0.60968  -0.59817
 Alpha  occ. eigenvalues --   -0.59761  -0.59750  -0.59487  -0.59421  -0.58902
 Alpha  occ. eigenvalues --   -0.58900  -0.58402  -0.57149  -0.54924  -0.54778
 Alpha  occ. eigenvalues --   -0.54285  -0.54225  -0.53836  -0.53299  -0.53225
 Alpha  occ. eigenvalues --   -0.53142  -0.52999  -0.52906  -0.52669  -0.51961
 Alpha  occ. eigenvalues --   -0.51288  -0.51131  -0.50866  -0.50415  -0.49939
 Alpha  occ. eigenvalues --   -0.49716  -0.49654  -0.49331  -0.49136  -0.48869
 Alpha  occ. eigenvalues --   -0.48427  -0.48383  -0.48170  -0.47788  -0.47711
 Alpha  occ. eigenvalues --   -0.47690  -0.47234  -0.46958  -0.46892  -0.46480
 Alpha  occ. eigenvalues --   -0.46440  -0.46423  -0.46207  -0.46055  -0.46010
 Alpha  occ. eigenvalues --   -0.45928  -0.45781  -0.45721  -0.45533  -0.45322
 Alpha  occ. eigenvalues --   -0.44907  -0.44743  -0.44194  -0.44144  -0.44042
 Alpha  occ. eigenvalues --   -0.43957  -0.43866  -0.43791  -0.43409  -0.43360
 Alpha  occ. eigenvalues --   -0.43352  -0.43305  -0.43185  -0.42990  -0.42809
 Alpha  occ. eigenvalues --   -0.42758  -0.42624  -0.42255  -0.41917  -0.41756
 Alpha  occ. eigenvalues --   -0.41707  -0.41524  -0.41482  -0.41185  -0.41123
 Alpha  occ. eigenvalues --   -0.41005  -0.40817  -0.40744  -0.40695  -0.40521
 Alpha  occ. eigenvalues --   -0.40443  -0.40425  -0.40098  -0.39977  -0.39572
 Alpha  occ. eigenvalues --   -0.39474  -0.39436  -0.39325  -0.39300  -0.39109
 Alpha  occ. eigenvalues --   -0.38899  -0.38867  -0.38613  -0.38433  -0.38403
 Alpha  occ. eigenvalues --   -0.38324  -0.37929  -0.37844  -0.37667  -0.37623
 Alpha  occ. eigenvalues --   -0.37471  -0.37381  -0.37143  -0.37095  -0.36766
 Alpha  occ. eigenvalues --   -0.36641  -0.36639  -0.36588  -0.36083  -0.36017
 Alpha  occ. eigenvalues --   -0.36010  -0.35800  -0.35669  -0.35531  -0.35261
 Alpha  occ. eigenvalues --   -0.35086  -0.34507  -0.34434  -0.34112  -0.34070
 Alpha  occ. eigenvalues --   -0.33657  -0.33307  -0.32823  -0.32800  -0.32679
 Alpha  occ. eigenvalues --   -0.32475  -0.32460  -0.32274  -0.31949  -0.31528
 Alpha  occ. eigenvalues --   -0.31147  -0.31024  -0.29829  -0.29764  -0.29648
 Alpha  occ. eigenvalues --   -0.29180  -0.28554  -0.28553  -0.27366  -0.27096
 Alpha  occ. eigenvalues --   -0.26372  -0.25890  -0.25617  -0.25580  -0.25445
 Alpha  occ. eigenvalues --   -0.25428  -0.25350  -0.24803  -0.21195  -0.21073
 Alpha  occ. eigenvalues --   -0.19251  -0.18461
 Alpha virt. eigenvalues --   -0.11566  -0.10942  -0.05401  -0.04856  -0.04294
 Alpha virt. eigenvalues --   -0.04033  -0.02350  -0.02268  -0.01706  -0.01378
 Alpha virt. eigenvalues --   -0.00814   0.00352   0.00525   0.01283   0.01319

 Mulliken charges:
               1
     1  Mg  12.000000
     2  C    6.000000
     3  C    6.000000
     4  C    6.000000
     5  C    6.000000
     6  N    7.000000
     7  C    6.000000
     8  C    6.000000
     9  C    6.000000
    10  C    6.000000
    11  C    6.000000
    12  C    6.000000
    13  C    6.000000
    14  H    1.000000
    15  N    7.000000
    16  C    6.000000
    17  C    6.000000
    18  C    6.000000
    19  C    6.000000
    20  C    6.000000
    21  C    6.000000
    22  O    8.000000
    23  C    6.000000
    24  N    7.000000
    25  C    6.000000
    26  C    6.000000
    27  C    6.000000
    28  C    6.000000
    29  C    6.000000
    30  C    6.000000
    31  C    6.000000
    32  N    7.000000
    33  C    6.000000
    34  C    6.000000
    35  C    6.000000
    36  C    6.000000
    37  C    6.000000
    38  C    6.000000
    39  O    8.000000
    40  C    6.000000
    41  C    6.000000
    42  O    8.000000
    43  O    8.000000
    44  C    6.000000
    45  H    1.000000
    46  H    1.000000
    47  H    1.000000
    48  H    1.000000
    49  H    1.000000
    50  H    1.000000
    51  H    1.000000
    52  H    1.000000
    53  H    1.000000
    54  H    1.000000
    55  H    1.000000
    56  H    1.000000
    57  H    1.000000
    58  H    1.000000
    59  H    1.000000
    60  H    1.000000
    61  H    1.000000
    62  H    1.000000
    63  H    1.000000
    64  H    1.000000
    65  H    1.000000
    66  H    1.000000
    67  H    1.000000
    68  H    1.000000
    69  H    1.000000
    70  H    1.000000
    71  H    1.000000
    72  H    1.000000
    73  H    1.000000
    74  H    1.000000
    75  H    1.000000
    76  H    1.000000
    77  H    1.000000
    78  H    1.000000
    79  H    1.000000
    80  Mg  12.000000
    81  C    6.000000
    82  C    6.000000
    83  C    6.000000
    84  C    6.000000
    85  N    7.000000
    86  C    6.000000
    87  C    6.000000
    88  C    6.000000
    89  C    6.000000
    90  C    6.000000
    91  C    6.000000
    92  C    6.000000
    93  H    1.000000
    94  N    7.000000
    95  C    6.000000
    96  C    6.000000
    97  C    6.000000
    98  C    6.000000
    99  C    6.000000
   100  C    6.000000
   101  O    8.000000
   102  C    6.000000
   103  N    7.000000
   104  C    6.000000
   105  C    6.000000
   106  C    6.000000
   107  C    6.000000
   108  C    6.000000
   109  C    6.000000
   110  C    6.000000
   111  N    7.000000
   112  C    6.000000
   113  C    6.000000
   114  C    6.000000
   115  C    6.000000
   116  C    6.000000
   117  C    6.000000
   118  O    8.000000
   119  C    6.000000
   120  C    6.000000
   121  O    8.000000
   122  O    8.000000
   123  C    6.000000
   124  H    1.000000
   125  H    1.000000
   126  H    1.000000
   127  H    1.000000
   128  H    1.000000
   129  H    1.000000
   130  H    1.000000
   131  H    1.000000
   132  H    1.000000
   133  H    1.000000
   134  H    1.000000
   135  H    1.000000
   136  H    1.000000
   137  H    1.000000
   138  H    1.000000
   139  H    1.000000
   140  H    1.000000
   141  H    1.000000
   142  H    1.000000
   143  H    1.000000
   144  H    1.000000
   145  H    1.000000
   146  H    1.000000
   147  H    1.000000
   148  H    1.000000
   149  H    1.000000
   150  H    1.000000
   151  H    1.000000
   152  H    1.000000
   153  H    1.000000
   154  H    1.000000
   155  H    1.000000
   156  H    1.000000
   157  H    1.000000
   158  H    1.000000
 Sum of Mulliken charges = 624.00000

 Dipole moment (field-independent basis, Debye):
    X=              0.0000    Y=              0.0000    Z=              0.0000  Tot=              0.0000
 Quadrupole moment (field-independent basis, Debye-Ang):
   XX=             -0.0000   YY=             -0.0000   ZZ=              0.0000
   XY=             -0.0000   XZ=             -0.0000   YZ=              0.0000

 Normal termination of Gaussian 16 at Thu Oct 14 23:22:42 2021.
