 Gaussian 16, Revision A.03,
 Gaussian 16:  ES64L-G16RevA.03 25-Dec-2016

 --------------------------------------------------------
 #p PBE1PBE/Def2SVP td=(nstates=5) density=(transition=1)
 --------------------------------------------------------

 --------------------------------
 TDDFT excited states in gaussian
 --------------------------------
 Symbolic Z-matrix:
 Charge =  0 Multiplicity = 1

                         Standard orientation:
 ---------------------------------------------------------------------
 Center     Atomic      Atomic             Coordinates (Angstroms)
 Number     Number       Type             X           Y           Z
 ---------------------------------------------------------------------
      1         12           0      -16.344332   -0.636701   -0.258014
      2          6           0      -16.119619    1.883693    2.015358
      3          6           0      -13.585470   -2.186895    1.091974
      4          6           0      -16.584316   -2.977269   -2.692129
      5          6           0      -18.862452    1.221575   -1.900463
      6          7           0      -14.866767   -0.074560    1.243646
      7          6           0      -15.189250    0.811692    2.223243
      8          6           0      -14.343210    0.680867    3.444152
      9          6           0      -13.360969   -0.508283    2.962335
     10          6           0      -13.959018   -0.975207    1.675921
     11          6           0      -11.852765   -0.023344    2.772106
     12          6           0      -15.270584    0.237438    4.669791
     13          6           0      -14.763810    0.545729    6.080375
     14          1           0      -13.310205    0.962724    6.416005
     15          7           0      -15.330987   -2.408018   -0.716232
     16          6           0      -14.188626   -2.857842   -0.034206
     17          6           0      -13.764312   -4.077940   -0.680747
     18          6           0      -14.639392   -4.333881   -1.755963
     19          6           0      -15.592289   -3.233555   -1.706075
     20          6           0      -12.572762   -4.899234   -0.135311
     21          6           0      -14.537661   -5.519903   -2.851237
     22          8           0      -15.432710   -5.747059   -3.675101
     23          6           0      -13.370259   -6.487110   -2.958094
     24          7           0      -17.641625   -0.858819   -2.037812
     25          6           0      -17.478780   -1.911582   -2.874326
     26          6           0      -18.260322   -1.718835   -4.172854
     27          6           0      -19.272433   -0.499116   -3.767393
     28          6           0      -18.660414   -0.039435   -2.434823
     29          6           0      -17.388605   -1.536581   -5.498565
     30          6           0      -20.793828   -0.910847   -3.427683
     31          6           0      -21.941836   -0.157525   -4.074005
     32          7           0      -17.385769    1.159598   -0.030938
     33          6           0      -18.338795    1.787403   -0.741865
     34          6           0      -18.764279    3.033015   -0.029805
     35          6           0      -17.914969    3.040547    1.102044
     36          6           0      -17.031199    1.943427    0.956328
     37          6           0      -19.829336    4.023030   -0.344571
     38          6           0      -17.651008    3.816842    2.255100
     39          8           0      -18.187446    4.868667    2.659911
     40          6           0      -16.466770    3.105266    2.904525
     41          6           0      -15.349835    4.020061    2.966052
     42          8           0      -14.806440    4.644378    2.109272
     43          8           0      -14.887989    3.978882    4.278245
     44          6           0      -13.676112    4.762657    4.732586
     45          1           0      -12.871621   -2.843101    1.593451
     46          1           0      -16.592175   -3.683136   -3.525696
     47          1           0      -19.484120    1.933300   -2.446564
     48          1           0      -13.749177    1.513830    3.819660
     49          1           0      -13.352723   -1.329979    3.678444
     50          1           0      -11.082967   -0.744740    3.045168
     51          1           0      -11.727849    0.947455    3.251494
     52          1           0      -11.720940    0.148358    1.703320
     53          1           0      -15.488199   -0.830393    4.640445
     54          1           0      -16.213591    0.762097    4.514174
     55          1           0      -15.008261   -0.334702    6.676018
     56          1           0      -15.392565    1.324435    6.510419
     57          1           0      -12.139879   -4.505456    0.784187
     58          1           0      -11.832816   -4.939158   -0.933991
     59          1           0      -12.932207   -5.916774    0.019751
     60          1           0      -13.446470   -7.103062   -2.062813
     61          1           0      -12.411149   -6.008092   -2.760232
     62          1           0      -13.327850   -6.924379   -3.955431
     63          1           0      -18.879518   -2.604763   -4.318643
     64          1           0      -19.299017    0.261280   -4.548147
     65          1           0      -17.611598   -0.590475   -5.992342
     66          1           0      -17.563360   -2.369594   -6.178530
     67          1           0      -16.327499   -1.477180   -5.255266
     68          1           0      -20.973361   -0.948018   -2.353312
     69          1           0      -20.891019   -1.957807   -3.713378
     70          1           0      -22.554332    0.227763   -3.259579
     71          1           0      -22.522822   -0.773200   -4.760102
     72          1           0      -21.557278    0.721737   -4.592730
     73          1           0      -20.448539    3.773027   -1.205917
     74          1           0      -19.399491    5.002627   -0.555276
     75          1           0      -20.480092    4.112891    0.524992
     76          1           0      -16.695647    2.761155    3.913560
     77          1           0      -13.224279    5.285512    3.889354
     78          1           0      -12.917044    4.075679    5.109105
     79          1           0      -14.047402    5.456142    5.487073
     80         12           0       16.332716   -0.435169    0.416684
     81          6           0       15.552832    2.473484   -1.338616
     82          6           0       12.979463   -1.230121    0.507918
     83          6           0       17.300542   -3.161218    1.965964
     84          6           0       19.786466   -0.029365   -0.673946
     85          7           0       14.432923    0.629562   -0.327468
     86          6           0       14.351107    1.789843   -1.044879
     87          6           0       12.933006    2.152981   -1.309187
     88          6           0       12.108403    0.927374   -0.746460
     89          6           0       13.224091    0.002266   -0.120971
     90          6           0       10.913403    1.312372    0.161613
     91          6           0       12.640377    2.402263   -2.808741
     92          6           0       11.946539    3.748554   -3.008606
     93          1           0       10.613913    3.757893   -3.816706
     94          7           0       15.270484   -1.975883    1.169214
     95          6           0       13.885010   -2.130653    1.163557
     96          6           0       13.627774   -3.347768    1.922434
     97          6           0       14.893052   -3.927396    2.401210
     98          6           0       15.931503   -2.969587    1.905735
     99          6           0       12.317862   -3.955386    2.004735
    100          6           0       14.959204   -5.247047    3.051126
    101          8           0       13.990555   -5.930606    3.308801
    102          6           0       16.231205   -5.946939    3.381321
    103          7           0       18.199128   -1.415287    0.557516
    104          6           0       18.364755   -2.388156    1.510486
    105          6           0       19.805203   -2.854145    1.534652
    106          6           0       20.422781   -2.189658    0.361504
    107          6           0       19.429316   -1.202478   -0.004668
    108          6           0       20.549060   -2.667200    2.920129
    109          6           0       20.585015   -3.141679   -0.872896
    110          6           0       21.698035   -2.862565   -1.773495
    111          7           0       17.501593    0.943560   -0.744089
    112          6           0       18.868379    1.023101   -1.041529
    113          6           0       19.152903    2.315165   -1.582351
    114          6           0       17.908029    2.906779   -1.761259
    115          6           0       16.902048    2.003579   -1.263880
    116          6           0       20.519094    2.794581   -1.908664
    117          6           0       17.248572    4.039377   -2.277916
    118          8           0       17.700245    5.033276   -2.801545
    119          6           0       15.744133    3.843694   -1.985723
    120          6           0       15.257020    4.982974   -1.191857
    121          8           0       15.309214    5.077990    0.045983
    122          8           0       14.877673    6.002288   -2.034809
    123          6           0       14.264236    7.206875   -1.499614
    124          1           0       11.900073   -1.385765    0.553149
    125          1           0       17.760223   -4.051204    2.402977
    126          1           0       20.837434    0.063994   -0.955461
    127          1           0       12.714378    2.925173   -0.571072
    128          1           0       11.615725    0.341333   -1.521689
    129          1           0       10.751829    2.358660   -0.100569
    130          1           0       11.026841    1.117131    1.228021
    131          1           0       10.027539    0.751659   -0.135627
    132          1           0       11.926406    1.703432   -3.244220
    133          1           0       13.602394    2.348867   -3.318096
    134          1           0       12.677144    4.224448   -3.662534
    135          1           0       11.896156    4.233243   -2.034715
    136          1           0       11.613980   -3.309267    1.479723
    137          1           0       11.889921   -4.035662    3.004446
    138          1           0       12.334710   -4.918775    1.493915
    139          1           0       16.759920   -5.123543    3.861543
    140          1           0       16.718264   -6.240972    2.451206
    141          1           0       16.060798   -6.773605    4.071362
    142          1           0       19.714433   -3.931207    1.398845
    143          1           0       21.322996   -1.597397    0.525956
    144          1           0       19.838847   -2.395221    3.701201
    145          1           0       21.435301   -2.032665    2.884595
    146          1           0       20.897009   -3.606256    3.349592
    147          1           0       19.652853   -3.156044   -1.437802
    148          1           0       20.730264   -4.171476   -0.546897
    149          1           0       22.585964   -3.371622   -1.397033
    150          1           0       21.866931   -1.793183   -1.904219
    151          1           0       21.558404   -3.407272   -2.707808
    152          1           0       21.241408    2.463845   -1.162477
    153          1           0       20.588017    3.873394   -2.049269
    154          1           0       20.776613    2.234883   -2.807893
    155          1           0       15.123217    3.940009   -2.876489
    156          1           0       14.882318    7.918378   -0.951943
    157          1           0       13.398089    6.935994   -0.896204
    158          1           0       13.967691    7.765077   -2.386856
 ---------------------------------------------------------------------

 SCF Done:  E(RPBE1PBE) =  -4067.34925076     A.U. after   16 cycles

 Excitation energies and oscillator strengths:

 Excited State   1:      Singlet-A      1.8318 eV  676.84 nm  f=0.0000  <S**2>=0.000
     312 -> 313        0.70710
 This state for optimization and/or second-order correction.
 Total Energy, E(TD-HF/TD-DFT) =  -4067.28193335
 Copying the excited state density for this state as the 1-particle RhoCI density.

 Excited State   2:      Singlet-A      1.8373 eV  674.83 nm  f=0.3502  <S**2>=0.000
     309 -> 315       -0.18244
     311 -> 313        0.68978
     311 <- 313       -0.10420

 Excited State   3:      Singlet-A      1.8923 eV  655.19 nm  f=0.3879  <S**2>=0.000
     310 -> 316        0.18637
     312 -> 314        0.68953
     312 <- 314       -0.10197

 Excited State   4:      Singlet-A      2.1345 eV  580.86 nm  f=0.0000  <S**2>=0.000
     311 -> 314        0.70710

 Excited State   5:      Singlet-A      2.1966 eV  564.43 nm  f=0.0980  <S**2>=0.000
     309 -> 313        0.64583
     311 -> 315        0.27298

 The electronic state is 1-A.
 Alpha  occ. eigenvalues --  -46.92780 -46.92347 -19.25537 -19.24329 -19.19725
 Alpha  occ. eigenvalues --  -19.19600 -19.19501 -19.18948 -19.18651 -19.17620
 Alpha  occ. eigenvalues --  -14.42004 -14.41858 -14.41476 -14.41148 -14.39947
 Alpha  occ. eigenvalues --  -14.39233 -14.38958 -14.38879 -10.36109 -10.35582
 Alpha  occ. eigenvalues --  -10.33500 -10.31522 -10.31376 -10.30834 -10.29403
 Alpha  occ. eigenvalues --  -10.29353 -10.29348 -10.29208 -10.29100 -10.28902
 Alpha  occ. eigenvalues --  -10.28747 -10.28732 -10.28449 -10.28344 -10.28273
 Alpha  occ. eigenvalues --  -10.28000 -10.27723 -10.27722 -10.27610 -10.27498
 Alpha  occ. eigenvalues --  -10.26859 -10.26518 -10.26512 -10.26426 -10.26389
 Alpha  occ. eigenvalues --  -10.26329 -10.26227 -10.26182 -10.26167 -10.26137
 Alpha  occ. eigenvalues --  -10.26126 -10.26052 -10.26050 -10.26003 -10.25837
 Alpha  occ. eigenvalues --  -10.25777 -10.25706 -10.25680 -10.25544 -10.25472
 Alpha  occ. eigenvalues --  -10.25349 -10.25161 -10.25087 -10.25079 -10.25075
 Alpha  occ. eigenvalues --  -10.24957 -10.24905 -10.24811 -10.24787 -10.24313
 Alpha  occ. eigenvalues --  -10.24125 -10.24014 -10.23976 -10.23974 -10.23765
 Alpha  occ. eigenvalues --  -10.23716 -10.23702 -10.23592 -10.23566 -10.23541
 Alpha  occ. eigenvalues --  -10.23008 -10.22781 -10.22538 -10.22503 -10.22376
 Alpha  occ. eigenvalues --  -10.22288  -3.14772  -3.14419  -1.87633  -1.87262
 Alpha  occ. eigenvalues --   -1.87128  -1.87006  -1.86801  -1.86631  -1.10319
 Alpha  occ. eigenvalues --   -1.10223  -1.04871  -1.04602  -1.04326  -1.02966
 Alpha  occ. eigenvalues --   -1.01991  -1.01516  -1.00200  -0.99618  -0.99105
 Alpha  occ. eigenvalues --   -0.98496  -0.98299  -0.97658  -0.97285  -0.96196
 Alpha  occ. eigenvalues --   -0.87815  -0.87048  -0.85136  -0.83882  -0.83406
 Alpha  occ. eigenvalues --   -0.82952  -0.82509  -0.82080  -0.81843  -0.81631
 Alpha  occ. eigenvalues --   -0.81339  -0.81192  -0.80584  -0.80529  -0.79554
 Alpha  occ. eigenvalues --   -0.78890  -0.78651  -0.77766  -0.77742  -0.76828
 Alpha  occ. eigenvalues --   -0.76627  -0.75822  -0.75761  -0.75453  -0.75185
 Alpha  occ. eigenvalues --   -0.74671  -0.73039  -0.72757  -0.72312  -0.71807
 Alpha  occ. eigenvalues --   -0.71443  -0.71384  -0.70646  -0.70480  -0.69770
 Alpha  occ. eigenvalues --   -0.69557  -0.67896  -0.67030  -0.66517  -0.66450
 Alpha  occ. eigenvalues --   -0.63828  -0.63723  -0.63500  -0.63007  -0.62620
 Alpha  occ. eigenvalues --   -0.62376  -0.61892  -0.60959  -0.60441  -0.60440
 Alpha  occ. eigenvalues --   -0.59839  -0.59717  -0.59666  -0.59301  -0.59073
 Alpha  occ. eigenvalues --   -0.58808  -0.56639  -0.56326  -0.55325  -0.55074
 Alpha  occ. eigenvalues --   -0.54458  -0.54104  -0.54038  -0.53798  -0.53663
 Alpha  occ. eigenvalues --   -0.53382  -0.52891  -0.52567  -0.52315  -0.51877
 Alpha  occ. eigenvalues --   -0.51018  -0.50664  -0.50415  -0.50153  -0.50065
 Alpha  occ. eigenvalues --   -0.49802  -0.49767  -0.49048  -0.48848  -0.48657
 Alpha  occ. eigenvalues --   -0.48334  -0.47931  -0.47694  -0.47501  -0.47489
 Alpha  occ. eigenvalues --   -0.47345  -0.47120  -0.46795  -0.46722  -0.46633
 Alpha  occ. eigenvalues --   -0.46517  -0.46363  -0.46303  -0.46238  -0.46153
 Alpha  occ. eigenvalues --   -0.45995  -0.45987  -0.45842  -0.45380  -0.45122
 Alpha  occ. eigenvalues --   -0.45042  -0.44677  -0.44462  -0.44226  -0.44200
 Alpha  occ. eigenvalues --   -0.44130  -0.44053  -0.43802  -0.43720  -0.43544
 Alpha  occ. eigenvalues --   -0.43511  -0.43251  -0.43128  -0.42942  -0.42791
 Alpha  occ. eigenvalues --   -0.42603  -0.42325  -0.42308  -0.41951  -0.41866
 Alpha  occ. eigenvalues --   -0.41751  -0.41618  -0.41525  -0.41303  -0.41291
 Alpha  occ. eigenvalues --   -0.41168  -0.41053  -0.40953  -0.40915  -0.40870
 Alpha  occ. eigenvalues --   -0.40525  -0.40358  -0.40109  -0.39892  -0.39776
 Alpha  occ. eigenvalues --   -0.39436  -0.39353  -0.39268  -0.39153  -0.39029
 Alpha  occ. eigenvalues --   -0.38902  -0.38780  -0.38750  -0.38545  -0.38537
 Alpha  occ. eigenvalues --   -0.38244  -0.38119  -0.38075  -0.37918  -0.37839
 Alpha  occ. eigenvalues --   -0.37516  -0.37442  -0.37140  -0.36986  -0.36650
 Alpha  occ. eigenvalues --   -0.36637  -0.36475  -0.36384  -0.36177  -0.36160
 Alpha  occ. eigenvalues --   -0.36085  -0.35985  -0.35903  -0.35671  -0.35614
 Alpha  occ. eigenvalues --   -0.35176  -0.35089  -0.34687  -0.34341  -0.34109
 Alpha  occ. eigenvalues --   -0.33548  -0.33407  -0.32801  -0.32705  -0.32560
 Alpha  occ. eigenvalues --   -0.32342  -0.32047  -0.31836  -0.31593  -0.31422
 Alpha  occ. eigenvalues --   -0.31262  -0.31036  -0.29556  -0.29424  -0.29341
 Alpha  occ. eigenvalues --   -0.28948  -0.28676  -0.28248  -0.27056  -0.26811
 Alpha  occ. eigenvalues --   -0.26110  -0.25999  -0.25719  -0.25683  -0.25510
 Alpha  occ. eigenvalues --   -0.25480  -0.25082  -0.24358  -0.21288  -0.20794
 Alpha  occ. eigenvalues --   -0.19249  -0.18779
 Alpha virt. eigenvalues --   -0.11641  -0.11002  -0.05994  -0.05191  -0.04202
 Alpha virt. eigenvalues --   -0.03973  -0.02127  -0.02074  -0.00212  -0.00092
 Alpha virt. eigenvalues --   -0.00075   0.00720   0.00774   0.01198   0.01349

 Mulliken charges:
               1
     1  Mg  12.000000
     2  C    6.000000
     3  C    6.000000
     4  C    6.000000
     5  C    6.000000
     6  N    7.000000
     7  C    6.000000
     8  C    6.000000
     9  C    6.000000
    10  C    6.000000
    11  C    6.000000
    12  C    6.000000
    13  C    6.000000
    14  H    1.000000
    15  N    7.000000
    16  C    6.000000
    17  C    6.000000
    18  C    6.000000
    19  C    6.000000
    20  C    6.000000
    21  C    6.000000
    22  O    8.000000
    23  C    6.000000
    24  N    7.000000
    25  C    6.000000
    26  C    6.000000
    27  C    6.000000
    28  C    6.000000
    29  C    6.000000
    30  C    6.000000
    31  C    6.000000
    32  N    7.000000
    33  C    6.000000
    34  C    6.000000
    35  C    6.000000
    36  C    6.000000
    37  C    6.000000
    38  C    6.000000
    39  O    8.000000
    40  C    6.000000
    41  C    6.000000
    42  O    8.000000
    43  O    8.000000
    44  C    6.000000
    45  H    1.000000
    46  H    1.000000
    47  H    1.000000
    48  H    1.000000
    49  H    1.000000
    50  H    1.000000
    51  H    1.000000
    52  H    1.000000
    53  H    1.000000
    54  H    1.000000
    55  H    1.000000
    56  H    1.000000
    57  H    1.000000
    58  H    1.000000
    59  H    1.000000
    60  H    1.000000
    61  H    1.000000
    62  H    1.000000
    63  H    1.000000
    64  H    1.000000
    65  H    1.000000
    66  H    1.000000
    67  H    1.000000
    68  H    1.000000
    69  H    1.000000
    70  H    1.000000
    71  H    1.000000
    72  H    1.000000
    73  H    1.000000
    74  H    1.000000
    75  H    1.000000
    76  H    1.000000
    77  H    1.000000
    78  H    1.000000
    79  H    1.000000
    80  Mg  12.000000
    81  C    6.000000
    82  C    6.000000
    83  C    6.000000
    84  C    6.000000
    85  N    7.000000
    86  C    6.000000
    87  C    6.000000
    88  C    6.000000
    89  C    6.000000
    90  C    6.000000
    91  C    6.000000
    92  C    6.000000
    93  H    1.000000
    94  N    7.000000
    95  C    6.000000
    96  C    6.000000
    97  C    6.000000
    98  C    6.000000
    99  C    6.000000
   100  C    6.000000
   101  O    8.000000
   102  C    6.000000
   103  N    7.000000
   104  C    6.000000
   105  C    6.000000
   106  C    6.000000
   107  C    6.000000
   108  C    6.000000
   109  C    6.000000
   110  C    6.000000
   111  N    7.000000
   112  C    6.000000
   113  C    6.000000
   114  C    6.000000
   115  C    6.000000
   116  C    6.000000
   117  C    6.000000
   118  O    8.000000
   119  C    6.000000
   120  C    6.000000
   121  O    8.000000
   122  O    8.000000
   123  C    6.000000
   124  H    1.000000
   125  H    1.000000
   126  H    1.000000
   127  H    1.000000
   128  H    1.000000
   129  H    1.000000
   130  H    1.000000
   131  H    1.000000
   132  H    1.000000
   133  H    1.000000
   134  H    1.000000
   135  H    1.000000
   136  H    1.000000
   137  H    1.000000
   138  H    1.000000
   139  H    1.000000
   140  H    1.000000
   141  H    1.000000
   142  H    1.000000
   143  H    1.000000
   144  H    1.000000
   145  H    1.000000
   146  H    1.000000
   147  H    1.000000
   148  H    1.000000
   149  H    1.000000
   150  H    1.000000
   151  H    1.000000
   152  H    1.000000
   153  H    1.000000
   154  H    1.000000
   155  H    1.000000
   156  H    1.000000
   157  H    1.000000
   158  H    1.000000
 Sum of Mulliken charges = 624.00000

 Dipole moment (field-independent basis, Debye):
    X=             -0.0000    Y=              0.0000    Z=              0.0000  Tot=              0.0000
 Quadrupole moment (field-independent basis, Debye-Ang):
   XX=              0.0000   YY=             -0.0000   ZZ=              0.0000
   XY=             -0.0000   XZ=              0.0000   YZ=             -0.0000

 Normal termination of Gaussian 16 at Thu Oct 14 18:38:22 2021.
