 Gaussian 16, Revision A.03,
 Gaussian 16:  ES64L-G16RevA.03 25-Dec-2016

 --------------------------------------------------------
 #p PBE1PBE/Def2SVP td=(nstates=5) density=(transition=1)
 --------------------------------------------------------

 --------------------------------
 TDDFT excited states in gaussian
 --------------------------------
 Symbolic Z-matrix:
 Charge =  0 Multiplicity = 1

                         Standard orientation:
 ---------------------------------------------------------------------
 Center     Atomic      Atomic             Coordinates (Angstroms)
 Number     Number       Type             X           Y           Z
 ---------------------------------------------------------------------
      1         12           0      -13.155416   -0.597949    0.196474
      2          6           0      -13.341288    2.317956   -1.633529
      3          6           0      -11.688287    1.375233    2.800698
      4          6           0      -12.605916   -3.322336    1.907885
      5          6           0      -14.269026   -2.429171   -2.518614
      6          7           0      -12.390555    1.621931    0.423620
      7          6           0      -12.801742    2.597569   -0.368816
      8          6           0      -12.694362    3.975887    0.342735
      9          6           0      -11.662639    3.614622    1.467894
     10          6           0      -11.888010    2.102024    1.622398
     11          6           0      -10.186423    3.960698    1.060154
     12          6           0      -14.112293    4.300563    0.863185
     13          6           0      -14.312860    5.689692    1.484089
     14          1           0      -13.116035    6.566267    1.793977
     15          7           0      -12.398226   -1.001287    2.090122
     16          6           0      -11.879374   -0.028736    3.012552
     17          6           0      -11.661457   -0.741665    4.263831
     18          6           0      -12.036261   -2.102847    4.036998
     19          6           0      -12.342097   -2.220001    2.611948
     20          6           0      -11.163825   -0.077130    5.601342
     21          6           0      -12.132388   -3.244570    5.102258
     22          8           0      -12.348368   -4.360276    4.715248
     23          6           0      -11.920867   -2.951538    6.552136
     24          7           0      -13.493496   -2.610382   -0.219035
     25          6           0      -13.187115   -3.592885    0.657932
     26          6           0      -13.434996   -4.995350    0.103729
     27          6           0      -14.096443   -4.686431   -1.259391
     28          6           0      -13.941450   -3.113529   -1.342963
     29          6           0      -12.163280   -5.912232   -0.022829
     30          6           0      -15.472244   -5.250820   -1.506361
     31          6           0      -16.593859   -5.128966   -0.446785
     32          7           0      -13.697239   -0.231969   -1.712596
     33          6           0      -14.139654   -1.050577   -2.712017
     34          6           0      -14.524573   -0.201400   -3.819532
     35          6           0      -14.269999    1.168702   -3.467487
     36          6           0      -13.743898    1.067759   -2.150470
     37          6           0      -15.082558   -0.711618   -5.111415
     38          6           0      -14.268537    2.526375   -3.898096
     39          8           0      -14.584461    3.078506   -4.974512
     40          6           0      -13.383791    3.272684   -2.757774
     41          6           0      -14.015082    4.650793   -2.553128
     42          8           0      -15.143175    4.855392   -2.312688
     43          8           0      -13.042799    5.590713   -2.745059
     44          6           0      -13.290092    6.933550   -2.261664
     45          1           0      -11.181724    1.970897    3.562356
     46          1           0      -12.397181   -4.266913    2.414535
     47          1           0      -14.608955   -2.949115   -3.415865
     48          1           0      -12.250007    4.737643   -0.297704
     49          1           0      -12.026530    4.172188    2.331251
     50          1           0       -9.869370    4.861984    1.583361
     51          1           0      -10.162896    4.093873   -0.021595
     52          1           0       -9.463433    3.201137    1.357701
     53          1           0      -14.327204    3.601750    1.671209
     54          1           0      -14.882192    4.065920    0.128774
     55          1           0      -15.071371    5.704093    2.267068
     56          1           0      -14.893992    6.231718    0.737801
     57          1           0      -10.320656   -0.610656    6.041111
     58          1           0      -12.038268   -0.040281    6.250830
     59          1           0      -10.915863    0.968808    5.416720
     60          1           0      -12.527107   -3.724499    7.024999
     61          1           0      -12.374700   -2.010821    6.861781
     62          1           0      -10.920925   -2.753605    6.938094
     63          1           0      -14.139193   -5.450636    0.799734
     64          1           0      -13.484341   -4.991436   -2.108127
     65          1           0      -12.324715   -6.510587   -0.919101
     66          1           0      -12.225957   -6.517972    0.881430
     67          1           0      -11.254488   -5.312291    0.023763
     68          1           0      -15.251491   -6.315447   -1.436986
     69          1           0      -15.953715   -5.012347   -2.455330
     70          1           0      -17.008400   -6.044521   -0.026951
     71          1           0      -17.502471   -4.707948   -0.877150
     72          1           0      -16.225885   -4.545727    0.397455
     73          1           0      -15.205823    0.167820   -5.742828
     74          1           0      -16.078366   -1.126438   -4.949563
     75          1           0      -14.529852   -1.533070   -5.566352
     76          1           0      -12.371228    3.291317   -3.161380
     77          1           0      -13.062081    7.354549   -3.240988
     78          1           0      -12.690578    7.205957   -1.392796
     79          1           0      -14.334735    7.144880   -2.031797
     80         12           0       12.783493   -0.560126   -0.367329
     81          6           0       15.081127    1.960924   -0.049918
     82          6           0       10.360218    1.496863    0.679524
     83          6           0       10.694870   -3.202832   -0.497373
     84          6           0       15.532509   -2.857162   -0.988465
     85          7           0       12.810569    1.473412    0.513506
     86          6           0       13.816800    2.352978    0.439870
     87          6           0       13.337467    3.810494    0.941449
     88          6           0       11.799332    3.536223    1.136127
     89          6           0       11.606562    2.044439    0.796693
     90          6           0       11.259327    3.982372    2.508823
     91          6           0       13.643810    4.953677   -0.067313
     92          6           0       12.922660    6.327358    0.127252
     93          1           0       13.756950    7.510316    0.750036
     94          7           0       10.789348   -0.827532    0.087472
     95          6           0        9.945082    0.134314    0.397370
     96          6           0        8.612959   -0.438312    0.518750
     97          6           0        8.666368   -1.846337    0.290967
     98          6           0       10.092904   -2.014278   -0.063369
     99          6           0        7.373448    0.303267    0.991318
    100          6           0        7.588046   -2.917486    0.417212
    101          8           0        7.881328   -4.108534    0.466389
    102          6           0        6.162694   -2.493358    0.485204
    103          7           0       13.091535   -2.738944   -0.654044
    104          6           0       12.065922   -3.580288   -0.709519
    105          6           0       12.495206   -4.985813   -1.161974
    106          6           0       13.964908   -4.742266   -1.494790
    107          6           0       14.207930   -3.372705   -0.980031
    108          6           0       12.242874   -6.160279   -0.204886
    109          6           0       14.341234   -5.088269   -2.913245
    110          6           0       15.383317   -6.249532   -3.090893
    111          7           0       14.818923   -0.496336   -0.547604
    112          6           0       15.816359   -1.472441   -0.882758
    113          6           0       17.116318   -0.858196   -1.040446
    114          6           0       16.812064    0.495788   -0.727145
    115          6           0       15.449795    0.641574   -0.436378
    116          6           0       18.406391   -1.392799   -1.554466
    117          6           0       17.441054    1.790368   -0.800283
    118          8           0       18.524218    2.202324   -1.241762
    119          6           0       16.453884    2.795072   -0.260908
    120          6           0       16.937816    3.253859    1.132366
    121          8           0       17.405937    2.550606    2.040840
    122          8           0       16.752860    4.602442    1.207601
    123          6           0       17.184461    5.295673    2.462630
    124          1           0        9.466677    2.089326    0.887009
    125          1           0       10.141842   -4.135808   -0.370187
    126          1           0       16.284178   -3.578819   -1.313326
    127          1           0       13.845114    3.933544    1.897449
    128          1           0       11.269444    4.081561    0.355181
    129          1           0       10.303875    4.473383    2.327339
    130          1           0       11.905719    4.722551    2.980555
    131          1           0       11.132910    3.128000    3.173892
    132          1           0       13.220750    4.615238   -1.013121
    133          1           0       14.713228    5.163919   -0.078070
    134          1           0       12.146775    6.171053    0.877405
    135          1           0       12.567688    6.674631   -0.842445
    136          1           0        7.592309    1.350144    1.201559
    137          1           0        6.995936   -0.160260    1.902437
    138          1           0        6.571999    0.265085    0.254627
    139          1           0        6.034195   -1.796969   -0.343901
    140          1           0        5.730156   -2.001030    1.355664
    141          1           0        5.468706   -3.324604    0.365417
    142          1           0       11.951395   -5.215907   -2.077541
    143          1           0       14.550602   -5.421949   -0.876099
    144          1           0       11.931134   -6.971644   -0.862149
    145          1           0       11.521939   -5.881669    0.563565
    146          1           0       13.098641   -6.427398    0.415043
    147          1           0       14.856634   -4.195260   -3.265365
    148          1           0       13.489560   -5.351640   -3.539788
    149          1           0       15.699813   -6.618466   -2.114917
    150          1           0       16.254726   -5.825990   -3.591198
    151          1           0       15.071499   -7.062246   -3.747072
    152          1           0       18.259034   -2.386501   -1.976661
    153          1           0       19.019741   -1.553941   -0.668686
    154          1           0       18.734745   -0.660929   -2.293883
    155          1           0       16.477114    3.606859   -0.988177
    156          1           0       16.874096    4.812846    3.389587
    157          1           0       16.909422    6.348709    2.512418
    158          1           0       18.271760    5.221495    2.471966
 ---------------------------------------------------------------------

 SCF Done:  E(RPBE1PBE) =  -4067.37367055     A.U. after   16 cycles

 Excitation energies and oscillator strengths:

 Excited State   1:      Singlet-A      1.8787 eV  659.95 nm  f=0.4096  <S**2>=0.000
     309 -> 316        0.16320
     311 -> 314       -0.13731
     312 -> 313        0.67683
     312 <- 313       -0.10348
 This state for optimization and/or second-order correction.
 Total Energy, E(TD-HF/TD-DFT) =  -4067.30463043
 Copying the excited state density for this state as the 1-particle RhoCI density.

 Excited State   2:      Singlet-A      1.8862 eV  657.33 nm  f=0.3468  <S**2>=0.000
     310 -> 315        0.18653
     311 -> 314        0.67420
     312 -> 313        0.13762

 Excited State   3:      Singlet-A      1.9670 eV  630.31 nm  f=0.0000  <S**2>=0.000
     311 -> 313        0.70709

 Excited State   4:      Singlet-A      1.9706 eV  629.17 nm  f=0.0000  <S**2>=0.000
     312 -> 314        0.70710

 Excited State   5:      Singlet-A      2.2138 eV  560.05 nm  f=0.0882  <S**2>=0.000
     310 -> 314        0.64978
     311 -> 315       -0.26396

 The electronic state is 1-A.
 Alpha  occ. eigenvalues --  -46.92608 -46.91732 -19.26321 -19.25095 -19.20466
 Alpha  occ. eigenvalues --  -19.19754 -19.19693 -19.19416 -19.19265 -19.18026
 Alpha  occ. eigenvalues --  -14.41474 -14.41404 -14.41318 -14.41244 -14.39662
 Alpha  occ. eigenvalues --  -14.39083 -14.38991 -14.38988 -10.36658 -10.35937
 Alpha  occ. eigenvalues --  -10.33178 -10.32526 -10.32224 -10.30561 -10.29437
 Alpha  occ. eigenvalues --  -10.29436 -10.28737 -10.28676 -10.28449 -10.28438
 Alpha  occ. eigenvalues --  -10.28355 -10.28321 -10.28274 -10.28226 -10.28128
 Alpha  occ. eigenvalues --  -10.27939 -10.27830 -10.27823 -10.27292 -10.27004
 Alpha  occ. eigenvalues --  -10.26901 -10.26764 -10.26459 -10.26348 -10.26329
 Alpha  occ. eigenvalues --  -10.26309 -10.26236 -10.26230 -10.26168 -10.25948
 Alpha  occ. eigenvalues --  -10.25851 -10.25702 -10.25694 -10.25618 -10.25610
 Alpha  occ. eigenvalues --  -10.25467 -10.25390 -10.25352 -10.25323 -10.25214
 Alpha  occ. eigenvalues --  -10.25185 -10.24976 -10.24854 -10.24532 -10.24479
 Alpha  occ. eigenvalues --  -10.24400 -10.24386 -10.24386 -10.24255 -10.24137
 Alpha  occ. eigenvalues --  -10.24072 -10.23983 -10.23920 -10.23878 -10.23845
 Alpha  occ. eigenvalues --  -10.23803 -10.23682 -10.23652 -10.23605 -10.23451
 Alpha  occ. eigenvalues --  -10.23219 -10.23179 -10.23168 -10.22741 -10.22706
 Alpha  occ. eigenvalues --  -10.22226  -3.14714  -3.13947  -1.87546  -1.87082
 Alpha  occ. eigenvalues --   -1.86950  -1.86788  -1.86337  -1.86161  -1.12414
 Alpha  occ. eigenvalues --   -1.10375  -1.06393  -1.05066  -1.04682  -1.02776
 Alpha  occ. eigenvalues --   -1.02742  -1.01403  -1.00360  -0.99942  -0.99070
 Alpha  occ. eigenvalues --   -0.98728  -0.98594  -0.97754  -0.97702  -0.96887
 Alpha  occ. eigenvalues --   -0.87407  -0.85695  -0.84251  -0.83720  -0.83120
 Alpha  occ. eigenvalues --   -0.83029  -0.82842  -0.82510  -0.81810  -0.81721
 Alpha  occ. eigenvalues --   -0.81498  -0.81335  -0.80773  -0.80017  -0.78494
 Alpha  occ. eigenvalues --   -0.78428  -0.78065  -0.77623  -0.76786  -0.76531
 Alpha  occ. eigenvalues --   -0.76424  -0.76027  -0.75800  -0.75425  -0.74675
 Alpha  occ. eigenvalues --   -0.74448  -0.72890  -0.72400  -0.71864  -0.71732
 Alpha  occ. eigenvalues --   -0.71147  -0.71066  -0.70424  -0.70252  -0.69964
 Alpha  occ. eigenvalues --   -0.69729  -0.67165  -0.67131  -0.66522  -0.66172
 Alpha  occ. eigenvalues --   -0.64696  -0.63804  -0.63480  -0.63364  -0.62573
 Alpha  occ. eigenvalues --   -0.62238  -0.62017  -0.60752  -0.60320  -0.59730
 Alpha  occ. eigenvalues --   -0.59490  -0.59485  -0.58947  -0.58889  -0.58700
 Alpha  occ. eigenvalues --   -0.58461  -0.57236  -0.56957  -0.55264  -0.55146
 Alpha  occ. eigenvalues --   -0.54264  -0.54260  -0.53790  -0.53503  -0.53445
 Alpha  occ. eigenvalues --   -0.53289  -0.52794  -0.52646  -0.52444  -0.51905
 Alpha  occ. eigenvalues --   -0.50926  -0.50826  -0.50656  -0.50312  -0.50264
 Alpha  occ. eigenvalues --   -0.49918  -0.49692  -0.49141  -0.48855  -0.48671
 Alpha  occ. eigenvalues --   -0.48346  -0.48334  -0.48144  -0.48030  -0.47735
 Alpha  occ. eigenvalues --   -0.47173  -0.47118  -0.47068  -0.46803  -0.46800
 Alpha  occ. eigenvalues --   -0.46664  -0.46404  -0.46329  -0.45790  -0.45690
 Alpha  occ. eigenvalues --   -0.45430  -0.45359  -0.45330  -0.45051  -0.44834
 Alpha  occ. eigenvalues --   -0.44696  -0.44608  -0.44408  -0.44334  -0.44245
 Alpha  occ. eigenvalues --   -0.44183  -0.44001  -0.43993  -0.43974  -0.43637
 Alpha  occ. eigenvalues --   -0.43588  -0.43420  -0.43230  -0.42984  -0.42886
 Alpha  occ. eigenvalues --   -0.42859  -0.42704  -0.42488  -0.42375  -0.42321
 Alpha  occ. eigenvalues --   -0.41976  -0.41606  -0.41493  -0.41489  -0.41327
 Alpha  occ. eigenvalues --   -0.41202  -0.40930  -0.40747  -0.40713  -0.40697
 Alpha  occ. eigenvalues --   -0.40303  -0.40004  -0.39764  -0.39738  -0.39586
 Alpha  occ. eigenvalues --   -0.39583  -0.39303  -0.39164  -0.38886  -0.38827
 Alpha  occ. eigenvalues --   -0.38772  -0.38699  -0.38395  -0.38260  -0.38229
 Alpha  occ. eigenvalues --   -0.37854  -0.37787  -0.37781  -0.37707  -0.37660
 Alpha  occ. eigenvalues --   -0.37290  -0.37035  -0.37017  -0.36884  -0.36875
 Alpha  occ. eigenvalues --   -0.36828  -0.36766  -0.36735  -0.36469  -0.36408
 Alpha  occ. eigenvalues --   -0.36378  -0.35980  -0.35898  -0.35711  -0.35421
 Alpha  occ. eigenvalues --   -0.35173  -0.34518  -0.34478  -0.34247  -0.34036
 Alpha  occ. eigenvalues --   -0.33392  -0.33263  -0.32902  -0.32875  -0.32606
 Alpha  occ. eigenvalues --   -0.32238  -0.32117  -0.31695  -0.31362  -0.31235
 Alpha  occ. eigenvalues --   -0.31048  -0.30948  -0.30203  -0.29530  -0.29197
 Alpha  occ. eigenvalues --   -0.29164  -0.28899  -0.28703  -0.27028  -0.26808
 Alpha  occ. eigenvalues --   -0.26657  -0.26172  -0.26102  -0.25692  -0.25392
 Alpha  occ. eigenvalues --   -0.25310  -0.25057  -0.24820  -0.20889  -0.20822
 Alpha  occ. eigenvalues --   -0.18802  -0.18760
 Alpha virt. eigenvalues --   -0.11059  -0.11012  -0.05416  -0.05363  -0.04079
 Alpha virt. eigenvalues --   -0.03616  -0.01905  -0.01876  -0.00866   0.00211
 Alpha virt. eigenvalues --    0.00755   0.00920   0.01218   0.01407   0.01757

 Mulliken charges:
               1
     1  Mg  11.999546
     2  C    6.000852
     3  C    5.995392
     4  C    5.997802
     5  C    6.002587
     6  N    6.999140
     7  C    5.995598
     8  C    6.000777
     9  C    5.998166
    10  C    6.007244
    11  C    5.999504
    12  C    6.001376
    13  C    5.999806
    14  H    0.998958
    15  N    6.998425
    16  C    6.010329
    17  C    6.002245
    18  C    6.003777
    19  C    6.005057
    20  C    6.000173
    21  C    6.002906
    22  O    8.005081
    23  C    5.999188
    24  N    7.000381
    25  C    6.006662
    26  C    5.998073
    27  C    6.001053
    28  C    5.994071
    29  C    5.999836
    30  C    6.001320
    31  C    6.000367
    32  N    7.000405
    33  C    5.993808
    34  C    5.993315
    35  C    5.999235
    36  C    5.995756
    37  C    6.000165
    38  C    5.996490
    39  O    7.993297
    40  C    6.000283
    41  C    5.998788
    42  O    7.998919
    43  O    7.999789
    44  C    6.000235
    45  H    1.001764
    46  H    1.001327
    47  H    0.998848
    48  H    1.000348
    49  H    1.000251
    50  H    1.000889
    51  H    1.002843
    52  H    0.999743
    53  H    0.997503
    54  H    1.001397
    55  H    0.999085
    56  H    1.000565
    57  H    1.003023
    58  H    1.002556
    59  H    1.003153
    60  H    1.002489
    61  H    1.001098
    62  H    1.002238
    63  H    0.999747
    64  H    1.000632
    65  H    1.002078
    66  H    0.999554
    67  H    1.000435
    68  H    0.998410
    69  H    1.000894
    70  H    0.999102
    71  H    1.000530
    72  H    0.998221
    73  H    0.997608
    74  H    0.995360
    75  H    0.995975
    76  H    0.998736
    77  H    0.999580
    78  H    0.998664
    79  H    0.999177
    80  Mg  12.000911
    81  C    5.984706
    82  C    6.022191
    83  C    6.003512
    84  C    5.991328
    85  N    6.999892
    86  C    6.029459
    87  C    5.993278
    88  C    6.009239
    89  C    5.967629
    90  C    6.001287
    91  C    5.994713
    92  C    6.001665
    93  H    0.999664
    94  N    7.001186
    95  C    5.960225
    96  C    5.980098
    97  C    5.984873
    98  C    5.975389
    99  C    6.003123
   100  C    5.986633
   101  O    7.975473
   102  C    6.006438
   103  N    6.997898
   104  C    5.969008
   105  C    6.010335
   106  C    5.988442
   107  C    6.032555
   108  C    6.001748
   109  C    6.000125
   110  C    5.999673
   111  N    6.999585
   112  C    6.035003
   113  C    6.025355
   114  C    6.007796
   115  C    6.024424
   116  C    5.999135
   117  C    6.015580
   118  O    8.033193
   119  C    5.997711
   120  C    6.005694
   121  O    8.002288
   122  O    8.001959
   123  C    5.999059
   124  H    0.995683
   125  H    0.992208
   126  H    1.011027
   127  H    0.999717
   128  H    0.998991
   129  H    1.001418
   130  H    0.990413
   131  H    1.001987
   132  H    1.003538
   133  H    0.994525
   134  H    1.006248
   135  H    1.001883
   136  H    0.980930
   137  H    0.982633
   138  H    0.982131
   139  H    0.994947
   140  H    0.990811
   141  H    0.985934
   142  H    0.999993
   143  H    0.999853
   144  H    0.995612
   145  H    1.006376
   146  H    0.990421
   147  H    0.994652
   148  H    1.010794
   149  H    1.001694
   150  H    0.996962
   151  H    1.005139
   152  H    1.016039
   153  H    1.016030
   154  H    1.011548
   155  H    1.008820
   156  H    1.004661
   157  H    1.005731
   158  H    1.001170
 Sum of Mulliken charges = 624.00000

 Dipole moment (field-independent basis, Debye):
    X=             10.6618    Y=              1.1159    Z=              0.2567  Tot=             10.7231
 Quadrupole moment (field-independent basis, Debye-Ang):
   XX=            236.2878   YY=              0.4984   ZZ=              2.3166
   XY=             22.8130   XZ=            -46.5379   YZ=              0.9633

 Normal termination of Gaussian 16 at Thu Oct 14 06:58:32 2021.
