 Gaussian 16, Revision A.03,
 Gaussian 16:  ES64L-G16RevA.03 25-Dec-2016

 --------------------------------------------------------
 #p PBE1PBE/Def2SVP td=(nstates=5) density=(transition=1)
 --------------------------------------------------------

 --------------------------------
 TDDFT excited states in gaussian
 --------------------------------
 Symbolic Z-matrix:
 Charge =  0 Multiplicity = 1

                         Standard orientation:
 ---------------------------------------------------------------------
 Center     Atomic      Atomic             Coordinates (Angstroms)
 Number     Number       Type             X           Y           Z
 ---------------------------------------------------------------------
      1         12           0       -9.132454    0.731947   -0.032427
      2          6           0       -7.428148   -1.674388    1.906457
      3          6           0       -7.272014    3.230427    1.537300
      4          6           0      -10.022311    2.822679   -2.572384
      5          6           0      -10.525839   -2.021468   -1.850954
      6          7           0       -7.595284    0.747624    1.531983
      7          6           0       -7.047509   -0.324157    2.143170
      8          6           0       -5.873282    0.103939    3.082376
      9          6           0       -6.151597    1.673741    3.187108
     10          6           0       -7.128501    1.947725    1.998124
     11          6           0       -6.806071    2.280256    4.449057
     12          6           0       -4.506953   -0.270685    2.393151
     13          6           0       -3.405021   -0.738374    3.383953
     14          1           0       -1.944014   -0.210709    3.079521
     15          7           0       -8.871866    2.852556   -0.373150
     16          6           0       -8.112251    3.656178    0.435049
     17          6           0       -8.232302    4.969814   -0.073036
     18          6           0       -8.956041    4.927387   -1.301666
     19          6           0       -9.380432    3.496396   -1.463194
     20          6           0       -7.604160    6.197331    0.543479
     21          6           0       -9.111179    6.034953   -2.287296
     22          8           0       -8.549682    7.109258   -2.144695
     23          6           0       -9.858479    5.946003   -3.514675
     24          7           0      -10.057832    0.374835   -2.018374
     25          6           0      -10.454105    1.481918   -2.783204
     26          6           0      -11.335302    1.051959   -3.914098
     27          6           0      -11.462892   -0.507803   -3.750386
     28          6           0      -10.653817   -0.763002   -2.490426
     29          6           0      -12.666528    1.809059   -3.825216
     30          6           0      -11.153209   -1.311422   -5.069224
     31          6           0      -12.229981   -2.222213   -5.576192
     32          7           0       -9.063167   -1.456393    0.001314
     33          6           0       -9.725697   -2.384380   -0.764085
     34          6           0       -9.519120   -3.744474   -0.219838
     35          6           0       -8.561056   -3.465914    0.790794
     36          6           0       -8.399862   -2.100137    0.930033
     37          6           0      -10.018273   -5.082542   -0.742139
     38          6           0       -7.643662   -4.111092    1.692074
     39          8           0       -7.416265   -5.318315    1.867464
     40          6           0       -6.881356   -3.041276    2.473451
     41          6           0       -7.040447   -3.226021    3.927984
     42          8           0       -6.124918   -3.396766    4.648565
     43          8           0       -8.307172   -2.984650    4.375342
     44          6           0       -8.338737   -2.928945    5.852979
     45          1           0       -6.764578    4.044292    2.060281
     46          1           0      -10.352639    3.565368   -3.300303
     47          1           0      -10.824247   -2.974384   -2.294230
     48          1           0       -5.989654   -0.422640    4.029782
     49          1           0       -5.350547    2.313769    2.817623
     50          1           0       -7.414565    1.531780    4.957898
     51          1           0       -7.408110    3.176653    4.299972
     52          1           0       -5.981133    2.526602    5.116707
     53          1           0       -4.144816    0.553655    1.778148
     54          1           0       -4.759261   -1.086552    1.715732
     55          1           0       -3.441088   -1.824896    3.302839
     56          1           0       -3.815567   -0.446742    4.350904
     57          1           0       -8.057244    7.154343    0.284428
     58          1           0       -6.574177    6.157309    0.190061
     59          1           0       -7.385376    6.150068    1.610268
     60          1           0      -10.892826    5.738189   -3.237760
     61          1           0       -9.437059    5.191223   -4.179233
     62          1           0       -9.795870    6.906501   -4.026251
     63          1           0      -10.821444    1.171951   -4.867554
     64          1           0      -12.388823   -0.897306   -3.326682
     65          1           0      -12.629665    2.668402   -3.155245
     66          1           0      -13.466457    1.175496   -3.442058
     67          1           0      -12.851988    2.328391   -4.764960
     68          1           0      -10.251781   -1.878093   -4.835931
     69          1           0      -11.027876   -0.683461   -5.950544
     70          1           0      -11.787661   -3.212519   -5.681188
     71          1           0      -12.573610   -1.931524   -6.569099
     72          1           0      -13.140610   -2.185759   -4.978179
     73          1           0       -9.399569   -5.477160   -1.548362
     74          1           0      -11.070640   -5.067371   -1.028455
     75          1           0       -9.816008   -5.723934    0.115563
     76          1           0       -5.809980   -3.181721    2.336060
     77          1           0       -9.368379   -2.734254    6.154164
     78          1           0       -7.673941   -2.148829    6.223619
     79          1           0       -8.136471   -3.880817    6.342813
     80         12           0        9.328669    0.159276   -0.265012
     81          6           0        6.706447   -2.402235   -0.268458
     82          6           0        7.360281    1.869183    2.075416
     83          6           0       11.430941    2.642714   -0.466431
     84          6           0       11.169518   -1.772741   -2.419197
     85          7           0        7.207153   -0.115938    0.610793
     86          6           0        6.352991   -1.296831    0.582477
     87          6           0        5.061946   -1.151873    1.416387
     88          6           0        5.280641    0.370683    1.977188
     89          6           0        6.698077    0.785078    1.535919
     90          6           0        4.210132    1.346977    1.529785
     91          6           0        4.956479   -2.296831    2.468751
     92          6           0        3.912834   -2.102173    3.527240
     93          1           0        3.021692   -3.257783    3.924860
     94          7           0        9.404572    2.049969    0.657379
     95          6           0        8.513679    2.577897    1.598754
     96          6           0        8.977045    3.895484    2.029963
     97          6           0       10.202356    4.153884    1.289168
     98          6           0       10.428045    2.934961    0.427544
     99          6           0        8.299558    4.767660    3.149699
    100          6           0       11.097911    5.339457    1.251912
    101          8           0       12.130121    5.418906    0.599242
    102          6           0       10.833717    6.490824    2.131073
    103          7           0       11.049669    0.363537   -1.192080
    104          6           0       11.701840    1.526574   -1.240222
    105          6           0       12.984944    1.456899   -2.101101
    106          6           0       13.100563   -0.036177   -2.327810
    107          6           0       11.638077   -0.541972   -2.019700
    108          6           0       12.883990    2.251803   -3.397814
    109          6           0       14.111786   -0.896649   -1.615463
    110          6           0       13.931878   -0.955375   -0.113561
    111          7           0        9.004792   -1.645060   -1.253561
    112          6           0        9.928088   -2.356358   -2.040982
    113          6           0        9.325446   -3.598292   -2.458450
    114          6           0        8.123639   -3.625064   -1.705120
    115          6           0        7.952358   -2.420262   -0.997053
    116          6           0        9.918462   -4.692808   -3.296848
    117          6           0        6.976028   -4.536091   -1.404910
    118          8           0        6.773557   -5.728401   -1.719461
    119          6           0        6.039902   -3.736483   -0.501459
    120          6           0        4.642175   -3.672926   -1.120841
    121          8           0        4.248528   -3.135733   -2.198034
    122          8           0        3.780029   -4.200244   -0.205417
    123          6           0        2.346811   -4.158725   -0.574224
    124          1           0        6.853236    2.294472    2.942906
    125          1           0       12.112794    3.485394   -0.598048
    126          1           0       11.687268   -2.427781   -3.123145
    127          1           0        4.249223   -1.314263    0.708485
    128          1           0        5.369139    0.335230    3.063030
    129          1           0        3.735444    1.769109    2.416011
    130          1           0        3.477482    0.763082    0.973788
    131          1           0        4.466903    2.048279    0.736136
    132          1           0        5.973700   -2.454505    2.828897
    133          1           0        4.720801   -3.224246    1.946630
    134          1           0        3.143809   -1.354965    3.332690
    135          1           0        4.402743   -1.875724    4.473805
    136          1           0        9.057507    4.851270    3.929096
    137          1           0        7.408079    4.309210    3.577434
    138          1           0        8.071262    5.728127    2.687480
    139          1           0        9.784623    6.784835    2.169612
    140          1           0       11.421444    7.291554    1.683554
    141          1           0       11.044894    6.106812    3.128628
    142          1           0       13.792050    1.879200   -1.502377
    143          1           0       13.343586   -0.275599   -3.363430
    144          1           0       13.834976    2.755204   -3.568056
    145          1           0       12.099465    3.005484   -3.339061
    146          1           0       12.803035    1.574931   -4.249099
    147          1           0       15.105026   -0.567201   -1.921723
    148          1           0       13.982288   -1.947113   -1.875428
    149          1           0       14.874609   -0.823891    0.416275
    150          1           0       13.570575   -1.924919    0.230016
    151          1           0       13.262608   -0.194990    0.289119
    152          1           0        9.826279   -5.644271   -2.773665
    153          1           0       10.956498   -4.642846   -3.625524
    154          1           0        9.328825   -4.741939   -4.212519
    155          1           0        5.914558   -4.289996    0.429576
    156          1           0        1.860136   -3.326690   -0.065761
    157          1           0        2.067655   -5.165108   -0.262157
    158          1           0        2.194334   -4.148837   -1.654224
 ---------------------------------------------------------------------

 SCF Done:  E(RPBE1PBE) =  -4067.36335239     A.U. after   16 cycles

 Excitation energies and oscillator strengths:

 Excited State   1:      Singlet-A      1.7352 eV  714.51 nm  f=0.0000  <S**2>=0.000
     312 -> 313        0.70708
 This state for optimization and/or second-order correction.
 Total Energy, E(TD-HF/TD-DFT) =  -4067.29958402
 Copying the excited state density for this state as the 1-particle RhoCI density.

 Excited State   2:      Singlet-A      1.8165 eV  682.56 nm  f=0.2765  <S**2>=0.000
     310 -> 316       -0.15960
     311 -> 313        0.10800
     312 -> 314        0.68764
     312 <- 314       -0.11260

 Excited State   3:      Singlet-A      1.8476 eV  671.05 nm  f=0.4813  <S**2>=0.000
     309 -> 315       -0.16703
     311 -> 313        0.68573
     312 -> 314       -0.10761
     311 <- 313       -0.11189

 Excited State   4:      Singlet-A      1.9194 eV  645.94 nm  f=0.0000  <S**2>=0.000
     311 -> 314        0.70709

 Excited State   5:      Singlet-A      2.1791 eV  568.98 nm  f=0.1374  <S**2>=0.000
     310 -> 314        0.66022
     312 -> 316        0.23263

 The electronic state is 1-A.
 Alpha  occ. eigenvalues --  -46.94314 -46.91060 -19.26324 -19.25852 -19.20265
 Alpha  occ. eigenvalues --  -19.19845 -19.19107 -19.18780 -19.18686 -19.17726
 Alpha  occ. eigenvalues --  -14.42531 -14.42429 -14.41978 -14.41558 -14.39705
 Alpha  occ. eigenvalues --  -14.39419 -14.38999 -14.38568 -10.36930 -10.35860
 Alpha  occ. eigenvalues --  -10.31955 -10.31865 -10.31525 -10.30789 -10.30071
 Alpha  occ. eigenvalues --  -10.29798 -10.29779 -10.29759 -10.29164 -10.29011
 Alpha  occ. eigenvalues --  -10.28975 -10.28940 -10.28936 -10.28690 -10.28551
 Alpha  occ. eigenvalues --  -10.28478 -10.28043 -10.27908 -10.27797 -10.27756
 Alpha  occ. eigenvalues --  -10.27214 -10.27066 -10.26976 -10.26962 -10.26744
 Alpha  occ. eigenvalues --  -10.26691 -10.26688 -10.26635 -10.26447 -10.26444
 Alpha  occ. eigenvalues --  -10.26370 -10.26348 -10.26251 -10.26241 -10.26201
 Alpha  occ. eigenvalues --  -10.26185 -10.25930 -10.25731 -10.25680 -10.25610
 Alpha  occ. eigenvalues --  -10.25443 -10.25373 -10.25092 -10.25039 -10.24990
 Alpha  occ. eigenvalues --  -10.24758 -10.24669 -10.24637 -10.24627 -10.24607
 Alpha  occ. eigenvalues --  -10.24466 -10.24296 -10.24109 -10.24087 -10.23577
 Alpha  occ. eigenvalues --  -10.23468 -10.23238 -10.23201 -10.23161 -10.23159
 Alpha  occ. eigenvalues --  -10.22983 -10.22945 -10.22844 -10.22729 -10.22615
 Alpha  occ. eigenvalues --  -10.21896  -3.16053  -3.13376  -1.88904  -1.88406
 Alpha  occ. eigenvalues --   -1.88268  -1.86224  -1.85763  -1.85601  -1.12869
 Alpha  occ. eigenvalues --   -1.10688  -1.04811  -1.04463  -1.04013  -1.03716
 Alpha  occ. eigenvalues --   -1.02573  -1.00487  -0.99853  -0.99563  -0.98535
 Alpha  occ. eigenvalues --   -0.98133  -0.97598  -0.97382  -0.96625  -0.95041
 Alpha  occ. eigenvalues --   -0.87065  -0.86644  -0.83906  -0.83780  -0.83478
 Alpha  occ. eigenvalues --   -0.83026  -0.82805  -0.82708  -0.82526  -0.81513
 Alpha  occ. eigenvalues --   -0.81379  -0.80982  -0.80329  -0.80238  -0.79286
 Alpha  occ. eigenvalues --   -0.79033  -0.78897  -0.78302  -0.77154  -0.77092
 Alpha  occ. eigenvalues --   -0.76873  -0.76217  -0.75662  -0.75345  -0.75056
 Alpha  occ. eigenvalues --   -0.74289  -0.73090  -0.72564  -0.72022  -0.71507
 Alpha  occ. eigenvalues --   -0.71309  -0.71074  -0.70960  -0.70192  -0.69943
 Alpha  occ. eigenvalues --   -0.69710  -0.67719  -0.67188  -0.67102  -0.66221
 Alpha  occ. eigenvalues --   -0.64493  -0.63916  -0.63708  -0.63690  -0.62580
 Alpha  occ. eigenvalues --   -0.61920  -0.61513  -0.61501  -0.60856  -0.60331
 Alpha  occ. eigenvalues --   -0.59717  -0.59470  -0.59348  -0.59122  -0.58627
 Alpha  occ. eigenvalues --   -0.58250  -0.57963  -0.56439  -0.54791  -0.54665
 Alpha  occ. eigenvalues --   -0.54571  -0.53720  -0.53693  -0.53601  -0.53597
 Alpha  occ. eigenvalues --   -0.53003  -0.52794  -0.52156  -0.51824  -0.51780
 Alpha  occ. eigenvalues --   -0.51130  -0.50744  -0.50709  -0.50301  -0.50289
 Alpha  occ. eigenvalues --   -0.49867  -0.49745  -0.49696  -0.49222  -0.49200
 Alpha  occ. eigenvalues --   -0.48812  -0.48326  -0.48126  -0.47849  -0.47739
 Alpha  occ. eigenvalues --   -0.47575  -0.47373  -0.47250  -0.47191  -0.47010
 Alpha  occ. eigenvalues --   -0.46987  -0.46691  -0.46502  -0.46141  -0.46000
 Alpha  occ. eigenvalues --   -0.45701  -0.45671  -0.45290  -0.45067  -0.44887
 Alpha  occ. eigenvalues --   -0.44836  -0.44717  -0.44605  -0.44365  -0.44362
 Alpha  occ. eigenvalues --   -0.44016  -0.43850  -0.43810  -0.43381  -0.43376
 Alpha  occ. eigenvalues --   -0.43359  -0.43201  -0.43101  -0.42925  -0.42842
 Alpha  occ. eigenvalues --   -0.42623  -0.42411  -0.42302  -0.42102  -0.42055
 Alpha  occ. eigenvalues --   -0.41775  -0.41673  -0.41572  -0.41536  -0.41374
 Alpha  occ. eigenvalues --   -0.41279  -0.41221  -0.41160  -0.40801  -0.40608
 Alpha  occ. eigenvalues --   -0.40570  -0.40355  -0.40095  -0.40066  -0.39923
 Alpha  occ. eigenvalues --   -0.39815  -0.39586  -0.39582  -0.39286  -0.39142
 Alpha  occ. eigenvalues --   -0.39029  -0.38977  -0.38959  -0.38746  -0.38598
 Alpha  occ. eigenvalues --   -0.38364  -0.38251  -0.37956  -0.37814  -0.37780
 Alpha  occ. eigenvalues --   -0.37632  -0.37329  -0.37219  -0.37201  -0.36905
 Alpha  occ. eigenvalues --   -0.36822  -0.36582  -0.36377  -0.36260  -0.36033
 Alpha  occ. eigenvalues --   -0.35975  -0.35723  -0.35640  -0.35262  -0.35088
 Alpha  occ. eigenvalues --   -0.34766  -0.34693  -0.34355  -0.34071  -0.33907
 Alpha  occ. eigenvalues --   -0.33754  -0.33753  -0.33139  -0.32697  -0.32369
 Alpha  occ. eigenvalues --   -0.32227  -0.32120  -0.32064  -0.31658  -0.31563
 Alpha  occ. eigenvalues --   -0.31455  -0.31002  -0.29955  -0.29486  -0.29421
 Alpha  occ. eigenvalues --   -0.29180  -0.28996  -0.28494  -0.27266  -0.26971
 Alpha  occ. eigenvalues --   -0.26092  -0.25836  -0.25759  -0.25693  -0.25262
 Alpha  occ. eigenvalues --   -0.25166  -0.24907  -0.24706  -0.21573  -0.21055
 Alpha  occ. eigenvalues --   -0.19367  -0.19002
 Alpha virt. eigenvalues --   -0.11900  -0.11594  -0.05870  -0.05133  -0.04032
 Alpha virt. eigenvalues --   -0.03762  -0.02117  -0.02097  -0.01641  -0.00170
 Alpha virt. eigenvalues --    0.00207   0.00255   0.01089   0.01285   0.01584

 Mulliken charges:
               1
     1  Mg  12.000000
     2  C    5.999999
     3  C    5.999999
     4  C    6.000000
     5  C    6.000002
     6  N    7.000001
     7  C    5.999997
     8  C    6.000001
     9  C    6.000000
    10  C    6.000002
    11  C    6.000000
    12  C    6.000000
    13  C    6.000000
    14  H    1.000001
    15  N    6.999999
    16  C    6.000003
    17  C    6.000002
    18  C    6.000001
    19  C    6.000004
    20  C    6.000000
    21  C    6.000001
    22  O    8.000002
    23  C    6.000000
    24  N    7.000001
    25  C    6.000002
    26  C    5.999999
    27  C    6.000001
    28  C    5.999998
    29  C    6.000000
    30  C    6.000000
    31  C    6.000000
    32  N    7.000000
    33  C    5.999997
    34  C    5.999998
    35  C    6.000000
    36  C    5.999999
    37  C    6.000000
    38  C    5.999999
    39  O    7.999997
    40  C    6.000000
    41  C    6.000000
    42  O    7.999999
    43  O    8.000000
    44  C    6.000000
    45  H    1.000000
    46  H    1.000001
    47  H    1.000000
    48  H    1.000000
    49  H    1.000000
    50  H    1.000001
    51  H    1.000000
    52  H    1.000000
    53  H    0.999999
    54  H    1.000000
    55  H    1.000000
    56  H    1.000000
    57  H    1.000001
    58  H    1.000001
    59  H    1.000002
    60  H    1.000001
    61  H    1.000001
    62  H    1.000001
    63  H    1.000000
    64  H    1.000000
    65  H    1.000000
    66  H    1.000001
    67  H    1.000000
    68  H    1.000000
    69  H    0.999999
    70  H    1.000000
    71  H    1.000000
    72  H    1.000000
    73  H    0.999999
    74  H    0.999999
    75  H    0.999999
    76  H    0.999999
    77  H    1.000000
    78  H    0.999999
    79  H    1.000000
    80  Mg  12.000000
    81  C    6.000000
    82  C    5.999998
    83  C    5.999999
    84  C    6.000001
    85  N    7.000000
    86  C    5.999999
    87  C    5.999997
    88  C    6.000000
    89  C    6.000002
    90  C    5.999995
    91  C    6.000000
    92  C    5.999999
    93  H    0.999998
    94  N    6.999999
    95  C    6.000003
    96  C    6.000000
    97  C    6.000001
    98  C    6.000001
    99  C    6.000000
   100  C    6.000001
   101  O    8.000002
   102  C    6.000000
   103  N    7.000000
   104  C    6.000002
   105  C    5.999999
   106  C    6.000000
   107  C    5.999996
   108  C    6.000000
   109  C    6.000001
   110  C    6.000000
   111  N    7.000000
   112  C    5.999996
   113  C    5.999997
   114  C    5.999999
   115  C    5.999997
   116  C    6.000000
   117  C    5.999998
   118  O    7.999997
   119  C    6.000000
   120  C    6.000000
   121  O    7.999999
   122  O    8.000000
   123  C    6.000000
   124  H    1.000001
   125  H    1.000001
   126  H    0.999999
   127  H    1.000000
   128  H    1.000000
   129  H    1.000002
   130  H    1.000005
   131  H    1.000000
   132  H    1.000000
   133  H    1.000001
   134  H    1.000006
   135  H    0.999999
   136  H    1.000001
   137  H    1.000001
   138  H    1.000001
   139  H    1.000001
   140  H    1.000001
   141  H    1.000001
   142  H    1.000000
   143  H    1.000000
   144  H    1.000000
   145  H    0.999999
   146  H    1.000001
   147  H    0.999999
   148  H    1.000000
   149  H    1.000000
   150  H    1.000001
   151  H    0.999999
   152  H    0.999999
   153  H    0.999998
   154  H    0.999999
   155  H    0.999999
   156  H    1.000000
   157  H    1.000000
   158  H    1.000000
 Sum of Mulliken charges = 624.00000

 Dipole moment (field-independent basis, Debye):
    X=             -0.0007    Y=              0.0017    Z=              0.0003  Tot=              0.0018
 Quadrupole moment (field-independent basis, Debye-Ang):
   XX=             -0.0004   YY=              0.0014   ZZ=             -0.0001
   XY=             -0.0001   XZ=              0.0049   YZ=             -0.0004

 Normal termination of Gaussian 16 at Thu Oct 14 05:07:33 2021.
