 Gaussian 16, Revision A.03,
 Gaussian 16:  ES64L-G16RevA.03 25-Dec-2016

 --------------------------------------------------------
 #p PBE1PBE/Def2SVP td=(nstates=5) density=(transition=1)
 --------------------------------------------------------

 --------------------------------
 TDDFT excited states in gaussian
 --------------------------------
 Symbolic Z-matrix:
 Charge =  0 Multiplicity = 1

                         Standard orientation:
 ---------------------------------------------------------------------
 Center     Atomic      Atomic             Coordinates (Angstroms)
 Number     Number       Type             X           Y           Z
 ---------------------------------------------------------------------
      1         12           0      -30.171915   -0.079078   -0.098943
      2          6           0      -26.955746    0.965945   -0.894755
      3          6           0      -28.694669   -3.234867    0.719770
      4          6           0      -33.050842   -1.055314    1.151668
      5          6           0      -31.224550    3.270056   -0.280559
      6          7           0      -28.055723   -0.958498    0.017944
      7          6           0      -26.932614   -0.323221   -0.462499
      8          6           0      -25.707392   -1.227582   -0.303657
      9          6           0      -26.367251   -2.612543   -0.057285
     10          6           0      -27.792006   -2.271882    0.292469
     11          6           0      -26.335695   -3.680545   -1.220105
     12          6           0      -24.772999   -0.783345    0.833696
     13          6           0      -23.487908   -1.513044    0.929787
     14          1           0      -22.307216   -0.791949    1.685489
     15          7           0      -30.815031   -1.907787    0.836635
     16          6           0      -30.073057   -3.079801    1.051013
     17          6           0      -30.939057   -4.048611    1.663019
     18          6           0      -32.191989   -3.381522    1.926205
     19          6           0      -32.061938   -2.038561    1.262186
     20          6           0      -30.457684   -5.463565    2.087380
     21          6           0      -33.353124   -4.060567    2.659457
     22          8           0      -33.337003   -5.249624    2.931291
     23          6           0      -34.532822   -3.250600    3.041235
     24          7           0      -31.951864    0.938730    0.153455
     25          6           0      -33.007225    0.285985    0.652064
     26          6           0      -34.189390    1.304418    0.914808
     27          6           0      -33.630932    2.725598    0.520382
     28          6           0      -32.108521    2.302864    0.138936
     29          6           0      -35.574381    0.969426    0.301430
     30          6           0      -33.674236    3.673551    1.737966
     31          6           0      -33.845850    5.160081    1.402598
     32          7           0      -29.331837    1.802748   -0.502103
     33          6           0      -29.886334    3.041319   -0.665213
     34          6           0      -28.857053    3.944402   -1.193887
     35          6           0      -27.753882    3.154612   -1.377266
     36          6           0      -28.038162    1.896824   -0.895810
     37          6           0      -29.060096    5.410394   -1.590112
     38          6           0      -26.384598    3.168383   -1.796197
     39          8           0      -25.690641    4.036255   -2.265882
     40          6           0      -25.812171    1.739318   -1.513102
     41          6           0      -25.448427    1.134270   -2.823848
     42          8           0      -26.128493    1.077029   -3.810602
     43          8           0      -24.203089    0.496113   -2.690369
     44          6           0      -23.740595   -0.210889   -3.850623
     45          1           0      -28.169856   -4.183157    0.849560
     46          1           0      -34.064233   -1.239746    1.515531
     47          1           0      -31.535555    4.308159   -0.415922
     48          1           0      -25.230355   -1.254033   -1.282433
     49          1           0      -26.017926   -3.157290    0.819129
     50          1           0      -25.939973   -4.576172   -0.741663
     51          1           0      -26.003832   -3.351763   -2.205290
     52          1           0      -27.374881   -3.934204   -1.428997
     53          1           0      -25.154774   -0.935332    1.843640
     54          1           0      -24.573603    0.285173    0.751642
     55          1           0      -23.182023   -1.739862   -0.091529
     56          1           0      -23.667899   -2.481801    1.395523
     57          1           0      -30.406379   -5.269552    3.159221
     58          1           0      -29.431731   -5.719147    1.821651
     59          1           0      -31.020682   -6.375745    1.888882
     60          1           0      -34.113654   -2.374343    3.535761
     61          1           0      -35.105304   -3.806811    3.783701
     62          1           0      -35.015012   -3.042181    2.085850
     63          1           0      -34.363065    1.272298    1.990775
     64          1           0      -34.105447    3.186908   -0.345135
     65          1           0      -36.229900    0.643771    1.109734
     66          1           0      -35.431635    0.247973   -0.502393
     67          1           0      -36.043774    1.881848   -0.066285
     68          1           0      -32.732793    3.499310    2.258330
     69          1           0      -34.414500    3.398776    2.489637
     70          1           0      -34.748800    5.429197    1.951721
     71          1           0      -33.889088    5.383055    0.336450
     72          1           0      -33.032145    5.741532    1.836241
     73          1           0      -28.286648    6.109298   -1.273384
     74          1           0      -30.029590    5.628699   -1.141686
     75          1           0      -29.297222    5.401620   -2.654087
     76          1           0      -24.934024    1.882284   -0.883289
     77          1           0      -22.902091    0.363188   -4.244999
     78          1           0      -24.435923   -0.418292   -4.664368
     79          1           0      -23.405166   -1.192671   -3.517518
     80         12           0       29.452073    0.407262    0.632990
     81          6           0       28.424336   -2.138126   -1.447076
     82          6           0       28.916174    2.688770   -2.064381
     83          6           0       30.753465    2.826928    2.425829
     84          6           0       30.117522   -1.882985    3.177688
     85          7           0       28.739995    0.205793   -1.480289
     86          6           0       28.348775   -0.915763   -2.092364
     87          6           0       27.808916   -0.553994   -3.514457
     88          6           0       28.127219    1.001249   -3.690953
     89          6           0       28.698353    1.338262   -2.300036
     90          6           0       29.208672    1.374684   -4.686516
     91          6           0       26.345131   -0.945162   -3.767393
     92          6           0       26.197423   -1.735936   -5.056406
     93          1           0       24.880332   -1.725846   -5.845892
     94          7           0       29.706827    2.482733    0.245818
     95          6           0       29.397146    3.232891   -0.851866
     96          6           0       29.668588    4.587694   -0.662820
     97          6           0       30.332460    4.679107    0.610070
     98          6           0       30.278164    3.286055    1.173999
     99          6           0       29.354442    5.671871   -1.683480
    100          6           0       30.996780    5.882886    1.258103
    101          8           0       31.666953    5.704393    2.293650
    102          6           0       30.970002    7.219231    0.636163
    103          7           0       30.257425    0.431766    2.500295
    104          6           0       30.700051    1.588724    3.108004
    105          6           0       31.292251    1.384868    4.551867
    106          6           0       30.793698   -0.098277    4.824644
    107          6           0       30.379595   -0.564568    3.416946
    108          6           0       32.837041    1.544327    4.841051
    109          6           0       29.761597   -0.348986    6.015972
    110          6           0       28.330640    0.017463    5.723083
    111          7           0       29.456069   -1.572818    0.840949
    112          6           0       29.740528   -2.411233    1.901977
    113          6           0       29.526055   -3.764036    1.585902
    114          6           0       28.977878   -3.677978    0.300950
    115          6           0       28.941090   -2.321058   -0.133908
    116          6           0       29.727651   -4.840293    2.565688
    117          6           0       28.566993   -4.538396   -0.740830
    118          8           0       28.609666   -5.770127   -0.761869
    119          6           0       28.140120   -3.583456   -1.974056
    120          6           0       28.926039   -3.937855   -3.142796
    121          8           0       30.091419   -3.679227   -3.339257
    122          8           0       28.217677   -4.707558   -3.959861
    123          6           0       28.853414   -5.267593   -5.113988
    124          1           0       28.798523    3.369552   -2.909541
    125          1           0       31.212244    3.520505    3.133135
    126          1           0       30.341600   -2.565930    3.999835
    127          1           0       28.502584   -1.125318   -4.130491
    128          1           0       27.211470    1.435500   -4.093670
    129          1           0       29.596098    0.538918   -5.269952
    130          1           0       30.077821    1.774741   -4.165060
    131          1           0       28.880042    2.222664   -5.288134
    132          1           0       25.642277   -0.112039   -3.784871
    133          1           0       26.015683   -1.546858   -2.920648
    134          1           0       26.288973   -2.784936   -4.772446
    135          1           0       26.997996   -1.391668   -5.710858
    136          1           0       28.705516    5.302076   -2.477428
    137          1           0       30.272070    5.930197   -2.212452
    138          1           0       29.013501    6.584019   -1.195164
    139          1           0       31.782198    7.840052    1.016021
    140          1           0       30.041736    7.695709    0.952950
    141          1           0       31.055707    7.135228   -0.446941
    142          1           0       30.746182    1.951081    5.307069
    143          1           0       31.637292   -0.682325    5.190409
    144          1           0       33.321230    1.821650    3.905532
    145          1           0       33.267623    0.555300    5.002624
    146          1           0       33.147389    2.213837    5.643783
    147          1           0       30.066120    0.321096    6.819564
    148          1           0       29.813273   -1.348586    6.445827
    149          1           0       27.707471   -0.664827    6.300165
    150          1           0       27.959963    0.064631    4.699899
    151          1           0       28.200445    1.042151    6.071203
    152          1           0       29.564087   -4.624681    3.621253
    153          1           0       30.628506   -5.439753    2.440177
    154          1           0       28.960795   -5.547269    2.250136
    155          1           0       27.083556   -3.757609   -2.176715
    156          1           0       28.786678   -4.612426   -5.983305
    157          1           0       28.298608   -6.169484   -5.371950
    158          1           0       29.906228   -5.455097   -4.902432
 ---------------------------------------------------------------------

 SCF Done:  E(RPBE1PBE) =  -4067.39481842     A.U. after   16 cycles

 Excitation energies and oscillator strengths:

 Excited State   1:      Singlet-A      1.8680 eV  663.71 nm  f=0.3964  <S**2>=0.000
     310 -> 316        0.16560
     312 -> 314        0.69326
     312 <- 314       -0.11113
 This state for optimization and/or second-order correction.
 Total Energy, E(TD-HF/TD-DFT) =  -4067.32616934
 Copying the excited state density for this state as the 1-particle RhoCI density.

 Excited State   2:      Singlet-A      1.9036 eV  651.33 nm  f=0.3844  <S**2>=0.000
     309 -> 315        0.17022
     311 -> 313        0.69345
     311 <- 313       -0.10646

 Excited State   3:      Singlet-A      1.9996 eV  620.05 nm  f=0.0000  <S**2>=0.000
     312 -> 313        0.70711

 Excited State   4:      Singlet-A      2.0589 eV  602.18 nm  f=0.0000  <S**2>=0.000
     311 -> 314        0.70711

 Excited State   5:      Singlet-A      2.2397 eV  553.58 nm  f=0.1494  <S**2>=0.000
     310 -> 314        0.65943
     312 -> 316       -0.23505

 The electronic state is 1-A.
 Alpha  occ. eigenvalues --  -46.93050 -46.91103 -19.25680 -19.25414 -19.20754
 Alpha  occ. eigenvalues --  -19.18964 -19.18911 -19.18801 -19.18720 -19.18419
 Alpha  occ. eigenvalues --  -14.42232 -14.41839 -14.41800 -14.41677 -14.39741
 Alpha  occ. eigenvalues --  -14.39333 -14.38908 -14.38672 -10.36584 -10.35220
 Alpha  occ. eigenvalues --  -10.31940 -10.31815 -10.31697 -10.31497 -10.29902
 Alpha  occ. eigenvalues --  -10.29221 -10.29075 -10.28938 -10.28920 -10.28901
 Alpha  occ. eigenvalues --  -10.28619 -10.28545 -10.28505 -10.28461 -10.28408
 Alpha  occ. eigenvalues --  -10.28385 -10.27941 -10.27309 -10.26988 -10.26909
 Alpha  occ. eigenvalues --  -10.26798 -10.26791 -10.26392 -10.26340 -10.26161
 Alpha  occ. eigenvalues --  -10.26133 -10.26099 -10.26081 -10.25990 -10.25985
 Alpha  occ. eigenvalues --  -10.25918 -10.25901 -10.25878 -10.25793 -10.25762
 Alpha  occ. eigenvalues --  -10.25498 -10.25484 -10.25481 -10.25479 -10.25266
 Alpha  occ. eigenvalues --  -10.25249 -10.25198 -10.25191 -10.25056 -10.24993
 Alpha  occ. eigenvalues --  -10.24828 -10.24689 -10.24451 -10.24245 -10.24162
 Alpha  occ. eigenvalues --  -10.24000 -10.23975 -10.23937 -10.23918 -10.23827
 Alpha  occ. eigenvalues --  -10.23751 -10.23728 -10.23659 -10.23522 -10.23258
 Alpha  occ. eigenvalues --  -10.23225 -10.23130 -10.23047 -10.22450 -10.22384
 Alpha  occ. eigenvalues --  -10.21942  -3.15054  -3.13462  -1.87900  -1.87432
 Alpha  occ. eigenvalues --   -1.87263  -1.86303  -1.85855  -1.85690  -1.12691
 Alpha  occ. eigenvalues --   -1.11432  -1.05290  -1.04677  -1.03731  -1.03650
 Alpha  occ. eigenvalues --   -1.03162  -1.02569  -0.99303  -0.99286  -0.98449
 Alpha  occ. eigenvalues --   -0.98368  -0.98304  -0.97934  -0.97465  -0.97210
 Alpha  occ. eigenvalues --   -0.87769  -0.86445  -0.83667  -0.83665  -0.83491
 Alpha  occ. eigenvalues --   -0.83121  -0.83025  -0.82618  -0.82461  -0.81946
 Alpha  occ. eigenvalues --   -0.81891  -0.81068  -0.80885  -0.80204  -0.79429
 Alpha  occ. eigenvalues --   -0.78864  -0.78364  -0.78129  -0.77345  -0.77229
 Alpha  occ. eigenvalues --   -0.76779  -0.76522  -0.75693  -0.75556  -0.75242
 Alpha  occ. eigenvalues --   -0.74974  -0.72602  -0.72107  -0.71719  -0.71663
 Alpha  occ. eigenvalues --   -0.71282  -0.71223  -0.70556  -0.70273  -0.69845
 Alpha  occ. eigenvalues --   -0.69628  -0.67923  -0.67797  -0.66498  -0.65887
 Alpha  occ. eigenvalues --   -0.64003  -0.63790  -0.63434  -0.63306  -0.62320
 Alpha  occ. eigenvalues --   -0.62169  -0.61470  -0.61067  -0.60510  -0.60129
 Alpha  occ. eigenvalues --   -0.59854  -0.59439  -0.59429  -0.59146  -0.59130
 Alpha  occ. eigenvalues --   -0.58895  -0.57324  -0.56899  -0.54944  -0.54718
 Alpha  occ. eigenvalues --   -0.54592  -0.54561  -0.53882  -0.53582  -0.53350
 Alpha  occ. eigenvalues --   -0.53161  -0.53124  -0.52833  -0.52256  -0.52210
 Alpha  occ. eigenvalues --   -0.51132  -0.51118  -0.50609  -0.50423  -0.49950
 Alpha  occ. eigenvalues --   -0.49664  -0.49498  -0.49166  -0.48977  -0.48923
 Alpha  occ. eigenvalues --   -0.48618  -0.48165  -0.48119  -0.47838  -0.47799
 Alpha  occ. eigenvalues --   -0.47539  -0.47344  -0.47309  -0.46920  -0.46797
 Alpha  occ. eigenvalues --   -0.46642  -0.46578  -0.46385  -0.46326  -0.46144
 Alpha  occ. eigenvalues --   -0.45875  -0.45477  -0.45338  -0.44988  -0.44929
 Alpha  occ. eigenvalues --   -0.44887  -0.44791  -0.44535  -0.44517  -0.44289
 Alpha  occ. eigenvalues --   -0.44076  -0.43978  -0.43902  -0.43774  -0.43747
 Alpha  occ. eigenvalues --   -0.43547  -0.43370  -0.43080  -0.42887  -0.42823
 Alpha  occ. eigenvalues --   -0.42784  -0.42445  -0.42257  -0.42041  -0.42006
 Alpha  occ. eigenvalues --   -0.41933  -0.41779  -0.41633  -0.41242  -0.41141
 Alpha  occ. eigenvalues --   -0.41121  -0.41119  -0.40885  -0.40804  -0.40580
 Alpha  occ. eigenvalues --   -0.40236  -0.40209  -0.40142  -0.39877  -0.39875
 Alpha  occ. eigenvalues --   -0.39703  -0.39380  -0.39316  -0.39214  -0.39055
 Alpha  occ. eigenvalues --   -0.38673  -0.38664  -0.38409  -0.38405  -0.38286
 Alpha  occ. eigenvalues --   -0.38207  -0.38070  -0.38037  -0.37810  -0.37649
 Alpha  occ. eigenvalues --   -0.37528  -0.37384  -0.37273  -0.37178  -0.36870
 Alpha  occ. eigenvalues --   -0.36843  -0.36694  -0.36411  -0.36341  -0.36321
 Alpha  occ. eigenvalues --   -0.36108  -0.35944  -0.35861  -0.35482  -0.35396
 Alpha  occ. eigenvalues --   -0.35239  -0.34760  -0.34669  -0.34134  -0.33815
 Alpha  occ. eigenvalues --   -0.33749  -0.33121  -0.33059  -0.32742  -0.32699
 Alpha  occ. eigenvalues --   -0.32206  -0.31972  -0.31624  -0.31527  -0.31346
 Alpha  occ. eigenvalues --   -0.31166  -0.31152  -0.30163  -0.29582  -0.29442
 Alpha  occ. eigenvalues --   -0.29267  -0.28871  -0.28467  -0.27409  -0.27108
 Alpha  occ. eigenvalues --   -0.26041  -0.25863  -0.25817  -0.25616  -0.25498
 Alpha  occ. eigenvalues --   -0.25431  -0.25271  -0.25136  -0.21570  -0.21095
 Alpha  occ. eigenvalues --   -0.19288  -0.19094
 Alpha virt. eigenvalues --   -0.11524  -0.11499  -0.05493  -0.05035  -0.03714
 Alpha virt. eigenvalues --   -0.03332  -0.01907  -0.01736  -0.00748   0.00251
 Alpha virt. eigenvalues --    0.00277   0.00657   0.01241   0.01770   0.01810

 Mulliken charges:
               1
     1  Mg  12.000005
     2  C    5.999960
     3  C    6.000101
     4  C    6.000100
     5  C    5.999881
     6  N    6.999989
     7  C    6.000093
     8  C    5.999964
     9  C    6.000024
    10  C    5.999816
    11  C    5.999993
    12  C    5.999992
    13  C    5.999999
    14  H    1.000001
    15  N    7.000017
    16  C    5.999801
    17  C    5.999975
    18  C    5.999912
    19  C    5.999888
    20  C    6.000014
    21  C    5.999945
    22  O    7.999915
    23  C    6.000028
    24  N    6.999991
    25  C    5.999879
    26  C    6.000005
    27  C    5.999971
    28  C    6.000178
    29  C    6.000003
    30  C    5.999984
    31  C    5.999991
    32  N    7.000028
    33  C    6.000198
    34  C    6.000023
    35  C    6.000074
    36  C    6.000099
    37  C    6.000009
    38  C    6.000071
    39  O    8.000090
    40  C    5.999998
    41  C    6.000028
    42  O    8.000010
    43  O    8.000012
    44  C    5.999995
    45  H    0.999919
    46  H    0.999981
    47  H    1.000069
    48  H    0.999990
    49  H    0.999988
    50  H    0.999972
    51  H    0.999946
    52  H    1.000018
    53  H    1.000028
    54  H    0.999977
    55  H    0.999994
    56  H    1.000014
    57  H    0.999945
    58  H    0.999927
    59  H    0.999933
    60  H    0.999973
    61  H    0.999952
    62  H    0.999969
    63  H    1.000012
    64  H    1.000015
    65  H    1.000006
    66  H    0.999999
    67  H    0.999979
    68  H    0.999997
    69  H    1.000040
    70  H    1.000025
    71  H    0.999999
    72  H    0.999998
    73  H    1.000075
    74  H    1.000069
    75  H    1.000074
    76  H    1.000033
    77  H    1.000011
    78  H    1.000011
    79  H    1.000008
    80  Mg  12.002408
    81  C    5.984315
    82  C    6.011450
    83  C    6.021778
    84  C    5.995457
    85  N    6.992225
    86  C    6.026426
    87  C    5.992699
    88  C    6.015010
    89  C    5.971112
    90  C    6.002755
    91  C    5.998964
    92  C    5.998686
    93  H    1.004406
    94  N    7.005100
    95  C    5.963953
    96  C    5.983171
    97  C    5.983449
    98  C    5.966210
    99  C    6.002031
   100  C    5.986394
   101  O    7.968968
   102  C    6.005332
   103  N    7.001686
   104  C    5.962092
   105  C    6.014797
   106  C    5.990335
   107  C    6.026858
   108  C    5.999362
   109  C    5.994991
   110  C    5.997220
   111  N    6.998545
   112  C    6.033187
   113  C    6.027362
   114  C    6.001768
   115  C    6.032158
   116  C    5.996491
   117  C    6.016961
   118  O    8.030839
   119  C    6.003258
   120  C    6.003994
   121  O    8.007317
   122  O    8.001171
   123  C    5.997483
   124  H    0.990001
   125  H    0.994725
   126  H    1.011200
   127  H    0.997647
   128  H    0.992663
   129  H    0.985834
   130  H    1.003549
   131  H    0.998035
   132  H    1.008123
   133  H    0.993421
   134  H    0.993973
   135  H    1.004662
   136  H    0.984042
   137  H    0.982312
   138  H    0.985504
   139  H    0.985508
   140  H    0.989271
   141  H    0.994604
   142  H    0.996993
   143  H    1.002242
   144  H    1.003789
   145  H    0.989342
   146  H    0.999352
   147  H    1.010427
   148  H    0.998035
   149  H    0.999834
   150  H    0.999791
   151  H    1.010337
   152  H    1.018627
   153  H    1.021540
   154  H    1.013362
   155  H    1.008840
   156  H    1.007365
   157  H    1.003257
   158  H    1.001618
 Sum of Mulliken charges = 624.00000

 Dipole moment (field-independent basis, Debye):
    X=             -1.1221    Y=            -10.4342    Z=              1.3313  Tot=             10.5784
 Quadrupole moment (field-independent basis, Debye-Ang):
   XX=            -68.3295   YY=             -9.1436   ZZ=              3.6927
   XY=           -313.1039   XZ=             39.3529   YZ=             -2.9447

 Normal termination of Gaussian 16 at Fri Oct 15 16:44:52 2021.
