 Gaussian 16, Revision A.03,
 Gaussian 16:  ES64L-G16RevA.03 25-Dec-2016

 --------------------------------------------------------
 #p PBE1PBE/Def2SVP td=(nstates=5) density=(transition=1)
 --------------------------------------------------------

 --------------------------------
 TDDFT excited states in gaussian
 --------------------------------
 Symbolic Z-matrix:
 Charge =  0 Multiplicity = 1

                         Standard orientation:
 ---------------------------------------------------------------------
 Center     Atomic      Atomic             Coordinates (Angstroms)
 Number     Number       Type             X           Y           Z
 ---------------------------------------------------------------------
      1         12           0       12.651091   -0.073555    0.326798
      2          6           0        9.253565   -0.498264   -0.716589
      3          6           0       13.247260    1.365662   -2.709039
      4          6           0       15.740278   -0.099276    1.042958
      5          6           0       12.057827   -2.510761    2.746245
      6          7           0       11.335523    0.328251   -1.407699
      7          6           0       10.039355    0.170991   -1.657480
      8          6           0        9.578167    0.851654   -2.980877
      9          6           0       10.975219    0.881845   -3.748557
     10          6           0       11.909780    0.895086   -2.551751
     11          6           0       11.246475   -0.374604   -4.569690
     12          6           0        9.023165    2.296545   -2.744246
     13          6           0        8.255798    2.902866   -3.922751
     14          1           0        7.113149    3.760704   -3.647402
     15          7           0       14.153731    0.950822   -0.444936
     16          6           0       14.219601    1.476790   -1.691654
     17          6           0       15.536762    2.142540   -1.784081
     18          6           0       16.307590    1.798507   -0.557068
     19          6           0       15.430098    0.835949    0.058455
     20          6           0       15.929195    3.035965   -2.920539
     21          6           0       17.630636    2.255630   -0.029130
     22          8           0       18.220553    1.659651    0.935951
     23          6           0       18.267969    3.379913   -0.738240
     24          7           0       13.814970   -1.300768    1.550305
     25          6           0       15.117854   -1.058452    1.731302
     26          6           0       15.675585   -1.882033    2.854062
     27          6           0       14.420607   -2.564840    3.567195
     28          6           0       13.304656   -2.049408    2.625254
     29          6           0       16.685717   -2.965422    2.451682
     30          6           0       14.265302   -2.332295    5.091079
     31          6           0       13.951210   -0.877385    5.358811
     32          7           0       10.926901   -1.175895    1.050027
     33          6           0       10.913464   -2.158774    2.050248
     34          6           0        9.540365   -2.692358    2.113147
     35          6           0        8.849929   -1.989900    1.127401
     36          6           0        9.741895   -1.094132    0.471437
     37          6           0        9.092042   -3.741281    2.963559
     38          6           0        7.571997   -1.805264    0.459078
     39          8           0        6.427742   -2.221679    0.645552
     40          6           0        7.810723   -0.919935   -0.842855
     41          6           0        6.761751    0.158370   -0.857857
     42          8           0        6.757064    1.058383    0.006620
     43          8           0        6.079691    0.099035   -2.011900
     44          6           0        5.042490    1.161077   -2.103739
     45          1           0       13.604246    1.616604   -3.709803
     46          1           0       16.772975   -0.063591    1.396087
     47          1           0       11.777821   -3.212974    3.533612
     48          1           0        8.849597    0.280012   -3.556058
     49          1           0       11.097686    1.792195   -4.335061
     50          1           0       10.491645   -1.139655   -4.388451
     51          1           0       12.228057   -0.724978   -4.249959
     52          1           0       11.345074   -0.131873   -5.628055
     53          1           0        9.856585    2.996574   -2.685673
     54          1           0        8.397046    2.327984   -1.851883
     55          1           0        7.994689    2.144132   -4.661030
     56          1           0        8.925167    3.579193   -4.454472
     57          1           0       15.224888    2.963785   -3.748360
     58          1           0       16.863506    2.646143   -3.324038
     59          1           0       16.069248    4.068776   -2.601136
     60          1           0       18.421735    3.106130   -1.782246
     61          1           0       19.162052    3.627544   -0.167151
     62          1           0       17.583583    4.228768   -0.741515
     63          1           0       16.199434   -1.256161    3.575375
     64          1           0       14.431814   -3.650115    3.463620
     65          1           0       17.649731   -2.872972    2.952517
     66          1           0       16.802738   -2.931617    1.368882
     67          1           0       16.342109   -3.988726    2.600676
     68          1           0       15.198088   -2.559125    5.606254
     69          1           0       13.481135   -2.940878    5.541589
     70          1           0       14.936112   -0.411767    5.359031
     71          1           0       13.466138   -0.765252    6.329039
     72          1           0       13.382217   -0.435824    4.540424
     73          1           0        8.128380   -3.421710    3.360043
     74          1           0        9.805585   -3.934140    3.764349
     75          1           0        9.029620   -4.564952    2.252557
     76          1           0        7.721852   -1.589443   -1.697830
     77          1           0        4.090070    0.664398   -2.289318
     78          1           0        5.394704    1.874573   -2.848906
     79          1           0        4.818579    1.697268   -1.180861
     80         12           0      -12.141008   -0.392233   -0.332098
     81          6           0      -11.250321    2.736879    0.958875
     82          6           0       -8.782927   -0.794060   -1.054944
     83          6           0      -12.829559   -3.522569   -1.264245
     84          6           0      -15.257693   -0.124608    1.228362
     85          7           0      -10.128529    0.874470    0.150929
     86          6           0      -10.077594    2.154083    0.567906
     87          6           0       -8.677748    2.717500    0.619062
     88          6           0       -8.013988    1.635907   -0.315877
     89          6           0       -8.973624    0.453620   -0.403249
     90          6           0       -7.819508    2.216312   -1.742097
     91          6           0       -8.197045    2.888964    2.065610
     92          6           0       -8.536453    1.814639    3.119701
     93          1           0       -7.371923    1.327296    3.973664
     94          7           0      -10.995071   -1.922889   -1.059199
     95          6           0       -9.668957   -1.830092   -1.389241
     96          6           0       -9.333986   -2.915421   -2.320359
     97          6           0      -10.451229   -3.842695   -2.292271
     98          6           0      -11.487238   -3.085313   -1.525794
     99          6           0       -7.874810   -3.149143   -2.869795
    100          6           0      -10.502612   -5.239661   -2.915903
    101          8           0       -9.612085   -5.627378   -3.619745
    102          6           0      -11.696712   -6.120819   -2.687517
    103          7           0      -13.792833   -1.715077    0.165002
    104          6           0      -13.925932   -2.977093   -0.443228
    105          6           0      -15.309701   -3.680940   -0.112966
    106          6           0      -16.084845   -2.502683    0.648253
    107          6           0      -14.991582   -1.338349    0.653957
    108          6           0      -16.171813   -4.370885   -1.284525
    109          6           0      -16.678762   -2.826021    2.094523
    110          6           0      -18.043305   -2.011439    2.340454
    111          7           0      -13.152141    1.022362    0.827205
    112          6           0      -14.445768    1.022306    1.307958
    113          6           0      -14.727938    2.314671    1.920695
    114          6           0      -13.551008    3.094113    1.778363
    115          6           0      -12.579227    2.222612    1.166587
    116          6           0      -16.062574    2.795750    2.426848
    117          6           0      -12.823603    4.370561    2.077339
    118          8           0      -13.165635    5.331358    2.730012
    119          6           0      -11.360088    4.158368    1.499413
    120          6           0      -11.164236    5.202030    0.434297
    121          8           0      -10.922810    6.411949    0.672229
    122          8           0      -11.143880    4.595468   -0.813274
    123          6           0      -10.738326    5.430118   -1.894430
    124          1           0       -7.740592   -0.886398   -1.367411
    125          1           0      -13.233083   -4.442264   -1.693476
    126          1           0      -16.296739    0.017662    1.533081
    127          1           0       -8.600275    3.656550    0.071401
    128          1           0       -7.046712    1.231254   -0.021091
    129          1           0       -7.951881    1.376508   -2.424664
    130          1           0       -6.867788    2.740666   -1.815498
    131          1           0       -8.570685    2.895335   -2.146756
    132          1           0       -8.703018    3.779473    2.437279
    133          1           0       -7.119465    3.052312    2.045979
    134          1           0       -8.911638    0.927569    2.609962
    135          1           0       -9.257596    2.241476    3.816146
    136          1           0       -7.182536   -3.607051   -2.162748
    137          1           0       -7.458769   -2.201404   -3.211723
    138          1           0       -7.796190   -3.732660   -3.786368
    139          1           0      -11.533111   -7.133697   -3.056947
    140          1           0      -12.607787   -5.736785   -3.146821
    141          1           0      -11.701600   -6.208095   -1.600703
    142          1           0      -14.958671   -4.438455    0.586776
    143          1           0      -16.912799   -2.128077    0.047061
    144          1           0      -15.848612   -5.409202   -1.349215
    145          1           0      -16.030919   -3.861773   -2.237568
    146          1           0      -17.227999   -4.291267   -1.026357
    147          1           0      -16.029066   -2.439841    2.879847
    148          1           0      -16.798678   -3.899997    2.239120
    149          1           0      -17.945193   -1.331571    3.186870
    150          1           0      -18.849712   -2.712811    2.552658
    151          1           0      -18.386361   -1.311756    1.579093
    152          1           0      -16.398280    2.115246    3.208622
    153          1           0      -16.789446    2.777728    1.614510
    154          1           0      -16.003740    3.787420    2.875135
    155          1           0      -10.710484    4.450424    2.324231
    156          1           0      -10.665284    4.830940   -2.801749
    157          1           0       -9.843013    5.998086   -1.641000
    158          1           0      -11.513082    6.144472   -2.172785
 ---------------------------------------------------------------------

 SCF Done:  E(RPBE1PBE) =  -4067.37523554     A.U. after   16 cycles

 Excitation energies and oscillator strengths:

 Excited State   1:      Singlet-A      1.8413 eV  673.36 nm  f=0.3895  <S**2>=0.000
     309 -> 316       -0.16188
     312 -> 313        0.69275
     312 <- 313       -0.11097
 This state for optimization and/or second-order correction.
 Total Energy, E(TD-HF/TD-DFT) =  -4067.30757020
 Copying the excited state density for this state as the 1-particle RhoCI density.

 Excited State   2:      Singlet-A      1.8969 eV  653.61 nm  f=0.3422  <S**2>=0.000
     310 -> 315       -0.18757
     311 -> 314        0.68681

 Excited State   3:      Singlet-A      1.9396 eV  639.24 nm  f=0.0000  <S**2>=0.000
     312 -> 314        0.70710

 Excited State   4:      Singlet-A      1.9576 eV  633.35 nm  f=0.0000  <S**2>=0.000
     311 -> 313        0.70709

 Excited State   5:      Singlet-A      2.1930 eV  565.36 nm  f=0.0938  <S**2>=0.000
     309 -> 313        0.65160
     312 -> 316        0.24169

 The electronic state is 1-A.
 Alpha  occ. eigenvalues --  -46.93712 -46.91187 -19.26947 -19.26630 -19.20215
 Alpha  occ. eigenvalues --  -19.19809 -19.19320 -19.19032 -19.19005 -19.18418
 Alpha  occ. eigenvalues --  -14.41943 -14.41785 -14.41116 -14.40955 -14.39980
 Alpha  occ. eigenvalues --  -14.39148 -14.39048 -14.38253 -10.36955 -10.36122
 Alpha  occ. eigenvalues --  -10.33006 -10.32486 -10.32245 -10.31575 -10.30412
 Alpha  occ. eigenvalues --  -10.29225 -10.29144 -10.29129 -10.28943 -10.28655
 Alpha  occ. eigenvalues --  -10.28635 -10.28370 -10.28279 -10.28216 -10.28132
 Alpha  occ. eigenvalues --  -10.27997 -10.27978 -10.27639 -10.27540 -10.27429
 Alpha  occ. eigenvalues --  -10.27255 -10.27113 -10.27033 -10.26970 -10.26801
 Alpha  occ. eigenvalues --  -10.26572 -10.26151 -10.26147 -10.26060 -10.26057
 Alpha  occ. eigenvalues --  -10.26032 -10.25941 -10.25902 -10.25902 -10.25621
 Alpha  occ. eigenvalues --  -10.25501 -10.25450 -10.25437 -10.25385 -10.25368
 Alpha  occ. eigenvalues --  -10.25347 -10.25269 -10.25247 -10.25210 -10.25199
 Alpha  occ. eigenvalues --  -10.25145 -10.24847 -10.24782 -10.24381 -10.24290
 Alpha  occ. eigenvalues --  -10.23864 -10.23807 -10.23784 -10.23740 -10.23738
 Alpha  occ. eigenvalues --  -10.23689 -10.23609 -10.23607 -10.23513 -10.23455
 Alpha  occ. eigenvalues --  -10.23383 -10.23269 -10.22906 -10.22592 -10.22398
 Alpha  occ. eigenvalues --  -10.22080  -3.15658  -3.13505  -1.88459  -1.88051
 Alpha  occ. eigenvalues --   -1.87870  -1.86327  -1.85893  -1.85739  -1.11443
 Alpha  occ. eigenvalues --   -1.11163  -1.06065  -1.05453  -1.03371  -1.01832
 Alpha  occ. eigenvalues --   -1.01796  -1.01466  -0.99257  -0.99170  -0.98364
 Alpha  occ. eigenvalues --   -0.98358  -0.97896  -0.97609  -0.97085  -0.96557
 Alpha  occ. eigenvalues --   -0.86811  -0.86330  -0.83828  -0.83455  -0.83184
 Alpha  occ. eigenvalues --   -0.82585  -0.82515  -0.82200  -0.81973  -0.81937
 Alpha  occ. eigenvalues --   -0.81624  -0.81434  -0.80415  -0.79733  -0.79235
 Alpha  occ. eigenvalues --   -0.79022  -0.78220  -0.77595  -0.77152  -0.76873
 Alpha  occ. eigenvalues --   -0.76788  -0.76000  -0.75903  -0.75073  -0.74945
 Alpha  occ. eigenvalues --   -0.74660  -0.73100  -0.71768  -0.71543  -0.71529
 Alpha  occ. eigenvalues --   -0.71236  -0.70842  -0.70642  -0.70246  -0.69577
 Alpha  occ. eigenvalues --   -0.69223  -0.67238  -0.67233  -0.66395  -0.66087
 Alpha  occ. eigenvalues --   -0.64212  -0.64175  -0.63692  -0.63233  -0.62677
 Alpha  occ. eigenvalues --   -0.62118  -0.61555  -0.61464  -0.60274  -0.59710
 Alpha  occ. eigenvalues --   -0.59422  -0.59355  -0.59239  -0.59097  -0.59081
 Alpha  occ. eigenvalues --   -0.58763  -0.58229  -0.56885  -0.54940  -0.54487
 Alpha  occ. eigenvalues --   -0.54306  -0.53800  -0.53620  -0.53382  -0.53117
 Alpha  occ. eigenvalues --   -0.52746  -0.52230  -0.52105  -0.51839  -0.51806
 Alpha  occ. eigenvalues --   -0.50870  -0.50695  -0.50547  -0.50386  -0.50053
 Alpha  occ. eigenvalues --   -0.49988  -0.49838  -0.49548  -0.49083  -0.48767
 Alpha  occ. eigenvalues --   -0.48462  -0.48278  -0.47952  -0.47756  -0.47722
 Alpha  occ. eigenvalues --   -0.47556  -0.47422  -0.47236  -0.47099  -0.46971
 Alpha  occ. eigenvalues --   -0.46449  -0.46413  -0.46187  -0.46095  -0.45954
 Alpha  occ. eigenvalues --   -0.45859  -0.45674  -0.45267  -0.45092  -0.45077
 Alpha  occ. eigenvalues --   -0.44627  -0.44544  -0.44481  -0.44469  -0.44251
 Alpha  occ. eigenvalues --   -0.44128  -0.44047  -0.43862  -0.43710  -0.43526
 Alpha  occ. eigenvalues --   -0.43296  -0.43223  -0.43114  -0.43008  -0.42988
 Alpha  occ. eigenvalues --   -0.42337  -0.42139  -0.41947  -0.41883  -0.41831
 Alpha  occ. eigenvalues --   -0.41562  -0.41510  -0.41267  -0.41248  -0.41068
 Alpha  occ. eigenvalues --   -0.41003  -0.40876  -0.40704  -0.40558  -0.40422
 Alpha  occ. eigenvalues --   -0.40176  -0.40042  -0.39936  -0.39872  -0.39538
 Alpha  occ. eigenvalues --   -0.39307  -0.39221  -0.38961  -0.38897  -0.38840
 Alpha  occ. eigenvalues --   -0.38743  -0.38732  -0.38595  -0.38359  -0.38287
 Alpha  occ. eigenvalues --   -0.38239  -0.38091  -0.37912  -0.37859  -0.37719
 Alpha  occ. eigenvalues --   -0.37554  -0.37508  -0.37443  -0.37117  -0.36966
 Alpha  occ. eigenvalues --   -0.36855  -0.36779  -0.36565  -0.36554  -0.36372
 Alpha  occ. eigenvalues --   -0.36074  -0.35961  -0.35777  -0.35589  -0.35477
 Alpha  occ. eigenvalues --   -0.35180  -0.35016  -0.34760  -0.34327  -0.34121
 Alpha  occ. eigenvalues --   -0.33801  -0.33413  -0.33067  -0.32729  -0.32377
 Alpha  occ. eigenvalues --   -0.32258  -0.32174  -0.32107  -0.31715  -0.31658
 Alpha  occ. eigenvalues --   -0.31288  -0.31263  -0.29715  -0.29506  -0.29378
 Alpha  occ. eigenvalues --   -0.28918  -0.28626  -0.28424  -0.26846  -0.26719
 Alpha  occ. eigenvalues --   -0.26103  -0.25997  -0.25994  -0.25684  -0.25372
 Alpha  occ. eigenvalues --   -0.25113  -0.24950  -0.24831  -0.20974  -0.20902
 Alpha  occ. eigenvalues --   -0.18954  -0.18756
 Alpha virt. eigenvalues --   -0.11221  -0.11083  -0.05460  -0.05341  -0.04152
 Alpha virt. eigenvalues --   -0.04053  -0.02323  -0.02174  -0.01913  -0.00055
 Alpha virt. eigenvalues --    0.00354   0.00410   0.00453   0.01223   0.02098

 Mulliken charges:
               1
     1  Mg  12.000630
     2  C    5.985386
     3  C    6.011938
     4  C    6.012027
     5  C    5.985691
     6  N    6.992150
     7  C    6.031574
     8  C    5.991578
     9  C    6.008680
    10  C    5.972926
    11  C    6.000717
    12  C    5.996390
    13  C    5.998942
    14  H    0.999682
    15  N    7.003432
    16  C    5.963402
    17  C    5.971125
    18  C    5.984834
    19  C    5.979164
    20  C    6.005119
    21  C    5.985815
    22  O    7.969406
    23  C    6.004857
    24  N    7.000735
    25  C    5.973737
    26  C    6.011280
    27  C    5.988189
    28  C    6.031145
    29  C    5.999501
    30  C    5.996331
    31  C    5.999017
    32  N    6.996800
    33  C    6.043789
    34  C    6.022510
    35  C    6.006213
    36  C    6.028581
    37  C    5.996767
    38  C    6.014933
    39  O    8.030188
    40  C    6.001470
    41  C    6.003358
    42  O    8.004275
    43  O    8.001864
    44  C    5.998768
    45  H    0.992190
    46  H    0.994140
    47  H    1.008893
    48  H    0.999285
    49  H    1.000414
    50  H    0.984613
    51  H    1.004442
    52  H    0.996753
    53  H    1.013165
    54  H    0.994431
    55  H    1.000781
    56  H    1.006577
    57  H    0.980679
    58  H    0.980223
    59  H    0.979431
    60  H    0.994789
    61  H    0.985602
    62  H    0.992851
    63  H    1.000944
    64  H    1.004027
    65  H    1.000019
    66  H    1.005248
    67  H    0.990582
    68  H    1.008965
    69  H    0.997160
    70  H    1.011202
    71  H    1.001336
    72  H    0.997323
    73  H    1.015574
    74  H    1.016526
    75  H    1.018249
    76  H    1.007734
    77  H    1.002910
    78  H    1.005859
    79  H    1.002160
    80  Mg  12.000193
    81  C    5.999461
    82  C    5.999805
    83  C    6.001012
    84  C    6.000137
    85  N    6.999472
    86  C    6.000921
    87  C    5.999733
    88  C    6.000174
    89  C    5.999173
    90  C    6.000091
    91  C    5.999888
    92  C    6.000091
    93  H    0.999468
    94  N    7.000278
    95  C    5.998752
    96  C    5.999215
    97  C    5.999600
    98  C    5.998622
    99  C    6.000039
   100  C    5.999573
   101  O    7.999168
   102  C    6.000076
   103  N    7.000279
   104  C    5.998515
   105  C    6.000358
   106  C    5.999762
   107  C    6.000865
   108  C    6.000054
   109  C    5.999812
   110  C    5.999906
   111  N    6.999825
   112  C    6.001238
   113  C    6.001249
   114  C    6.000128
   115  C    6.001202
   116  C    6.000010
   117  C    6.000785
   118  O    8.001232
   119  C    5.999911
   120  C    6.000024
   121  O    8.000394
   122  O    7.999992
   123  C    5.999796
   124  H    0.998964
   125  H    0.999966
   126  H    1.000605
   127  H    1.000130
   128  H    0.999349
   129  H    1.000333
   130  H    0.999398
   131  H    0.999868
   132  H    0.999998
   133  H    0.999847
   134  H    1.000345
   135  H    0.999978
   136  H    0.998670
   137  H    0.999322
   138  H    0.999482
   139  H    0.999627
   140  H    0.999857
   141  H    0.999652
   142  H    0.999974
   143  H    1.000230
   144  H    1.000154
   145  H    1.000069
   146  H    0.999895
   147  H    0.999908
   148  H    1.000477
   149  H    0.999916
   150  H    1.000410
   151  H    1.000040
   152  H    1.000729
   153  H    1.000903
   154  H    1.000647
   155  H    1.000194
   156  H    1.000324
   157  H    1.000137
   158  H    1.000319
 Sum of Mulliken charges = 624.00000

 Dipole moment (field-independent basis, Debye):
    X=             -8.6377    Y=             -4.6650    Z=              3.8984  Tot=             10.5626
 Quadrupole moment (field-independent basis, Debye-Ang):
   XX=           -201.3820   YY=              1.6101   ZZ=              1.8116
   XY=            -66.8651   XZ=             44.7853   YZ=             -2.9173

 Normal termination of Gaussian 16 at Thu Oct 14 16:13:39 2021.
