 Gaussian 16, Revision A.03,
 Gaussian 16:  ES64L-G16RevA.03 25-Dec-2016

 --------------------------------------------------------
 #p PBE1PBE/Def2SVP td=(nstates=5) density=(transition=1)
 --------------------------------------------------------

 --------------------------------
 TDDFT excited states in gaussian
 --------------------------------
 Symbolic Z-matrix:
 Charge =  0 Multiplicity = 1

                         Standard orientation:
 ---------------------------------------------------------------------
 Center     Atomic      Atomic             Coordinates (Angstroms)
 Number     Number       Type             X           Y           Z
 ---------------------------------------------------------------------
      1         12           0      -24.049019    0.515647    0.241121
      2          6           0      -22.821809   -2.415216   -1.052624
      3          6           0      -22.381300    2.226026   -2.218705
      4          6           0      -25.187673    3.495792    1.601398
      5          6           0      -25.342596   -1.218233    2.950490
      6          7           0      -22.678803   -0.013601   -1.455160
      7          6           0      -22.422673   -1.308873   -1.804577
      8          6           0      -21.607923   -1.374032   -3.004456
      9          6           0      -21.243781    0.066675   -3.326612
     10          6           0      -22.118420    0.857829   -2.258507
     11          6           0      -19.734217    0.488681   -3.293987
     12          6           0      -22.348949   -2.115456   -4.168803
     13          6           0      -21.464421   -2.944970   -5.162526
     14          1           0      -20.011472   -2.475364   -5.372394
     15          7           0      -23.889689    2.569329   -0.338515
     16          6           0      -23.154649    3.042382   -1.411992
     17          6           0      -23.277323    4.513371   -1.463199
     18          6           0      -24.116759    4.908895   -0.334172
     19          6           0      -24.458356    3.651894    0.354147
     20          6           0      -22.599174    5.402364   -2.492822
     21          6           0      -24.641792    6.289307   -0.015405
     22          8           0      -25.415612    6.433327    0.947352
     23          6           0      -24.276049    7.523676   -0.751355
     24          7           0      -25.047728    1.087218    2.060572
     25          6           0      -25.433623    2.337924    2.328850
     26          6           0      -26.319742    2.377629    3.585011
     27          6           0      -26.613630    0.815925    3.924776
     28          6           0      -25.662091    0.179162    2.851522
     29          6           0      -25.638860    3.180735    4.735832
     30          6           0      -28.079130    0.348776    3.708231
     31          6           0      -28.857189   -0.014637    4.981786
     32          7           0      -24.044403   -1.421917    0.912016
     33          6           0      -24.602786   -2.000081    2.054366
     34          6           0      -24.348970   -3.457900    2.063511
     35          6           0      -23.634549   -3.617421    0.852735
     36          6           0      -23.470327   -2.364249    0.204173
     37          6           0      -24.787525   -4.444654    3.029685
     38          6           0      -23.068683   -4.638161   -0.053374
     39          8           0      -23.050279   -5.838857    0.007722
     40          6           0      -22.485352   -3.880406   -1.298850
     41          6           0      -21.078251   -4.277206   -1.467335
     42          8           0      -20.215126   -3.879409   -0.668397
     43          8           0      -20.810036   -4.968096   -2.609219
     44          6           0      -19.417471   -5.226204   -2.961781
     45          1           0      -21.839360    2.740300   -3.015130
     46          1           0      -25.505595    4.446799    2.034357
     47          1           0      -25.875368   -1.734830    3.751449
     48          1           0      -20.699586   -1.926381   -2.761303
     49          1           0      -21.702626    0.392564   -4.260804
     50          1           0      -18.940763   -0.227060   -3.076494
     51          1           0      -19.631026    1.301909   -2.575995
     52          1           0      -19.401921    0.983489   -4.206925
     53          1           0      -22.988272   -1.411656   -4.701886
     54          1           0      -23.150242   -2.720203   -3.744587
     55          1           0      -21.943388   -2.987897   -6.141120
     56          1           0      -21.278953   -3.961863   -4.817914
     57          1           0      -22.105784    4.844010   -3.287630
     58          1           0      -21.812895    6.003391   -2.035191
     59          1           0      -23.348396    5.946315   -3.067769
     60          1           0      -24.888590    8.321773   -0.332996
     61          1           0      -24.434791    7.452521   -1.828179
     62          1           0      -23.201620    7.689195   -0.670112
     63          1           0      -27.284000    2.781892    3.276715
     64          1           0      -26.261230    0.530725    4.915964
     65          1           0      -26.290584    3.927848    5.188994
     66          1           0      -24.760824    3.713718    4.370006
     67          1           0      -25.307021    2.410197    5.432121
     68          1           0      -28.162383   -0.519596    3.055773
     69          1           0      -28.673858    1.103426    3.193077
     70          1           0      -28.462758    0.555926    5.822687
     71          1           0      -28.696890   -1.073669    5.181449
     72          1           0      -29.912589    0.123028    4.750305
     73          1           0      -24.766010   -5.460426    2.635536
     74          1           0      -25.790591   -4.257314    3.412408
     75          1           0      -24.019018   -4.514745    3.799618
     76          1           0      -23.139498   -4.251568   -2.088524
     77          1           0      -18.897662   -5.895378   -2.275595
     78          1           0      -18.875781   -4.293979   -3.121588
     79          1           0      -19.377126   -5.756131   -3.913310
     80         12           0       24.128206    0.531923   -0.115989
     81          6           0       21.900098   -2.181322   -0.126819
     82          6           0       21.783991    2.346448   -1.775653
     83          6           0       26.119852    3.082503    0.357594
     84          6           0       25.972003   -1.363565    2.328176
     85          7           0       22.139173    0.084125   -0.900592
     86          6           0       21.414057   -1.067552   -0.779425
     87          6           0       19.965662   -0.768530   -1.194256
     88          6           0       20.151543    0.394300   -2.162742
     89          6           0       21.391027    1.029348   -1.503702
     90          6           0       20.445027   -0.067714   -3.608787
     91          6           0       19.081159   -0.378590    0.047305
     92          6           0       17.898278   -1.374427    0.485817
     93          1           0       17.936304   -2.008806    1.886598
     94          7           0       23.951824    2.462748   -0.584602
     95          6           0       22.916525    3.025371   -1.295182
     96          6           0       23.262777    4.380943   -1.588391
     97          6           0       24.584167    4.646143   -1.098106
     98          6           0       24.962340    3.386475   -0.394330
     99          6           0       22.319950    5.360726   -2.367499
    100          6           0       25.376335    5.984420   -1.326302
    101          8           0       24.921530    6.836193   -2.026112
    102          6           0       26.771021    6.041330   -0.905682
    103          7           0       25.634412    0.926678    1.407365
    104          6           0       26.487636    1.919374    1.060159
    105          6           0       27.902720    1.697750    1.567450
    106          6           0       27.756065    0.497138    2.489752
    107          6           0       26.344395   -0.036084    2.062782
    108          6           0       28.935778    1.435574    0.409900
    109          6           0       27.878106    0.697635    4.073438
    110          6           0       29.074236    0.214070    4.848686
    111          7           0       24.122715   -1.414824    0.747756
    112          6           0       24.919576   -2.043260    1.713335
    113          6           0       24.423850   -3.363267    2.038076
    114          6           0       23.260494   -3.458808    1.314715
    115          6           0       23.069406   -2.260441    0.551037
    116          6           0       25.034029   -4.293202    3.002346
    117          6           0       22.134492   -4.332617    1.022697
    118          8           0       21.927097   -5.498086    1.382430
    119          6           0       21.279947   -3.598839    0.010701
    120          6           0       21.263809   -4.439132   -1.261578
    121          8           0       22.308751   -4.725044   -1.841691
    122          8           0       19.974310   -4.909910   -1.553997
    123          6           0       19.891870   -5.740127   -2.725859
    124          1           0       21.078340    2.847703   -2.440953
    125          1           0       26.889766    3.842594    0.216272
    126          1           0       26.597533   -1.972480    2.984530
    127          1           0       19.545885   -1.705582   -1.560928
    128          1           0       19.253739    1.010064   -2.126265
    129          1           0       19.705196    0.542037   -4.126218
    130          1           0       20.217313   -1.134033   -3.608450
    131          1           0       21.455517    0.096624   -3.983150
    132          1           0       18.583986    0.560740   -0.194416
    133          1           0       19.754491   -0.156012    0.874684
    134          1           0       17.973235   -2.223169   -0.194397
    135          1           0       16.893970   -0.974738    0.350568
    136          1           0       22.136210    6.344591   -1.936926
    137          1           0       21.364215    4.842102   -2.449721
    138          1           0       22.660831    5.552031   -3.385156
    139          1           0       26.928795    5.854644    0.156782
    140          1           0       27.163388    7.027850   -1.152373
    141          1           0       27.386636    5.431220   -1.565230
    142          1           0       28.307963    2.573684    2.075127
    143          1           0       28.459004   -0.285744    2.204970
    144          1           0       29.506510    2.321536    0.132150
    145          1           0       28.434377    0.936740   -0.419461
    146          1           0       29.661324    0.714501    0.789112
    147          1           0       27.000086    0.492977    4.685106
    148          1           0       27.941993    1.785262    4.031069
    149          1           0       29.673991    1.020119    5.270209
    150          1           0       29.726679   -0.360914    4.191117
    151          1           0       28.650850   -0.417435    5.629403
    152          1           0       25.600256   -3.700531    3.721352
    153          1           0       25.744793   -4.885174    2.425033
    154          1           0       24.290504   -4.956319    3.442179
    155          1           0       20.296702   -3.616337    0.478881
    156          1           0       19.925916   -5.196820   -3.670567
    157          1           0       18.973615   -6.326629   -2.737345
    158          1           0       20.673656   -6.495822   -2.797282
 ---------------------------------------------------------------------

 SCF Done:  E(RPBE1PBE) =  -4067.41990287     A.U. after   16 cycles

 Excitation energies and oscillator strengths:

 Excited State   1:      Singlet-A      1.8785 eV  660.01 nm  f=0.3350  <S**2>=0.000
     309 -> 315        0.18342
     311 -> 313        0.68980
     311 <- 313       -0.10091
 This state for optimization and/or second-order correction.
 Total Energy, E(TD-HF/TD-DFT) =  -4067.35086833
 Copying the excited state density for this state as the 1-particle RhoCI density.

 Excited State   2:      Singlet-A      1.8897 eV  656.09 nm  f=0.3904  <S**2>=0.000
     310 -> 316       -0.18002
     312 -> 314        0.68937
     312 <- 314       -0.10433

 Excited State   3:      Singlet-A      1.9977 eV  620.63 nm  f=0.0000  <S**2>=0.000
     312 -> 313        0.70711

 Excited State   4:      Singlet-A      2.0717 eV  598.47 nm  f=0.0000  <S**2>=0.000
     311 -> 314        0.70711

 Excited State   5:      Singlet-A      2.2566 eV  549.42 nm  f=0.0897  <S**2>=0.000
     310 -> 314        0.64126
     312 -> 316        0.28262

 The electronic state is 1-A.
 Alpha  occ. eigenvalues --  -46.92278 -46.92077 -19.26662 -19.26578 -19.20772
 Alpha  occ. eigenvalues --  -19.19525 -19.19312 -19.19259 -19.18920 -19.18562
 Alpha  occ. eigenvalues --  -14.41640 -14.41592 -14.41314 -14.41220 -14.39182
 Alpha  occ. eigenvalues --  -14.39076 -14.38996 -14.38896 -10.37259 -10.36551
 Alpha  occ. eigenvalues --  -10.32217 -10.32049 -10.32021 -10.31645 -10.29528
 Alpha  occ. eigenvalues --  -10.28877 -10.28865 -10.28740 -10.28711 -10.28530
 Alpha  occ. eigenvalues --  -10.28398 -10.28337 -10.28325 -10.28324 -10.28121
 Alpha  occ. eigenvalues --  -10.27825 -10.27705 -10.27673 -10.27437 -10.27287
 Alpha  occ. eigenvalues --  -10.26815 -10.26810 -10.26806 -10.26375 -10.26227
 Alpha  occ. eigenvalues --  -10.26077 -10.26064 -10.25988 -10.25980 -10.25937
 Alpha  occ. eigenvalues --  -10.25799 -10.25714 -10.25687 -10.25640 -10.25604
 Alpha  occ. eigenvalues --  -10.25596 -10.25379 -10.25284 -10.25247 -10.25220
 Alpha  occ. eigenvalues --  -10.25083 -10.24992 -10.24882 -10.24774 -10.24748
 Alpha  occ. eigenvalues --  -10.24623 -10.24551 -10.24520 -10.24506 -10.24378
 Alpha  occ. eigenvalues --  -10.24117 -10.24080 -10.23738 -10.23695 -10.23666
 Alpha  occ. eigenvalues --  -10.23609 -10.23535 -10.23496 -10.23351 -10.23338
 Alpha  occ. eigenvalues --  -10.23118 -10.23016 -10.23012 -10.23004 -10.22798
 Alpha  occ. eigenvalues --  -10.22773  -3.14285  -3.14266  -1.87148  -1.87080
 Alpha  occ. eigenvalues --   -1.86655  -1.86642  -1.86515  -1.86489  -1.11188
 Alpha  occ. eigenvalues --   -1.10703  -1.06705  -1.05710  -1.03780  -1.03596
 Alpha  occ. eigenvalues --   -1.02994  -1.01904  -0.99740  -0.99377  -0.98889
 Alpha  occ. eigenvalues --   -0.98718  -0.98057  -0.97489  -0.96780  -0.95596
 Alpha  occ. eigenvalues --   -0.87373  -0.86836  -0.83447  -0.83419  -0.83265
 Alpha  occ. eigenvalues --   -0.82860  -0.82579  -0.82015  -0.81917  -0.81510
 Alpha  occ. eigenvalues --   -0.81450  -0.81074  -0.80459  -0.79325  -0.78851
 Alpha  occ. eigenvalues --   -0.78516  -0.78249  -0.77832  -0.76815  -0.76758
 Alpha  occ. eigenvalues --   -0.76580  -0.75997  -0.75517  -0.75376  -0.75181
 Alpha  occ. eigenvalues --   -0.74900  -0.72755  -0.72342  -0.71854  -0.71613
 Alpha  occ. eigenvalues --   -0.71527  -0.70706  -0.70583  -0.70546  -0.69450
 Alpha  occ. eigenvalues --   -0.69243  -0.67310  -0.67064  -0.66595  -0.65980
 Alpha  occ. eigenvalues --   -0.63550  -0.63406  -0.63026  -0.62743  -0.62492
 Alpha  occ. eigenvalues --   -0.62468  -0.61362  -0.61228  -0.60260  -0.60259
 Alpha  occ. eigenvalues --   -0.60082  -0.59851  -0.59607  -0.59405  -0.59026
 Alpha  occ. eigenvalues --   -0.58882  -0.57314  -0.57273  -0.54754  -0.54611
 Alpha  occ. eigenvalues --   -0.54394  -0.54112  -0.53777  -0.53735  -0.53480
 Alpha  occ. eigenvalues --   -0.53219  -0.52957  -0.52906  -0.52284  -0.51865
 Alpha  occ. eigenvalues --   -0.50847  -0.50687  -0.50673  -0.50318  -0.49915
 Alpha  occ. eigenvalues --   -0.49798  -0.49390  -0.49270  -0.48576  -0.48520
 Alpha  occ. eigenvalues --   -0.48136  -0.48062  -0.47689  -0.47611  -0.47609
 Alpha  occ. eigenvalues --   -0.47439  -0.47364  -0.47167  -0.46935  -0.46746
 Alpha  occ. eigenvalues --   -0.46606  -0.46314  -0.46250  -0.46113  -0.45818
 Alpha  occ. eigenvalues --   -0.45730  -0.45608  -0.45490  -0.45122  -0.44864
 Alpha  occ. eigenvalues --   -0.44746  -0.44520  -0.44458  -0.44416  -0.44151
 Alpha  occ. eigenvalues --   -0.43926  -0.43898  -0.43669  -0.43551  -0.43299
 Alpha  occ. eigenvalues --   -0.43143  -0.43051  -0.43003  -0.42764  -0.42741
 Alpha  occ. eigenvalues --   -0.42590  -0.42238  -0.42119  -0.41858  -0.41840
 Alpha  occ. eigenvalues --   -0.41771  -0.41357  -0.41300  -0.41025  -0.41000
 Alpha  occ. eigenvalues --   -0.40954  -0.40854  -0.40710  -0.40650  -0.40454
 Alpha  occ. eigenvalues --   -0.40271  -0.40128  -0.40004  -0.39914  -0.39742
 Alpha  occ. eigenvalues --   -0.39319  -0.39215  -0.39135  -0.39070  -0.38996
 Alpha  occ. eigenvalues --   -0.38639  -0.38598  -0.38423  -0.38379  -0.38316
 Alpha  occ. eigenvalues --   -0.38136  -0.37982  -0.37898  -0.37829  -0.37519
 Alpha  occ. eigenvalues --   -0.37391  -0.37235  -0.37026  -0.36975  -0.36830
 Alpha  occ. eigenvalues --   -0.36602  -0.36552  -0.36447  -0.36344  -0.36010
 Alpha  occ. eigenvalues --   -0.35981  -0.35803  -0.35758  -0.35592  -0.35542
 Alpha  occ. eigenvalues --   -0.35278  -0.35267  -0.34933  -0.34860  -0.34513
 Alpha  occ. eigenvalues --   -0.33893  -0.33157  -0.32980  -0.32477  -0.32468
 Alpha  occ. eigenvalues --   -0.32191  -0.32063  -0.31723  -0.31713  -0.31659
 Alpha  occ. eigenvalues --   -0.31595  -0.31076  -0.29910  -0.29702  -0.29259
 Alpha  occ. eigenvalues --   -0.29009  -0.28916  -0.28493  -0.26956  -0.26690
 Alpha  occ. eigenvalues --   -0.26116  -0.25850  -0.25797  -0.25670  -0.25578
 Alpha  occ. eigenvalues --   -0.25545  -0.25263  -0.25122  -0.21284  -0.20810
 Alpha  occ. eigenvalues --   -0.18669  -0.18496
 Alpha virt. eigenvalues --   -0.10879  -0.10780  -0.05642  -0.05209  -0.03703
 Alpha virt. eigenvalues --   -0.03645  -0.01878  -0.01819  -0.00874  -0.00351
 Alpha virt. eigenvalues --   -0.00231   0.00352   0.00756   0.01320   0.01773

 Mulliken charges:
               1
     1  Mg  12.000025
     2  C    6.000606
     3  C    5.999946
     4  C    5.999330
     5  C    5.999952
     6  N    7.000322
     7  C    5.999126
     8  C    6.000323
     9  C    5.999929
    10  C    6.000619
    11  C    5.999967
    12  C    6.000102
    13  C    6.000012
    14  H    0.999843
    15  N    6.999858
    16  C    6.000802
    17  C    6.000730
    18  C    6.000286
    19  C    6.000839
    20  C    5.999897
    21  C    6.000270
    22  O    8.000764
    23  C    5.999909
    24  N    6.999611
    25  C    6.000874
    26  C    5.999770
    27  C    6.000274
    28  C    5.999273
    29  C    5.999928
    30  C    6.000165
    31  C    5.999974
    32  N    7.000139
    33  C    5.999183
    34  C    5.999316
    35  C    5.999963
    36  C    5.999257
    37  C    6.000123
    38  C    5.999500
    39  O    7.999265
    40  C    5.999904
    41  C    5.999961
    42  O    7.999900
    43  O    7.999957
    44  C    6.000070
    45  H    1.000353
    46  H    1.000054
    47  H    0.999628
    48  H    0.999967
    49  H    0.999995
    50  H    1.000295
    51  H    0.999909
    52  H    1.000102
    53  H    0.999784
    54  H    1.000135
    55  H    0.999954
    56  H    1.000087
    57  H    1.000407
    58  H    1.000505
    59  H    1.000463
    60  H    1.000351
    61  H    1.000152
    62  H    1.000178
    63  H    0.999960
    64  H    0.999948
    65  H    1.000016
    66  H    0.999848
    67  H    1.000225
    68  H    1.000070
    69  H    0.999702
    70  H    0.999866
    71  H    1.000059
    72  H    0.999870
    73  H    0.999599
    74  H    0.999602
    75  H    0.999470
    76  H    0.999871
    77  H    0.999947
    78  H    0.999866
    79  H    0.999899
    80  Mg  11.999545
    81  C    5.978337
    82  C    6.014117
    83  C    6.017185
    84  C    5.988419
    85  N    6.995741
    86  C    6.029736
    87  C    6.000103
    88  C    6.007350
    89  C    5.968494
    90  C    6.001375
    91  C    5.999091
    92  C    6.000363
    93  H    0.994536
    94  N    7.006319
    95  C    5.961426
    96  C    5.981651
    97  C    5.988883
    98  C    5.963120
    99  C    6.002625
   100  C    5.986006
   101  O    7.982949
   102  C    6.006848
   103  N    6.998569
   104  C    5.968936
   105  C    6.008180
   106  C    5.994628
   107  C    6.033070
   108  C    6.004366
   109  C    5.990929
   110  C    6.000767
   111  N    6.998652
   112  C    6.034492
   113  C    6.028965
   114  C    5.999306
   115  C    6.032635
   116  C    5.997885
   117  C    6.020388
   118  O    8.030324
   119  C    5.996851
   120  C    6.007139
   121  O    8.002008
   122  O    8.002457
   123  C    5.997056
   124  H    0.989291
   125  H    0.991986
   126  H    1.009286
   127  H    0.995505
   128  H    0.997769
   129  H    0.999040
   130  H    0.984617
   131  H    1.001036
   132  H    1.012281
   133  H    0.999651
   134  H    0.997825
   135  H    1.004074
   136  H    0.983374
   137  H    0.984608
   138  H    0.982332
   139  H    0.990331
   140  H    0.987560
   141  H    0.990685
   142  H    1.000517
   143  H    0.999384
   144  H    1.002206
   145  H    0.996931
   146  H    0.988636
   147  H    0.999595
   148  H    1.013233
   149  H    1.005530
   150  H    1.001608
   151  H    0.998232
   152  H    1.016469
   153  H    1.018473
   154  H    1.013717
   155  H    1.009882
   156  H    1.006969
   157  H    1.004415
   158  H    1.001129
 Sum of Mulliken charges = 624.00000

 Dipole moment (field-independent basis, Debye):
    X=             -0.0394    Y=             -8.9677    Z=              3.6901  Tot=              9.6973
 Quadrupole moment (field-independent basis, Debye-Ang):
   XX=             -4.3467   YY=             -7.9151   ZZ=              2.1532
   XY=           -224.9784   XZ=             94.3046   YZ=              2.0943

 Normal termination of Gaussian 16 at Fri Oct 15 03:27:35 2021.
