 Gaussian 16, Revision A.03,
 Gaussian 16:  ES64L-G16RevA.03 25-Dec-2016

 --------------------------------------------------------
 #p PBE1PBE/Def2SVP td=(nstates=5) density=(transition=1)
 --------------------------------------------------------

 --------------------------------
 TDDFT excited states in gaussian
 --------------------------------
 Symbolic Z-matrix:
 Charge =  0 Multiplicity = 1

                         Standard orientation:
 ---------------------------------------------------------------------
 Center     Atomic      Atomic             Coordinates (Angstroms)
 Number     Number       Type             X           Y           Z
 ---------------------------------------------------------------------
      1         12           0       13.298491    0.490037   -0.104322
      2          6           0       11.423923   -1.839609    1.509445
      3          6           0       14.944075   -1.852123   -2.030305
      4          6           0       15.210344    2.992810   -1.447568
      5          6           0       11.969674    2.985061    2.153993
      6          7           0       13.327816   -1.603212   -0.077884
      7          6           0       12.269528   -2.383870    0.496994
      8          6           0       12.261983   -3.752343   -0.057052
      9          6           0       13.645195   -3.776880   -0.849724
     10          6           0       14.042816   -2.327662   -1.020768
     11          6           0       14.799029   -4.599444   -0.085364
     12          6           0       10.957599   -4.142093   -0.818138
     13          6           0       10.412396   -5.496476   -0.497405
     14          1           0       11.477185   -6.648913   -0.315754
     15          7           0       14.814785    0.567580   -1.596773
     16          6           0       15.319813   -0.534508   -2.220243
     17          6           0       16.296529   -0.087977   -3.153447
     18          6           0       16.359844    1.358957   -3.093493
     19          6           0       15.364402    1.753634   -2.041264
     20          6           0       17.163793   -1.071035   -3.969820
     21          6           0       17.137912    2.382117   -3.860370
     22          8           0       17.204614    3.601127   -3.666398
     23          6           0       17.931244    1.825905   -5.102818
     24          7           0       13.648929    2.719005    0.366051
     25          6           0       14.389596    3.488318   -0.392289
     26          6           0       14.166123    4.972784   -0.111118
     27          6           0       13.125339    4.948524    1.044554
     28          6           0       12.899707    3.448819    1.226163
     29          6           0       15.513079    5.766431    0.284748
     30          6           0       11.811954    5.711332    0.566676
     31          6           0       10.921718    5.137820   -0.563403
     32          7           0       12.088138    0.554333    1.616757
     33          6           0       11.618372    1.624357    2.354715
     34          6           0       10.599552    1.079243    3.274850
     35          6           0       10.437123   -0.249772    3.022114
     36          6           0       11.394687   -0.521197    1.978537
     37          6           0        9.991092    1.848171    4.396595
     38          6           0        9.730608   -1.482167    3.370748
     39          8           0        8.872925   -1.707227    4.208101
     40          6           0       10.375082   -2.553978    2.386253
     41          6           0       11.054290   -3.561985    3.225455
     42          8           0       11.936332   -3.376471    4.081935
     43          8           0       10.476337   -4.756903    2.847312
     44          6           0       11.119200   -5.949030    3.415472
     45          1           0       15.449148   -2.555727   -2.695138
     46          1           0       15.766732    3.753567   -2.000241
     47          1           0       11.500028    3.735999    2.791745
     48          1           0       12.312446   -4.397708    0.820825
     49          1           0       13.460330   -4.215747   -1.829723
     50          1           0       14.425162   -5.228345    0.722601
     51          1           0       15.398064   -3.856382    0.440866
     52          1           0       15.341103   -5.084017   -0.896366
     53          1           0       11.138460   -4.116611   -1.892765
     54          1           0       10.254497   -3.376187   -0.491127
     55          1           0        9.785340   -5.902375   -1.290249
     56          1           0        9.741553   -5.656868    0.346712
     57          1           0       16.671474   -1.547614   -4.817440
     58          1           0       17.502510   -1.769402   -3.204720
     59          1           0       17.986914   -0.581324   -4.489722
     60          1           0       18.796519    1.266402   -4.747264
     61          1           0       18.075518    2.647816   -5.803828
     62          1           0       17.338604    1.170867   -5.741742
     63          1           0       13.712481    5.426128   -0.992153
     64          1           0       13.474120    5.432430    1.956898
     65          1           0       15.768334    6.370908   -0.586367
     66          1           0       16.322899    5.060987    0.473665
     67          1           0       15.499360    6.474833    1.112064
     68          1           0       11.957031    6.759078    0.303964
     69          1           0       11.198009    5.643183    1.465335
     70          1           0        9.990162    4.920973   -0.040456
     71          1           0       11.363494    4.267102   -1.046326
     72          1           0       10.728436    5.840830   -1.373629
     73          1           0        8.992050    1.418408    4.462714
     74          1           0        9.964967    2.921977    4.210303
     75          1           0       10.445151    1.486812    5.318356
     76          1           0        9.461539   -2.982869    1.975287
     77          1           0       10.448018   -6.744635    3.090714
     78          1           0       11.029054   -5.847927    4.497027
     79          1           0       12.181974   -6.062869    3.200811
     80         12           0      -13.592216    0.481817    0.235352
     81          6           0      -11.112941   -1.809846   -0.821001
     82          6           0      -15.805814   -1.881840   -0.299713
     83          6           0      -15.822811    2.922197    0.203522
     84          6           0      -11.045835    2.951780    0.026536
     85          7           0      -13.347794   -1.697238   -0.333378
     86          6           0      -12.326159   -2.418558   -0.620176
     87          6           0      -12.703532   -3.913546   -0.665901
     88          6           0      -14.286120   -3.877516   -0.975170
     89          6           0      -14.523199   -2.359341   -0.585152
     90          6           0      -14.725040   -4.212328   -2.455520
     91          6           0      -12.450671   -4.612803    0.770061
     92          6           0      -12.018828   -6.112525    0.856521
     93          1           0      -12.506467   -7.044472   -0.313323
     94          7           0      -15.569842    0.499118    0.195043
     95          6           0      -16.321428   -0.652719    0.017451
     96          6           0      -17.778301   -0.275932    0.059924
     97          6           0      -17.765423    1.169039    0.249023
     98          6           0      -16.387585    1.667507    0.225872
     99          6           0      -18.865891   -1.315966   -0.132153
    100          6           0      -18.963877    2.071555    0.443756
    101          8           0      -18.906045    3.303750    0.558440
    102          6           0      -20.302128    1.459496    0.543517
    103          7           0      -13.443000    2.711139    0.233437
    104          6           0      -14.546216    3.434814    0.173466
    105          6           0      -14.217600    4.959297    0.499683
    106          6           0      -12.596819    4.924083    0.405255
    107          6           0      -12.338681    3.427971    0.248150
    108          6           0      -14.931803    5.978560   -0.448265
    109          6           0      -11.778383    5.528388    1.593121
    110          6           0      -11.010295    6.796030    1.320067
    111          7           0      -11.432673    0.586219   -0.076124
    112          6           0      -10.591904    1.680518   -0.120909
    113          6           0       -9.304074    1.282277   -0.510870
    114          6           0       -9.478005   -0.076535   -0.835167
    115          6           0      -10.771510   -0.479520   -0.601593
    116          6           0       -8.115056    2.093999   -0.639499
    117          6           0       -8.724621   -1.199431   -1.239753
    118          8           0       -7.506044   -1.441537   -1.455703
    119          6           0       -9.826468   -2.319901   -1.510873
    120          6           0       -9.354051   -3.637554   -1.015941
    121          8           0       -9.098611   -3.962013    0.141902
    122          8           0       -9.353794   -4.530387   -2.133723
    123          6           0       -8.908917   -5.908380   -1.889591
    124          1           0      -16.486708   -2.734174   -0.356431
    125          1           0      -16.573644    3.712654    0.254437
    126          1           0      -10.254800    3.705308    0.042116
    127          1           0      -12.285496   -4.318531   -1.587128
    128          1           0      -14.763168   -4.667066   -0.395549
    129          1           0      -13.878445   -4.210414   -3.141748
    130          1           0      -15.403123   -3.457791   -2.853855
    131          1           0      -15.175466   -5.203902   -2.412211
    132          1           0      -13.311742   -4.477555    1.424744
    133          1           0      -11.698714   -4.027108    1.299226
    134          1           0      -12.346713   -6.611724    1.768895
    135          1           0      -10.943567   -6.135905    0.675105
    136          1           0      -19.673084   -1.205370    0.592832
    137          1           0      -18.495194   -2.339606   -0.078367
    138          1           0      -19.194528   -1.304306   -1.171072
    139          1           0      -20.536154    0.877631   -0.348426
    140          1           0      -21.054085    2.236446    0.681721
    141          1           0      -20.457337    0.801733    1.398715
    142          1           0      -14.448615    5.227609    1.530512
    143          1           0      -12.233391    5.295277   -0.554125
    144          1           0      -15.459944    5.451670   -1.243173
    145          1           0      -14.094508    6.623045   -0.716753
    146          1           0      -15.564984    6.601152    0.182517
    147          1           0      -11.047266    4.778368    1.895655
    148          1           0      -12.439860    5.685889    2.445263
    149          1           0      -11.361303    7.091183    0.332129
    150          1           0       -9.955040    6.532772    1.238966
    151          1           0      -11.238548    7.600381    2.018271
    152          1           0       -8.002665    2.634759    0.299829
    153          1           0       -8.190788    2.949901   -1.310230
    154          1           0       -7.248853    1.451966   -0.800538
    155          1           0      -10.003964   -2.366036   -2.585809
    156          1           0       -8.864900   -6.470737   -2.822651
    157          1           0       -9.692727   -6.431457   -1.341433
    158          1           0       -7.904222   -5.890353   -1.468580
 ---------------------------------------------------------------------

 SCF Done:  E(RPBE1PBE) =  -4067.33997012     A.U. after   17 cycles

 Excitation energies and oscillator strengths:

 Excited State   1:      Singlet-A      1.8381 eV  674.53 nm  f=0.3863  <S**2>=0.000
     309 -> 316        0.17964
     312 -> 314        0.69173
     312 <- 314       -0.10367
 This state for optimization and/or second-order correction.
 Total Energy, E(TD-HF/TD-DFT) =  -4067.27242168
 Copying the excited state density for this state as the 1-particle RhoCI density.

 Excited State   2:      Singlet-A      1.8795 eV  659.68 nm  f=0.0000  <S**2>=0.000
     312 -> 313        0.70709

 Excited State   3:      Singlet-A      1.9488 eV  636.20 nm  f=0.3470  <S**2>=0.000
     310 -> 315       -0.20418
     311 -> 313        0.68079

 Excited State   4:      Singlet-A      2.1318 eV  581.59 nm  f=0.0000  <S**2>=0.000
     311 -> 314        0.70710

 Excited State   5:      Singlet-A      2.2125 eV  560.39 nm  f=0.0816  <S**2>=0.000
     310 -> 313        0.64637
     311 -> 315        0.26594

 The electronic state is 1-A.
 Alpha  occ. eigenvalues --  -46.92790 -46.92561 -19.26264 -19.24624 -19.20465
 Alpha  occ. eigenvalues --  -19.20407 -19.19846 -19.19480 -19.19180 -19.18765
 Alpha  occ. eigenvalues --  -14.41890 -14.41657 -14.41499 -14.41151 -14.39664
 Alpha  occ. eigenvalues --  -14.39142 -14.39005 -14.38300 -10.36513 -10.36298
 Alpha  occ. eigenvalues --  -10.32619 -10.32598 -10.32205 -10.31667 -10.29556
 Alpha  occ. eigenvalues --  -10.29506 -10.29246 -10.28994 -10.28665 -10.28432
 Alpha  occ. eigenvalues --  -10.28403 -10.28399 -10.28346 -10.28315 -10.28072
 Alpha  occ. eigenvalues --  -10.28034 -10.27929 -10.27843 -10.27528 -10.27259
 Alpha  occ. eigenvalues --  -10.26840 -10.26655 -10.26567 -10.26515 -10.26491
 Alpha  occ. eigenvalues --  -10.26484 -10.26294 -10.26222 -10.26159 -10.26075
 Alpha  occ. eigenvalues --  -10.26073 -10.26072 -10.25785 -10.25661 -10.25504
 Alpha  occ. eigenvalues --  -10.25490 -10.25488 -10.25427 -10.25411 -10.25341
 Alpha  occ. eigenvalues --  -10.25320 -10.25301 -10.25125 -10.25104 -10.25082
 Alpha  occ. eigenvalues --  -10.25005 -10.24890 -10.24663 -10.24626 -10.24148
 Alpha  occ. eigenvalues --  -10.24003 -10.23967 -10.23888 -10.23867 -10.23647
 Alpha  occ. eigenvalues --  -10.23629 -10.23353 -10.23303 -10.23274 -10.23067
 Alpha  occ. eigenvalues --  -10.23038 -10.22944 -10.22863 -10.22848 -10.22576
 Alpha  occ. eigenvalues --  -10.22391  -3.14827  -3.14550  -1.87670  -1.87393
 Alpha  occ. eigenvalues --   -1.87209  -1.87036  -1.86914  -1.86773  -1.10681
 Alpha  occ. eigenvalues --   -1.08684  -1.04998  -1.04099  -1.04087  -1.02237
 Alpha  occ. eigenvalues --   -1.02039  -1.01543  -1.00438  -0.99860  -0.99692
 Alpha  occ. eigenvalues --   -0.98514  -0.98230  -0.97360  -0.96239  -0.96087
 Alpha  occ. eigenvalues --   -0.87371  -0.86739  -0.83834  -0.83324  -0.83015
 Alpha  occ. eigenvalues --   -0.82940  -0.82225  -0.82195  -0.81907  -0.81644
 Alpha  occ. eigenvalues --   -0.81634  -0.81178  -0.81119  -0.80327  -0.78866
 Alpha  occ. eigenvalues --   -0.78594  -0.78269  -0.77600  -0.77002  -0.76607
 Alpha  occ. eigenvalues --   -0.76231  -0.75797  -0.75790  -0.75407  -0.75023
 Alpha  occ. eigenvalues --   -0.74062  -0.73278  -0.72268  -0.72053  -0.71595
 Alpha  occ. eigenvalues --   -0.71401  -0.71276  -0.70227  -0.70071  -0.69583
 Alpha  occ. eigenvalues --   -0.69238  -0.67707  -0.66862  -0.66748  -0.66576
 Alpha  occ. eigenvalues --   -0.64112  -0.63571  -0.63411  -0.62949  -0.62756
 Alpha  occ. eigenvalues --   -0.62314  -0.61756  -0.61623  -0.60433  -0.60093
 Alpha  occ. eigenvalues --   -0.60030  -0.59737  -0.59393  -0.59162  -0.59147
 Alpha  occ. eigenvalues --   -0.58866  -0.57040  -0.55832  -0.55079  -0.54753
 Alpha  occ. eigenvalues --   -0.54731  -0.53918  -0.53910  -0.53422  -0.53304
 Alpha  occ. eigenvalues --   -0.53036  -0.52421  -0.52319  -0.52036  -0.51879
 Alpha  occ. eigenvalues --   -0.51493  -0.50480  -0.50345  -0.50013  -0.50006
 Alpha  occ. eigenvalues --   -0.49444  -0.49376  -0.48953  -0.48837  -0.48553
 Alpha  occ. eigenvalues --   -0.48097  -0.48039  -0.47847  -0.47740  -0.47596
 Alpha  occ. eigenvalues --   -0.47541  -0.47078  -0.47025  -0.46900  -0.46841
 Alpha  occ. eigenvalues --   -0.46659  -0.46406  -0.46244  -0.46141  -0.46095
 Alpha  occ. eigenvalues --   -0.45730  -0.45569  -0.45503  -0.45330  -0.45066
 Alpha  occ. eigenvalues --   -0.44986  -0.44482  -0.44452  -0.44240  -0.44204
 Alpha  occ. eigenvalues --   -0.43879  -0.43775  -0.43429  -0.43402  -0.43264
 Alpha  occ. eigenvalues --   -0.43188  -0.43121  -0.43042  -0.43042  -0.42684
 Alpha  occ. eigenvalues --   -0.42654  -0.42473  -0.42307  -0.42271  -0.42018
 Alpha  occ. eigenvalues --   -0.42010  -0.41925  -0.41664  -0.41534  -0.41526
 Alpha  occ. eigenvalues --   -0.41271  -0.41072  -0.40895  -0.40808  -0.40519
 Alpha  occ. eigenvalues --   -0.40307  -0.40235  -0.40149  -0.39866  -0.39735
 Alpha  occ. eigenvalues --   -0.39421  -0.39219  -0.38994  -0.38790  -0.38737
 Alpha  occ. eigenvalues --   -0.38665  -0.38405  -0.38168  -0.38141  -0.37943
 Alpha  occ. eigenvalues --   -0.37789  -0.37666  -0.37611  -0.37567  -0.37493
 Alpha  occ. eigenvalues --   -0.37013  -0.36986  -0.36818  -0.36781  -0.36772
 Alpha  occ. eigenvalues --   -0.36475  -0.36430  -0.36375  -0.36346  -0.35972
 Alpha  occ. eigenvalues --   -0.35869  -0.35648  -0.35582  -0.35520  -0.35291
 Alpha  occ. eigenvalues --   -0.35273  -0.35014  -0.34653  -0.34398  -0.33973
 Alpha  occ. eigenvalues --   -0.33497  -0.32878  -0.32785  -0.32443  -0.32441
 Alpha  occ. eigenvalues --   -0.32069  -0.31653  -0.31560  -0.31394  -0.31294
 Alpha  occ. eigenvalues --   -0.31043  -0.30677  -0.29791  -0.29550  -0.29303
 Alpha  occ. eigenvalues --   -0.28954  -0.28937  -0.28792  -0.27422  -0.26796
 Alpha  occ. eigenvalues --   -0.26249  -0.26047  -0.25948  -0.25860  -0.25587
 Alpha  occ. eigenvalues --   -0.25361  -0.25294  -0.25015  -0.21220  -0.21111
 Alpha  occ. eigenvalues --   -0.19313  -0.18584
 Alpha virt. eigenvalues --   -0.11174  -0.10987  -0.06068  -0.05713  -0.04425
 Alpha virt. eigenvalues --   -0.04371  -0.02194  -0.02146  -0.00781  -0.00542
 Alpha virt. eigenvalues --   -0.00033   0.00159   0.00893   0.01127   0.01154

 Mulliken charges:
               1
     1  Mg  12.003033
     2  C    6.019976
     3  C    5.980704
     4  C    5.996791
     5  C    6.016403
     6  N    7.002099
     7  C    5.964791
     8  C    6.011905
     9  C    5.989832
    10  C    6.034596
    11  C    5.999054
    12  C    6.002430
    13  C    6.003982
    14  H    0.991628
    15  N    6.992531
    16  C    6.035742
    17  C    6.021564
    18  C    6.016628
    19  C    6.024048
    20  C    5.999946
    21  C    6.012165
    22  O    8.030285
    23  C    5.995709
    24  N    7.003246
    25  C    6.025267
    26  C    5.991089
    27  C    6.010628
    28  C    5.967624
    29  C    5.998932
    30  C    6.002187
    31  C    6.004242
    32  N    7.002085
    33  C    5.957469
    34  C    5.973830
    35  C    5.996886
    36  C    5.969370
    37  C    6.001366
    38  C    5.982398
    39  O    7.973483
    40  C    5.997929
    41  C    5.996984
    42  O    7.995598
    43  O    7.998344
    44  C    6.001449
    45  H    1.007366
    46  H    1.006839
    47  H    0.991899
    48  H    0.998800
    49  H    1.000782
    50  H    1.013581
    51  H    1.000266
    52  H    0.998994
    53  H    0.988048
    54  H    1.005015
    55  H    0.996442
    56  H    1.003209
    57  H    1.019390
    58  H    1.014299
    59  H    1.012458
    60  H    1.008685
    61  H    1.013725
    62  H    1.007690
    63  H    1.000101
    64  H    0.997674
    65  H    0.997854
    66  H    0.996936
    67  H    1.008935
    68  H    0.990734
    69  H    1.004387
    70  H    1.005368
    71  H    0.991606
    72  H    0.993474
    73  H    0.985606
    74  H    0.982437
    75  H    0.980760
    76  H    0.992723
    77  H    0.995704
    78  H    0.998646
    79  H    0.993322
    80  Mg  12.000045
    81  C    5.999675
    82  C    6.000156
    83  C    6.000271
    84  C    5.999938
    85  N    6.999820
    86  C    6.000548
    87  C    5.999868
    88  C    6.000264
    89  C    5.999406
    90  C    6.000078
    91  C    5.999969
    92  C    6.000057
    93  H    0.999850
    94  N    7.000172
    95  C    5.999421
    96  C    5.999413
    97  C    5.999845
    98  C    5.999405
    99  C    6.000148
   100  C    5.999731
   101  O    7.999437
   102  C    6.000195
   103  N    7.000015
   104  C    5.999410
   105  C    6.000231
   106  C    5.999855
   107  C    6.000544
   108  C    6.000033
   109  C    5.999877
   110  C    6.000019
   111  N    6.999937
   112  C    6.000497
   113  C    6.000787
   114  C    5.999972
   115  C    6.000549
   116  C    5.999821
   117  C    6.000366
   118  O    8.000932
   119  C    5.999996
   120  C    6.000101
   121  O    8.000310
   122  O    7.999950
   123  C    5.999966
   124  H    0.999734
   125  H    0.999788
   126  H    1.000282
   127  H    0.999917
   128  H    0.999841
   129  H    0.999734
   130  H    0.999949
   131  H    0.999800
   132  H    1.000143
   133  H    1.000062
   134  H    1.000057
   135  H    1.000090
   136  H    0.999609
   137  H    0.999655
   138  H    0.999483
   139  H    0.999803
   140  H    0.999617
   141  H    0.999833
   142  H    0.999943
   143  H    0.999902
   144  H    0.999955
   145  H    0.999825
   146  H    0.999921
   147  H    1.000131
   148  H    1.000167
   149  H    0.999909
   150  H    1.000160
   151  H    1.000067
   152  H    1.000629
   153  H    1.000362
   154  H    1.000565
   155  H    0.999988
   156  H    0.999906
   157  H    0.999994
   158  H    1.000299
 Sum of Mulliken charges = 624.00000

 Dipole moment (field-independent basis, Debye):
    X=              7.4197    Y=              0.6932    Z=             -7.4375  Tot=             10.5285
 Quadrupole moment (field-independent basis, Debye-Ang):
   XX=            187.0452   YY=             -1.9910   ZZ=              0.2715
   XY=             12.3712   XZ=           -101.1996   YZ=             -4.1797

 Normal termination of Gaussian 16 at Wed Oct 13 20:58:04 2021.
