 Gaussian 16, Revision A.03,
 Gaussian 16:  ES64L-G16RevA.03 25-Dec-2016

 --------------------------------------------------------
 #p PBE1PBE/Def2SVP td=(nstates=5) density=(transition=1)
 --------------------------------------------------------

 --------------------------------
 TDDFT excited states in gaussian
 --------------------------------
 Symbolic Z-matrix:
 Charge =  0 Multiplicity = 1

                         Standard orientation:
 ---------------------------------------------------------------------
 Center     Atomic      Atomic             Coordinates (Angstroms)
 Number     Number       Type             X           Y           Z
 ---------------------------------------------------------------------
      1         12           0       31.322558    0.317660    0.458788
      2          6           0       28.026654    0.330107   -1.154433
      3          6           0       29.649762   -0.977443    3.198157
      4          6           0       34.166207   -0.693060    1.489307
      5          6           0       32.601894    1.253034   -2.766138
      6          7           0       29.004673   -0.396159    0.874298
      7          6           0       27.871705   -0.283489    0.098444
      8          6           0       26.661672   -0.957126    0.843297
      9          6           0       27.136704   -1.100734    2.299637
     10          6           0       28.676333   -0.812252    2.125881
     11          6           0       26.534776   -0.123734    3.393274
     12          6           0       26.175863   -2.290647    0.178769
     13          6           0       24.680121   -2.519683    0.145427
     14          1           0       24.097620   -3.507666    1.204268
     15          7           0       31.864633   -0.571111    2.142102
     16          6           0       31.084004   -0.938195    3.204361
     17          6           0       31.933016   -1.532117    4.273113
     18          6           0       33.251446   -1.467012    3.751801
     19          6           0       33.126590   -0.934672    2.397192
     20          6           0       31.459618   -2.152197    5.597918
     21          6           0       34.536167   -2.066671    4.330620
     22          8           0       34.462134   -2.587652    5.440217
     23          6           0       35.796918   -2.035806    3.700742
     24          7           0       33.110927    0.050054   -0.649831
     25          6           0       34.200625   -0.156678    0.172562
     26          6           0       35.507340    0.056273   -0.685609
     27          6           0       34.957492    0.373376   -2.122461
     28          6           0       33.474007    0.672415   -1.798808
     29          6           0       36.496016    1.129236   -0.152416
     30          6           0       35.145977   -0.701524   -3.267619
     31          6           0       36.515995   -0.785274   -3.962813
     32          7           0       30.568153    0.775116   -1.573829
     33          6           0       31.207603    1.253729   -2.699889
     34          6           0       30.270593    1.655277   -3.720958
     35          6           0       28.989511    1.320298   -3.142167
     36          6           0       29.168252    0.726002   -1.844285
     37          6           0       30.665955    2.186591   -5.064227
     38          6           0       27.623158    1.282623   -3.417787
     39          8           0       27.006886    1.475084   -4.457176
     40          6           0       26.943921    0.536500   -2.233030
     41          6           0       25.886677    1.495577   -1.737874
     42          8           0       24.715287    1.168354   -1.532058
     43          8           0       26.367908    2.811234   -1.352542
     44          6           0       25.389579    3.552386   -0.558130
     45          1           0       29.139792   -1.318109    4.101122
     46          1           0       35.212594   -0.818100    1.775466
     47          1           0       33.136140    1.604233   -3.651306
     48          1           0       25.861784   -0.221084    0.935820
     49          1           0       27.076661   -2.132596    2.645681
     50          1           0       25.851660   -0.746802    3.970157
     51          1           0       25.935744    0.661503    2.933031
     52          1           0       27.264814    0.397185    4.012694
     53          1           0       26.483241   -3.197251    0.700635
     54          1           0       26.495503   -2.332971   -0.862673
     55          1           0       24.424667   -2.791379   -0.878808
     56          1           0       24.198069   -1.562232    0.345500
     57          1           0       32.144285   -1.875378    6.400047
     58          1           0       31.421181   -3.220512    5.385335
     59          1           0       30.488609   -1.755091    5.890665
     60          1           0       36.126680   -0.997245    3.658728
     61          1           0       35.838158   -2.534753    2.732472
     62          1           0       36.368013   -2.691561    4.358854
     63          1           0       36.118281   -0.840463   -0.783551
     64          1           0       35.340840    1.323746   -2.493077
     65          1           0       36.609693    1.841413   -0.969835
     66          1           0       37.448527    0.642338    0.054426
     67          1           0       35.995222    1.515181    0.736319
     68          1           0       34.390118   -0.419903   -4.001467
     69          1           0       35.013985   -1.711771   -2.879658
     70          1           0       37.031621    0.050677   -3.489273
     71          1           0       36.442347   -0.509400   -5.015718
     72          1           0       37.079833   -1.709744   -3.840507
     73          1           0       31.304025    1.418410   -5.499130
     74          1           0       31.310638    3.063794   -5.012489
     75          1           0       29.829866    2.243483   -5.761337
     76          1           0       26.445032   -0.335691   -2.655076
     77          1           0       26.121292    4.180048   -0.048059
     78          1           0       24.728527    2.891566    0.002569
     79          1           0       24.858783    4.200075   -1.255989
     80         12           0      -31.208420   -0.401523   -0.260867
     81          6           0      -28.364175    1.666519   -0.132630
     82          6           0      -32.765694    1.835496    1.898123
     83          6           0      -33.741750   -2.545951   -0.154859
     84          6           0      -29.195754   -2.980443   -1.740337
     85          7           0      -30.630847    1.488868    0.769508
     86          6           0      -29.440112    2.196457    0.552844
     87          6           0      -29.630681    3.636641    0.991400
     88          6           0      -30.906922    3.621437    1.880043
     89          6           0      -31.478991    2.225538    1.488835
     90          6           0      -30.694455    3.881237    3.404543
     91          6           0      -29.673438    4.677494   -0.180603
     92          6           0      -29.103244    6.113828    0.202210
     93          1           0      -28.639396    6.337812    1.643975
     94          7           0      -32.991310   -0.296559    0.604057
     95          6           0      -33.483815    0.731637    1.389168
     96          6           0      -34.860346    0.502633    1.721501
     97          6           0      -35.141541   -0.819875    1.250871
     98          6           0      -33.962995   -1.241374    0.514815
     99          6           0      -35.715054    1.479125    2.585873
    100          6           0      -36.375914   -1.638845    1.443123
    101          8           0      -36.420757   -2.845994    1.105844
    102          6           0      -37.721200   -1.244715    2.120917
    103          7           0      -31.381270   -2.553921   -0.606296
    104          6           0      -32.578235   -3.170217   -0.587839
    105          6           0      -32.492912   -4.542035   -1.303031
    106          6           0      -31.047945   -4.699592   -1.789870
    107          6           0      -30.500750   -3.260706   -1.383318
    108          6           0      -33.077443   -5.642863   -0.471489
    109          6           0      -30.840404   -5.041951   -3.280862
    110          6           0      -31.428099   -4.018295   -4.283321
    111          7           0      -29.159560   -0.699542   -0.794617
    112          6           0      -28.580986   -1.698382   -1.501265
    113          6           0      -27.258015   -1.218891   -1.898171
    114          6           0      -27.087213    0.112887   -1.426850
    115          6           0      -28.272943    0.383277   -0.701356
    116          6           0      -26.274151   -1.962812   -2.797333
    117          6           0      -26.204049    1.233738   -1.370720
    118          8           0      -25.128274    1.498895   -1.900594
    119          6           0      -27.015175    2.333457   -0.419867
    120          6           0      -26.121027    2.750635    0.732567
    121          8           0      -25.965412    2.085492    1.737842
    122          8           0      -25.606620    4.009940    0.522788
    123          6           0      -24.446635    4.437037    1.298400
    124          1           0      -33.195959    2.661861    2.467402
    125          1           0      -34.639228   -3.167398   -0.169846
    126          1           0      -28.690719   -3.764184   -2.308271
    127          1           0      -28.783898    3.940268    1.606752
    128          1           0      -31.573947    4.388838    1.488326
    129          1           0      -31.144535    2.997312    3.855185
    130          1           0      -31.293814    4.729460    3.737467
    131          1           0      -29.684108    3.984443    3.800262
    132          1           0      -30.697327    4.892718   -0.484692
    133          1           0      -29.157417    4.252386   -1.040521
    134          1           0      -29.927683    6.821896    0.116869
    135          1           0      -28.292114    6.333717   -0.491493
    136          1           0      -36.347015    0.873146    3.236262
    137          1           0      -36.381024    2.097343    1.984829
    138          1           0      -35.247796    2.232390    3.220016
    139          1           0      -38.140775   -0.353747    1.652906
    140          1           0      -37.624159   -1.118108    3.199148
    141          1           0      -38.561717   -1.884669    1.855043
    142          1           0      -33.231466   -4.496599   -2.102359
    143          1           0      -30.582258   -5.362077   -1.059394
    144          1           0      -34.076957   -5.933176   -0.795741
    145          1           0      -33.069665   -5.357459    0.580578
    146          1           0      -32.486610   -6.559490   -0.464317
    147          1           0      -31.385986   -5.978667   -3.396711
    148          1           0      -29.781805   -5.204829   -3.485360
    149          1           0      -30.575750   -3.669027   -4.865733
    150          1           0      -31.873784   -3.219371   -3.690647
    151          1           0      -32.250575   -4.401803   -4.887305
    152          1           0      -25.812280   -1.313629   -3.540657
    153          1           0      -26.780899   -2.700798   -3.418511
    154          1           0      -25.570074   -2.496411   -2.158270
    155          1           0      -27.138492    3.202649   -1.066436
    156          1           0      -24.599641    4.066546    2.312362
    157          1           0      -24.310357    5.516686    1.361706
    158          1           0      -23.581798    4.030926    0.773715
 ---------------------------------------------------------------------

 SCF Done:  E(RPBE1PBE) =  -4067.33348449     A.U. after   16 cycles

 Excitation energies and oscillator strengths:

 Excited State   1:      Singlet-A      1.8182 eV  681.90 nm  f=0.3854  <S**2>=0.000
     310 -> 316        0.16262
     312 -> 313        0.69668
     312 <- 313       -0.11885
 This state for optimization and/or second-order correction.
 Total Energy, E(TD-HF/TD-DFT) =  -4067.26666631
 Copying the excited state density for this state as the 1-particle RhoCI density.

 Excited State   2:      Singlet-A      1.8703 eV  662.91 nm  f=0.3410  <S**2>=0.000
     309 -> 315        0.19153
     311 -> 314        0.68646

 Excited State   3:      Singlet-A      1.9780 eV  626.80 nm  f=0.0000  <S**2>=0.000
     311 -> 313        0.70711

 Excited State   4:      Singlet-A      2.0236 eV  612.69 nm  f=0.0000  <S**2>=0.000
     312 -> 314        0.70711

 Excited State   5:      Singlet-A      2.1901 eV  566.10 nm  f=0.1404  <S**2>=0.000
     310 -> 313        0.66497
     312 -> 316       -0.22022

 The electronic state is 1-A.
 Alpha  occ. eigenvalues --  -46.94130 -46.92310 -19.24905 -19.24370 -19.20324
 Alpha  occ. eigenvalues --  -19.19670 -19.19443 -19.18924 -19.18511 -19.18174
 Alpha  occ. eigenvalues --  -14.42072 -14.41914 -14.41630 -14.41066 -14.40318
 Alpha  occ. eigenvalues --  -14.39870 -14.39122 -14.38903 -10.36451 -10.36096
 Alpha  occ. eigenvalues --  -10.32796 -10.32538 -10.31966 -10.30695 -10.29920
 Alpha  occ. eigenvalues --  -10.29550 -10.29458 -10.29078 -10.29068 -10.28861
 Alpha  occ. eigenvalues --  -10.28779 -10.28618 -10.28606 -10.28524 -10.28374
 Alpha  occ. eigenvalues --  -10.28206 -10.27998 -10.27993 -10.27716 -10.27238
 Alpha  occ. eigenvalues --  -10.27142 -10.27124 -10.26964 -10.26912 -10.26792
 Alpha  occ. eigenvalues --  -10.26670 -10.26653 -10.26640 -10.26190 -10.26114
 Alpha  occ. eigenvalues --  -10.25996 -10.25959 -10.25959 -10.25918 -10.25899
 Alpha  occ. eigenvalues --  -10.25883 -10.25866 -10.25808 -10.25549 -10.25327
 Alpha  occ. eigenvalues --  -10.25319 -10.25115 -10.25087 -10.25063 -10.25042
 Alpha  occ. eigenvalues --  -10.24947 -10.24677 -10.24646 -10.24520 -10.24425
 Alpha  occ. eigenvalues --  -10.24401 -10.24397 -10.24392 -10.24094 -10.23948
 Alpha  occ. eigenvalues --  -10.23845 -10.23744 -10.23666 -10.23504 -10.23498
 Alpha  occ. eigenvalues --  -10.23297 -10.23141 -10.23135 -10.23075 -10.23058
 Alpha  occ. eigenvalues --  -10.22370  -3.16123  -3.14459  -1.88904  -1.88548
 Alpha  occ. eigenvalues --   -1.88309  -1.87268  -1.86833  -1.86696  -1.10196
 Alpha  occ. eigenvalues --   -1.08661  -1.05099  -1.04261  -1.03789  -1.03025
 Alpha  occ. eigenvalues --   -1.02260  -1.01174  -0.99559  -0.98873  -0.98051
 Alpha  occ. eigenvalues --   -0.97999  -0.97889  -0.97872  -0.96866  -0.95834
 Alpha  occ. eigenvalues --   -0.87307  -0.86575  -0.83508  -0.83246  -0.83192
 Alpha  occ. eigenvalues --   -0.82773  -0.82767  -0.82395  -0.81710  -0.81264
 Alpha  occ. eigenvalues --   -0.81116  -0.80985  -0.80342  -0.79718  -0.79229
 Alpha  occ. eigenvalues --   -0.78115  -0.78047  -0.77921  -0.77653  -0.76828
 Alpha  occ. eigenvalues --   -0.76441  -0.75525  -0.75326  -0.74959  -0.74229
 Alpha  occ. eigenvalues --   -0.74116  -0.72850  -0.72509  -0.71663  -0.71310
 Alpha  occ. eigenvalues --   -0.71272  -0.71045  -0.70137  -0.70130  -0.69605
 Alpha  occ. eigenvalues --   -0.69327  -0.67335  -0.67021  -0.66377  -0.65490
 Alpha  occ. eigenvalues --   -0.64240  -0.63527  -0.63498  -0.63037  -0.62832
 Alpha  occ. eigenvalues --   -0.62150  -0.61899  -0.61375  -0.60006  -0.59831
 Alpha  occ. eigenvalues --   -0.59748  -0.59469  -0.59286  -0.58736  -0.58603
 Alpha  occ. eigenvalues --   -0.58601  -0.56396  -0.56226  -0.55393  -0.54878
 Alpha  occ. eigenvalues --   -0.54422  -0.54051  -0.53770  -0.53508  -0.53365
 Alpha  occ. eigenvalues --   -0.52734  -0.52022  -0.51846  -0.51542  -0.51446
 Alpha  occ. eigenvalues --   -0.51210  -0.50476  -0.50277  -0.50269  -0.49354
 Alpha  occ. eigenvalues --   -0.49349  -0.49315  -0.48729  -0.48474  -0.48420
 Alpha  occ. eigenvalues --   -0.48293  -0.48112  -0.47999  -0.47844  -0.47689
 Alpha  occ. eigenvalues --   -0.47464  -0.47296  -0.47139  -0.47112  -0.46689
 Alpha  occ. eigenvalues --   -0.46593  -0.46493  -0.46403  -0.45906  -0.45899
 Alpha  occ. eigenvalues --   -0.45638  -0.45588  -0.45316  -0.45236  -0.44508
 Alpha  occ. eigenvalues --   -0.44489  -0.44454  -0.44131  -0.44054  -0.43865
 Alpha  occ. eigenvalues --   -0.43857  -0.43835  -0.43700  -0.43617  -0.43424
 Alpha  occ. eigenvalues --   -0.43298  -0.43195  -0.43031  -0.42842  -0.42817
 Alpha  occ. eigenvalues --   -0.42627  -0.42462  -0.42400  -0.42323  -0.42075
 Alpha  occ. eigenvalues --   -0.41864  -0.41457  -0.41399  -0.41132  -0.41060
 Alpha  occ. eigenvalues --   -0.40950  -0.40904  -0.40599  -0.40574  -0.40165
 Alpha  occ. eigenvalues --   -0.40153  -0.39952  -0.39743  -0.39489  -0.39422
 Alpha  occ. eigenvalues --   -0.39267  -0.39266  -0.39142  -0.38978  -0.38932
 Alpha  occ. eigenvalues --   -0.38849  -0.38791  -0.38722  -0.38476  -0.38198
 Alpha  occ. eigenvalues --   -0.38043  -0.37975  -0.37660  -0.37449  -0.37405
 Alpha  occ. eigenvalues --   -0.37355  -0.37271  -0.37139  -0.36839  -0.36787
 Alpha  occ. eigenvalues --   -0.36736  -0.36731  -0.36487  -0.36360  -0.36284
 Alpha  occ. eigenvalues --   -0.36161  -0.35560  -0.35417  -0.35178  -0.35055
 Alpha  occ. eigenvalues --   -0.34997  -0.34837  -0.34584  -0.34254  -0.34114
 Alpha  occ. eigenvalues --   -0.33798  -0.33644  -0.32876  -0.32798  -0.32621
 Alpha  occ. eigenvalues --   -0.32553  -0.32157  -0.31901  -0.31356  -0.31342
 Alpha  occ. eigenvalues --   -0.30861  -0.30250  -0.29664  -0.29220  -0.29192
 Alpha  occ. eigenvalues --   -0.28897  -0.28411  -0.28405  -0.27104  -0.27060
 Alpha  occ. eigenvalues --   -0.26650  -0.26279  -0.26071  -0.25802  -0.25251
 Alpha  occ. eigenvalues --   -0.25160  -0.24949  -0.24430  -0.21377  -0.21051
 Alpha  occ. eigenvalues --   -0.19104  -0.18978
 Alpha virt. eigenvalues --   -0.11621  -0.11326  -0.06105  -0.05013  -0.04370
 Alpha virt. eigenvalues --   -0.04266  -0.02412  -0.02307  -0.02146  -0.01261
 Alpha virt. eigenvalues --    0.00099   0.00146   0.00607   0.01079   0.01386

 Mulliken charges:
               1
     1  Mg  11.999988
     2  C    5.999973
     3  C    6.000013
     4  C    5.999992
     5  C    5.999991
     6  N    6.999978
     7  C    5.999973
     8  C    6.000002
     9  C    5.999977
    10  C    6.000059
    11  C    5.999994
    12  C    6.000008
    13  C    6.000016
    14  H    0.999953
    15  N    7.000017
    16  C    6.000055
    17  C    6.000052
    18  C    6.000021
    19  C    6.000042
    20  C    5.999985
    21  C    6.000023
    22  O    8.000062
    23  C    5.999983
    24  N    7.000071
    25  C    6.000039
    26  C    5.999973
    27  C    6.000002
    28  C    5.999940
    29  C    5.999995
    30  C    6.000008
    31  C    5.999992
    32  N    6.999971
    33  C    5.999971
    34  C    5.999978
    35  C    5.999973
    36  C    5.999963
    37  C    5.999996
    38  C    5.999966
    39  O    7.999895
    40  C    6.000003
    41  C    5.999999
    42  O    7.999942
    43  O    8.000016
    44  C    6.000013
    45  H    1.000016
    46  H    1.000036
    47  H    1.000000
    48  H    0.999985
    49  H    0.999996
    50  H    0.999994
    51  H    1.000011
    52  H    1.000004
    53  H    0.999984
    54  H    1.000023
    55  H    0.999987
    56  H    0.999986
    57  H    1.000051
    58  H    1.000041
    59  H    1.000031
    60  H    1.000029
    61  H    1.000026
    62  H    1.000049
    63  H    1.000027
    64  H    1.000018
    65  H    1.000033
    66  H    1.000023
    67  H    0.999996
    68  H    1.000007
    69  H    0.999981
    70  H    1.000003
    71  H    1.000009
    72  H    1.000002
    73  H    0.999962
    74  H    0.999963
    75  H    0.999954
    76  H    0.999961
    77  H    1.000003
    78  H    0.999968
    79  H    0.999974
    80  Mg  12.000873
    81  C    5.979849
    82  C    5.997861
    83  C    6.018377
    84  C    5.996574
    85  N    6.988090
    86  C    6.032990
    87  C    5.991365
    88  C    6.011035
    89  C    5.977243
    90  C    5.998317
    91  C    5.997340
    92  C    5.999448
    93  H    1.004870
    94  N    7.003572
    95  C    5.968256
    96  C    5.974957
    97  C    5.987942
    98  C    5.972505
    99  C    6.001954
   100  C    5.991781
   101  O    7.968058
   102  C    6.003552
   103  N    7.008524
   104  C    5.969500
   105  C    6.004043
   106  C    5.992737
   107  C    6.020487
   108  C    6.002085
   109  C    5.995862
   110  C    5.995432
   111  N    6.998531
   112  C    6.029727
   113  C    6.038846
   114  C    5.997222
   115  C    6.035074
   116  C    5.998216
   117  C    6.012847
   118  O    8.024012
   119  C    6.004935
   120  C    6.003030
   121  O    8.005600
   122  O    8.001754
   123  C    5.998433
   124  H    0.986596
   125  H    0.996186
   126  H    1.009919
   127  H    0.998755
   128  H    0.997364
   129  H    1.004462
   130  H    0.997385
   131  H    0.987685
   132  H    1.011091
   133  H    0.992705
   134  H    1.004904
   135  H    0.996921
   136  H    0.985755
   137  H    0.980892
   138  H    0.982527
   139  H    0.992220
   140  H    0.991568
   141  H    0.986884
   142  H    1.001152
   143  H    1.003855
   144  H    1.002412
   145  H    1.003814
   146  H    0.991491
   147  H    1.008782
   148  H    0.995791
   149  H    0.995198
   150  H    1.006519
   151  H    1.007540
   152  H    1.017505
   153  H    1.019043
   154  H    1.021111
   155  H    1.008205
   156  H    1.004484
   157  H    1.005502
   158  H    1.000075
 Sum of Mulliken charges = 624.00000

 Dipole moment (field-independent basis, Debye):
    X=              9.6645    Y=             -0.8491    Z=             -4.2031  Tot=             10.5731
 Quadrupole moment (field-independent basis, Debye-Ang):
   XX=           -599.1140   YY=              2.7147   ZZ=              0.6270
   XY=             23.1317   XZ=            132.5335   YZ=              2.0975

 Normal termination of Gaussian 16 at Fri Oct 15 07:31:25 2021.
