 Gaussian 16, Revision A.03,
 Gaussian 16:  ES64L-G16RevA.03 25-Dec-2016

 --------------------------------------------------------
 #p PBE1PBE/Def2SVP td=(nstates=5) density=(transition=1)
 --------------------------------------------------------

 --------------------------------
 TDDFT excited states in gaussian
 --------------------------------
 Symbolic Z-matrix:
 Charge =  0 Multiplicity = 1

                         Standard orientation:
 ---------------------------------------------------------------------
 Center     Atomic      Atomic             Coordinates (Angstroms)
 Number     Number       Type             X           Y           Z
 ---------------------------------------------------------------------
      1         12           0      -27.621993    0.118388   -0.090455
      2          6           0      -24.419943   -1.083814    0.277585
      3          6           0      -28.752066   -1.789630    2.519107
      4          6           0      -30.827817    1.504245   -0.361563
      5          6           0      -26.456945    2.661544   -2.115604
      6          7           0      -26.565645   -1.109395    1.351060
      7          6           0      -25.278001   -1.641943    1.244034
      8          6           0      -24.968859   -2.595810    2.400685
      9          6           0      -26.411434   -2.865182    2.899115
     10          6           0      -27.335143   -1.793188    2.285344
     11          6           0      -26.861799   -4.327541    2.689911
     12          6           0      -24.050270   -1.952523    3.458389
     13          6           0      -22.909506   -2.852937    4.046312
     14          1           0      -22.519037   -2.580525    5.446402
     15          7           0      -29.484919   -0.156612    0.887594
     16          6           0      -29.769089   -1.044550    1.867714
     17          6           0      -31.174200   -1.176918    2.111744
     18          6           0      -31.821636   -0.331881    1.195474
     19          6           0      -30.687770    0.388822    0.481425
     20          6           0      -31.792497   -2.192560    3.074660
     21          6           0      -33.370729   -0.134083    1.018171
     22          8           0      -34.143437   -0.720725    1.818468
     23          6           0      -34.024444    0.698429   -0.167244
     24          7           0      -28.463345    2.022195   -0.861449
     25          6           0      -29.794583    2.252862   -0.967788
     26          6           0      -30.119490    3.411705   -1.875017
     27          6           0      -28.735306    3.834191   -2.412902
     28          6           0      -27.822999    2.766020   -1.804549
     29          6           0      -31.194271    3.103609   -2.969715
     30          6           0      -28.372427    5.362831   -2.096284
     31          6           0      -28.469476    6.306148   -3.300886
     32          7           0      -25.835329    0.674004   -0.843988
     33          6           0      -25.463524    1.730498   -1.704304
     34          6           0      -24.078845    1.527082   -2.150207
     35          6           0      -23.684381    0.396694   -1.448095
     36          6           0      -24.741582    0.023666   -0.601891
     37          6           0      -23.247319    2.323603   -3.090823
     38          6           0      -22.546766   -0.504363   -1.214815
     39          8           0      -21.478341   -0.663492   -1.827836
     40          6           0      -22.994767   -1.540324   -0.107307
     41          6           0      -22.968353   -2.967144   -0.638712
     42          8           0      -23.399914   -3.377117   -1.720869
     43          8           0      -22.297703   -3.653815    0.329377
     44          6           0      -21.954421   -5.033224    0.026840
     45          1           0      -29.125838   -2.397559    3.345537
     46          1           0      -31.788811    1.965827   -0.598204
     47          1           0      -26.025763    3.430969   -2.759171
     48          1           0      -24.461070   -3.481577    2.017579
     49          1           0      -26.338201   -2.697752    3.973643
     50          1           0      -26.111373   -5.107897    2.563579
     51          1           0      -27.409201   -4.330521    1.747459
     52          1           0      -27.502793   -4.680741    3.497331
     53          1           0      -24.603679   -1.497600    4.279453
     54          1           0      -23.659164   -1.054970    2.978685
     55          1           0      -22.023134   -2.753647    3.419805
     56          1           0      -23.256676   -3.887095    4.052936
     57          1           0      -32.479947   -2.784987    2.471309
     58          1           0      -32.145219   -1.681744    3.970709
     59          1           0      -30.967292   -2.856758    3.331365
     60          1           0      -34.025183    1.737442    0.160137
     61          1           0      -35.048517    0.337709   -0.260588
     62          1           0      -33.516315    0.380799   -1.078150
     63          1           0      -30.534775    4.210924   -1.260971
     64          1           0      -28.547403    3.645190   -3.469560
     65          1           0      -30.889771    3.477063   -3.947036
     66          1           0      -32.165968    3.539318   -2.737915
     67          1           0      -31.391856    2.032522   -2.981158
     68          1           0      -27.342974    5.485499   -1.759963
     69          1           0      -28.972219    5.723006   -1.260518
     70          1           0      -28.886405    7.262679   -2.985241
     71          1           0      -29.117233    5.867775   -4.059751
     72          1           0      -27.514085    6.502424   -3.787164
     73          1           0      -23.889618    3.090849   -3.523171
     74          1           0      -22.672040    1.657590   -3.734233
     75          1           0      -22.555478    2.891408   -2.467763
     76          1           0      -22.394627   -1.464618    0.799837
     77          1           0      -22.766063   -5.601081   -0.429767
     78          1           0      -21.576859   -5.642068    0.848315
     79          1           0      -21.119956   -5.057692   -0.674464
     80         12           0       26.830900    0.709076    0.562211
     81          6           0       27.835603   -2.529801   -0.593243
     82          6           0       24.247445    0.512291   -1.831658
     83          6           0       26.210643    3.895443    0.970273
     84          6           0       29.599236    0.814295    2.533938
     85          7           0       26.124595   -0.869388   -0.974996
     86          6           0       26.662212   -2.103545   -1.127051
     87          6           0       25.771724   -2.909232   -2.058575
     88          6           0       24.577134   -2.007783   -2.479889
     89          6           0       24.962813   -0.729071   -1.711560
     90          6           0       24.426724   -1.832041   -4.094984
     91          6           0       25.226727   -4.242261   -1.387874
     92          6           0       25.350686   -5.523526   -2.213064
     93          1           0       25.230051   -5.492509   -3.789557
     94          7           0       25.441978    2.047493   -0.359343
     95          6           0       24.509416    1.761414   -1.243001
     96          6           0       23.809630    2.980043   -1.537433
     97          6           0       24.223300    4.002318   -0.646114
     98          6           0       25.338268    3.356899   -0.003918
     99          6           0       22.581581    3.028202   -2.445033
    100          6           0       23.688830    5.379765   -0.286437
    101          8           0       24.259917    6.132433    0.481267
    102          6           0       22.362162    5.752141   -0.889121
    103          7           0       27.988535    2.215691    1.328290
    104          6           0       27.392328    3.455263    1.567235
    105          6           0       28.146870    4.299185    2.630233
    106          6           0       29.108941    3.187308    3.195479
    107          6           0       28.892687    1.969677    2.296961
    108          6           0       28.829231    5.512538    1.982069
    109          6           0       28.761569    2.741181    4.694006
    110          6           0       29.651418    3.204154    5.798465
    111          7           0       28.316592   -0.584364    1.001597
    112          6           0       29.409939   -0.380003    1.815336
    113          6           0       30.360935   -1.487815    1.775188
    114          6           0       29.773409   -2.392242    0.820199
    115          6           0       28.625213   -1.747901    0.302172
    116          6           0       31.504019   -1.642502    2.711869
    117          6           0       29.866744   -3.713541    0.218539
    118          8           0       30.729674   -4.581664    0.443348
    119          6           0       28.587544   -3.862119   -0.785938
    120          6           0       29.170462   -4.031788   -2.107514
    121          8           0       29.942266   -3.243954   -2.609095
    122          8           0       28.737404   -5.153775   -2.694518
    123          6           0       29.229255   -5.593981   -4.037670
    124          1           0       23.386838    0.476584   -2.502748
    125          1           0       25.846760    4.792566    1.476753
    126          1           0       30.426799    0.860024    3.244546
    127          1           0       26.362205   -3.135746   -2.946353
    128          1           0       23.617587   -2.450781   -2.212662
    129          1           0       24.905504   -2.657764   -4.621429
    130          1           0       24.892444   -0.870736   -4.313549
    131          1           0       23.371294   -1.776554   -4.361109
    132          1           0       24.204130   -4.188495   -1.016887
    133          1           0       25.808118   -4.453718   -0.490530
    134          1           0       24.645210   -6.285245   -1.880447
    135          1           0       26.326494   -5.905478   -1.913024
    136          1           0       21.631051    2.991960   -1.912534
    137          1           0       22.646105    2.293615   -3.248295
    138          1           0       22.638204    3.978733   -2.975009
    139          1           0       21.620197    4.953341   -0.909513
    140          1           0       22.412511    6.122766   -1.911986
    141          1           0       21.848758    6.436289   -0.213452
    142          1           0       27.408231    4.640874    3.354815
    143          1           0       30.125969    3.578143    3.161193
    144          1           0       28.536686    5.696890    0.948463
    145          1           0       29.911798    5.394913    1.949202
    146          1           0       28.613115    6.402966    2.573343
    147          1           0       28.726139    1.663590    4.854040
    148          1           0       27.746061    3.007010    4.985249
    149          1           0       29.100703    3.852345    6.478929
    150          1           0       30.430235    3.753592    5.269307
    151          1           0       30.031340    2.353787    6.364631
    152          1           0       31.680144   -2.690084    2.953736
    153          1           0       31.297857   -0.982847    3.554551
    154          1           0       32.383988   -1.259653    2.193168
    155          1           0       27.985523   -4.737692   -0.546703
    156          1           0       30.319174   -5.573446   -4.047581
    157          1           0       28.877048   -4.951187   -4.844808
    158          1           0       28.822999   -6.552061   -4.360746
 ---------------------------------------------------------------------

 SCF Done:  E(RPBE1PBE) =  -4067.38842428     A.U. after   16 cycles

 Excitation energies and oscillator strengths:

 Excited State   1:      Singlet-A      1.8386 eV  674.36 nm  f=0.3613  <S**2>=0.000
     309 -> 315       -0.16798
     311 -> 313        0.69228
     311 <- 313       -0.10461
 This state for optimization and/or second-order correction.
 Total Energy, E(TD-HF/TD-DFT) =  -4067.32085880
 Copying the excited state density for this state as the 1-particle RhoCI density.

 Excited State   2:      Singlet-A      1.8475 eV  671.08 nm  f=0.3810  <S**2>=0.000
     310 -> 316       -0.16124
     312 -> 314        0.69483
     312 <- 314       -0.11626

 Excited State   3:      Singlet-A      1.9627 eV  631.69 nm  f=0.0000  <S**2>=0.000
     312 -> 313        0.70711

 Excited State   4:      Singlet-A      2.0051 eV  618.34 nm  f=0.0000  <S**2>=0.000
     311 -> 314        0.70711

 Excited State   5:      Singlet-A      2.2073 eV  561.70 nm  f=0.1239  <S**2>=0.000
     310 -> 314        0.66026
     312 -> 316        0.23226

 The electronic state is 1-A.
 Alpha  occ. eigenvalues --  -46.92602 -46.92030 -19.27104 -19.25835 -19.20605
 Alpha  occ. eigenvalues --  -19.19720 -19.19719 -19.19267 -19.18936 -19.18677
 Alpha  occ. eigenvalues --  -14.42022 -14.41663 -14.41369 -14.41269 -14.39744
 Alpha  occ. eigenvalues --  -14.39087 -14.38910 -14.38713 -10.37076 -10.35422
 Alpha  occ. eigenvalues --  -10.33720 -10.32885 -10.32649 -10.32141 -10.29744
 Alpha  occ. eigenvalues --  -10.29710 -10.29332 -10.29078 -10.29038 -10.29033
 Alpha  occ. eigenvalues --  -10.28751 -10.28526 -10.28499 -10.28249 -10.27965
 Alpha  occ. eigenvalues --  -10.27828 -10.27743 -10.27319 -10.27317 -10.26919
 Alpha  occ. eigenvalues --  -10.26680 -10.26401 -10.26377 -10.26228 -10.26173
 Alpha  occ. eigenvalues --  -10.26028 -10.25992 -10.25976 -10.25954 -10.25897
 Alpha  occ. eigenvalues --  -10.25886 -10.25833 -10.25814 -10.25778 -10.25749
 Alpha  occ. eigenvalues --  -10.25730 -10.25684 -10.25638 -10.25510 -10.25475
 Alpha  occ. eigenvalues --  -10.25423 -10.25276 -10.24834 -10.24733 -10.24697
 Alpha  occ. eigenvalues --  -10.24658 -10.24637 -10.24611 -10.24282 -10.24244
 Alpha  occ. eigenvalues --  -10.24209 -10.24077 -10.23933 -10.23907 -10.23612
 Alpha  occ. eigenvalues --  -10.23547 -10.23519 -10.23482 -10.23481 -10.23325
 Alpha  occ. eigenvalues --  -10.23325 -10.23286 -10.23259 -10.22965 -10.22633
 Alpha  occ. eigenvalues --  -10.22447  -3.14713  -3.14234  -1.87519  -1.87074
 Alpha  occ. eigenvalues --   -1.87039  -1.86966  -1.86614  -1.86468  -1.11713
 Alpha  occ. eigenvalues --   -1.11273  -1.05560  -1.03282  -1.03173  -1.03156
 Alpha  occ. eigenvalues --   -1.02697  -1.02130  -0.99449  -0.99345  -0.98758
 Alpha  occ. eigenvalues --   -0.98153  -0.98041  -0.97740  -0.96767  -0.96569
 Alpha  occ. eigenvalues --   -0.86494  -0.85901  -0.83200  -0.83124  -0.82996
 Alpha  occ. eigenvalues --   -0.82934  -0.82587  -0.82345  -0.81797  -0.81443
 Alpha  occ. eigenvalues --   -0.81278  -0.81274  -0.80755  -0.80606  -0.78600
 Alpha  occ. eigenvalues --   -0.78515  -0.78415  -0.78245  -0.76917  -0.76815
 Alpha  occ. eigenvalues --   -0.75991  -0.75815  -0.75600  -0.75342  -0.75029
 Alpha  occ. eigenvalues --   -0.74550  -0.72572  -0.72356  -0.71975  -0.71751
 Alpha  occ. eigenvalues --   -0.71172  -0.71008  -0.70560  -0.70268  -0.69640
 Alpha  occ. eigenvalues --   -0.69222  -0.67231  -0.66948  -0.66174  -0.65883
 Alpha  occ. eigenvalues --   -0.63566  -0.63395  -0.63169  -0.62370  -0.62234
 Alpha  occ. eigenvalues --   -0.62057  -0.61597  -0.61320  -0.60597  -0.59955
 Alpha  occ. eigenvalues --   -0.59698  -0.59585  -0.59457  -0.59216  -0.59155
 Alpha  occ. eigenvalues --   -0.59018  -0.57362  -0.57004  -0.55041  -0.54520
 Alpha  occ. eigenvalues --   -0.54212  -0.53736  -0.53576  -0.53430  -0.53225
 Alpha  occ. eigenvalues --   -0.53098  -0.52592  -0.52371  -0.51992  -0.51795
 Alpha  occ. eigenvalues --   -0.50678  -0.50530  -0.50447  -0.50181  -0.49836
 Alpha  occ. eigenvalues --   -0.49752  -0.49603  -0.48858  -0.48434  -0.48118
 Alpha  occ. eigenvalues --   -0.47978  -0.47969  -0.47874  -0.47564  -0.47405
 Alpha  occ. eigenvalues --   -0.47305  -0.47021  -0.46999  -0.46880  -0.46690
 Alpha  occ. eigenvalues --   -0.46626  -0.46169  -0.45928  -0.45900  -0.45790
 Alpha  occ. eigenvalues --   -0.45770  -0.45582  -0.45497  -0.45138  -0.45008
 Alpha  occ. eigenvalues --   -0.44744  -0.44611  -0.44521  -0.44137  -0.43995
 Alpha  occ. eigenvalues --   -0.43781  -0.43705  -0.43699  -0.43370  -0.43233
 Alpha  occ. eigenvalues --   -0.43202  -0.43073  -0.42882  -0.42796  -0.42792
 Alpha  occ. eigenvalues --   -0.42535  -0.42422  -0.42267  -0.42139  -0.42022
 Alpha  occ. eigenvalues --   -0.42013  -0.41533  -0.41442  -0.41324  -0.41280
 Alpha  occ. eigenvalues --   -0.41180  -0.40916  -0.40843  -0.40722  -0.40669
 Alpha  occ. eigenvalues --   -0.40411  -0.40095  -0.40032  -0.39882  -0.39562
 Alpha  occ. eigenvalues --   -0.39267  -0.39218  -0.39074  -0.38769  -0.38710
 Alpha  occ. eigenvalues --   -0.38659  -0.38596  -0.38428  -0.38320  -0.38202
 Alpha  occ. eigenvalues --   -0.38155  -0.37762  -0.37744  -0.37649  -0.37371
 Alpha  occ. eigenvalues --   -0.37348  -0.37240  -0.37158  -0.37015  -0.36786
 Alpha  occ. eigenvalues --   -0.36565  -0.36529  -0.36410  -0.36294  -0.36192
 Alpha  occ. eigenvalues --   -0.36105  -0.35911  -0.35779  -0.35571  -0.35445
 Alpha  occ. eigenvalues --   -0.35192  -0.34697  -0.34661  -0.34268  -0.34191
 Alpha  occ. eigenvalues --   -0.33680  -0.33396  -0.33346  -0.33139  -0.32917
 Alpha  occ. eigenvalues --   -0.32407  -0.31999  -0.31948  -0.31496  -0.31480
 Alpha  occ. eigenvalues --   -0.31265  -0.31196  -0.30077  -0.29781  -0.29652
 Alpha  occ. eigenvalues --   -0.28738  -0.28694  -0.28326  -0.26983  -0.26885
 Alpha  occ. eigenvalues --   -0.26461  -0.26283  -0.25837  -0.25796  -0.25638
 Alpha  occ. eigenvalues --   -0.25567  -0.25427  -0.25052  -0.21111  -0.20766
 Alpha  occ. eigenvalues --   -0.18754  -0.18604
 Alpha virt. eigenvalues --   -0.11149  -0.11142  -0.05560  -0.04712  -0.04050
 Alpha virt. eigenvalues --   -0.04020  -0.02521  -0.02330  -0.01143  -0.01001
 Alpha virt. eigenvalues --    0.00207   0.00666   0.00699   0.01107   0.01421

 Mulliken charges:
               1
     1  Mg  11.998979
     2  C    6.026953
     3  C    5.990810
     4  C    5.975630
     5  C    5.999427
     6  N    7.015726
     7  C    5.965565
     8  C    6.007377
     9  C    5.991582
    10  C    6.030291
    11  C    5.997058
    12  C    5.999609
    13  C    6.001335
    14  H    0.996264
    15  N    6.995549
    16  C    6.032796
    17  C    6.020223
    18  C    6.012226
    19  C    6.037328
    20  C    5.998263
    21  C    6.011079
    22  O    8.020688
    23  C    6.001983
    24  N    6.993132
    25  C    6.034646
    26  C    5.989236
    27  C    6.007801
    28  C    5.968572
    29  C    5.999342
    30  C    6.003088
    31  C    6.000555
    32  N    6.999988
    33  C    5.964404
    34  C    5.975986
    35  C    5.996735
    36  C    5.973532
    37  C    6.001729
    38  C    5.982631
    39  O    7.969788
    40  C    5.999496
    41  C    5.994642
    42  O    7.997543
    43  O    7.998462
    44  C    6.001584
    45  H    1.010235
    46  H    1.005366
    47  H    0.987240
    48  H    1.001791
    49  H    1.005005
    50  H    1.012678
    51  H    1.000769
    52  H    0.999215
    53  H    0.991692
    54  H    1.007261
    55  H    1.004730
    56  H    0.996161
    57  H    1.013694
    58  H    1.016158
    59  H    1.014836
    60  H    1.009895
    61  H    1.010592
    62  H    1.008265
    63  H    1.000778
    64  H    1.002430
    65  H    1.009552
    66  H    0.997629
    67  H    0.996617
    68  H    1.003101
    69  H    0.988983
    70  H    0.994729
    71  H    0.994761
    72  H    1.002009
    73  H    0.985316
    74  H    0.984977
    75  H    0.981656
    76  H    0.992634
    77  H    0.995143
    78  H    0.994928
    79  H    0.999542
    80  Mg  11.999942
    81  C    6.000588
    82  C    5.999721
    83  C    5.999254
    84  C    6.000271
    85  N    7.000303
    86  C    5.999163
    87  C    6.000343
    88  C    5.999550
    89  C    6.001043
    90  C    5.999962
    91  C    6.000035
    92  C    6.000011
    93  H    0.999779
    94  N    6.999912
    95  C    6.001123
    96  C    6.000933
    97  C    6.000393
    98  C    6.001045
    99  C    5.999878
   100  C    6.000501
   101  O    8.000913
   102  C    5.999727
   103  N    6.999636
   104  C    6.001406
   105  C    5.999667
   106  C    6.000268
   107  C    5.999100
   108  C    5.999905
   109  C    6.000286
   110  C    6.000017
   111  N    6.999890
   112  C    5.998970
   113  C    5.998692
   114  C    6.000023
   115  C    5.998950
   116  C    6.000120
   117  C    5.999415
   118  O    7.999039
   119  C    5.999812
   120  C    5.999827
   121  O    7.999902
   122  O    7.999933
   123  C    6.000073
   124  H    1.000414
   125  H    1.000169
   126  H    0.999560
   127  H    1.000007
   128  H    1.000208
   129  H    1.000438
   130  H    0.999934
   131  H    1.000048
   132  H    0.999743
   133  H    1.000251
   134  H    0.999944
   135  H    1.000192
   136  H    1.000756
   137  H    1.000582
   138  H    1.000572
   139  H    1.000193
   140  H    1.000337
   141  H    1.000509
   142  H    0.999982
   143  H    0.999881
   144  H    0.999842
   145  H    1.000364
   146  H    1.000079
   147  H    1.000178
   148  H    0.999565
   149  H    0.999758
   150  H    0.999898
   151  H    1.000046
   152  H    0.999382
   153  H    0.999391
   154  H    0.999193
   155  H    0.999695
   156  H    0.999955
   157  H    0.999783
   158  H    0.999835
 Sum of Mulliken charges = 624.00000

 Dipole moment (field-independent basis, Debye):
    X=             -8.9183    Y=             -2.4074    Z=              4.2781  Tot=             10.1801
 Quadrupole moment (field-independent basis, Debye-Ang):
   XX=            463.7825   YY=             -3.9416   ZZ=             -0.2837
   XY=             79.2474   XZ=           -123.3559   YZ=              0.7349

 Normal termination of Gaussian 16 at Fri Oct 15 16:01:14 2021.
