 Gaussian 16, Revision A.03,
 Gaussian 16:  ES64L-G16RevA.03 25-Dec-2016

 --------------------------------------------------------
 #p PBE1PBE/Def2SVP td=(nstates=5) density=(transition=1)
 --------------------------------------------------------

 --------------------------------
 TDDFT excited states in gaussian
 --------------------------------
 Symbolic Z-matrix:
 Charge =  0 Multiplicity = 1

                         Standard orientation:
 ---------------------------------------------------------------------
 Center     Atomic      Atomic             Coordinates (Angstroms)
 Number     Number       Type             X           Y           Z
 ---------------------------------------------------------------------
      1         12           0        0.828030    0.048004   -0.229736
      2          6           0       -2.766931    0.236156   -0.174486
      3          6           0        0.488511   -3.343027   -0.031033
      4          6           0        4.169427   -0.098941    0.025102
      5          6           0        0.912486    3.433046    0.062697
      6          7           0       -1.035705   -1.428429   -0.164230
      7          6           0       -2.348357   -1.056791   -0.199777
      8          6           0       -3.148936   -2.294587   -0.349018
      9          6           0       -2.138858   -3.460992   -0.165684
     10          6           0       -0.756822   -2.760358   -0.058159
     11          6           0       -2.438811   -4.294081    1.120958
     12          6           0       -3.958271   -2.406836   -1.616745
     13          6           0       -4.983692   -3.521623   -1.745988
     14          1           0       -6.331671   -3.135707   -2.190903
     15          7           0        2.129852   -1.489655   -0.144921
     16          6           0        1.788966   -2.859009    0.032427
     17          6           0        3.051816   -3.617536   -0.041468
     18          6           0        4.070353   -2.674139    0.065707
     19          6           0        3.460516   -1.332154    0.047538
     20          6           0        3.060110   -5.131856   -0.025262
     21          6           0        5.600530   -2.876847    0.102995
     22          8           0        6.414398   -1.991188    0.425407
     23          6           0        6.106634   -4.201447   -0.300289
     24          7           0        2.370571    1.467433    0.078649
     25          6           0        3.663445    1.222844    0.139994
     26          6           0        4.524077    2.498415    0.352824
     27          6           0        3.478815    3.588716    0.107117
     28          6           0        2.194712    2.794654    0.034552
     29          6           0        5.131195    2.549479    1.795451
     30          6           0        3.679366    4.467017   -1.107274
     31          6           0        3.427271    5.973511   -0.918754
     32          7           0       -0.611934    1.517597   -0.180065
     33          6           0       -0.401564    2.874576   -0.067742
     34          6           0       -1.688904    3.630714   -0.124936
     35          6           0       -2.574902    2.572431   -0.142939
     36          6           0       -1.918871    1.335694   -0.123022
     37          6           0       -1.901183    5.102178   -0.282190
     38          6           0       -4.001805    2.286892   -0.172762
     39          8           0       -4.924245    3.091488   -0.239357
     40          6           0       -4.205879    0.754702   -0.197218
     41          6           0       -5.150536    0.450937    0.847232
     42          8           0       -4.925656    0.416319    2.081069
     43          8           0       -6.327504    0.026712    0.309416
     44          6           0       -7.308656   -0.583896    1.179588
     45          1           0        0.396988   -4.430697   -0.054228
     46          1           0        5.232039   -0.141459    0.272475
     47          1           0        1.040576    4.466629    0.390375
     48          1           0       -3.816693   -2.251814    0.510434
     49          1           0       -2.149368   -4.156128   -1.005373
     50          1           0       -2.531564   -5.380573    1.126296
     51          1           0       -3.396672   -3.906794    1.467887
     52          1           0       -1.809223   -4.060500    1.979959
     53          1           0       -3.318287   -2.604338   -2.476861
     54          1           0       -4.326231   -1.437660   -1.952358
     55          1           0       -5.129067   -4.023224   -0.790414
     56          1           0       -4.663895   -4.102663   -2.610597
     57          1           0        3.784234   -5.568506    0.662232
     58          1           0        3.231022   -5.585066   -1.001522
     59          1           0        2.137587   -5.591975    0.329634
     60          1           0        5.664383   -4.460144   -1.262470
     61          1           0        5.717013   -4.845761    0.487076
     62          1           0        7.176312   -4.081807   -0.468277
     63          1           0        5.292773    2.475608   -0.420387
     64          1           0        3.316827    4.290590    0.924687
     65          1           0        4.693453    3.353206    2.386747
     66          1           0        6.199826    2.762545    1.767889
     67          1           0        4.887053    1.586100    2.243366
     68          1           0        3.082262    4.129698   -1.953898
     69          1           0        4.649478    4.157769   -1.494957
     70          1           0        4.057187    6.488127   -1.643688
     71          1           0        3.532168    6.298676    0.116774
     72          1           0        2.366235    6.037180   -1.159186
     73          1           0       -2.139216    5.414630   -1.299128
     74          1           0       -1.034890    5.566850    0.187816
     75          1           0       -2.657829    5.431359    0.431091
     76          1           0       -4.764734    0.573282   -1.115254
     77          1           0       -6.966788   -0.755951    2.200536
     78          1           0       -7.716354   -1.486524    0.725277
     79          1           0       -8.198210    0.036666    1.290867
 ---------------------------------------------------------------------

 SCF Done:  E(RPBE1PBE) =  -2033.69875991     A.U. after   16 cycles

 Excitation energies and oscillator strengths:

 Excited State   1:      Singlet-A      1.9171 eV  646.72 nm  f=0.3701  <S**2>=0.000
     155 ->158         0.19059
     156 ->157         0.68794
 This state for optimization and/or second-order correction.
 Total Energy, E(TD-HF/TD-DFT) =  -2033.62830674
 Copying the excited state density for this state as the 1-particle RhoCI density.

 Excited State   2:      Singlet-A      2.3255 eV  533.16 nm  f=0.0779  <S**2>=0.000
     155 ->157         0.63287
     156 ->158        -0.30864

 Excited State   3:      Singlet-A      3.0643 eV  404.61 nm  f=0.0002  <S**2>=0.000
     154 ->157         0.67255
     154 ->159         0.17233
     154 ->160         0.11143

 Excited State   4:      Singlet-A      3.1998 eV  387.47 nm  f=0.0027  <S**2>=0.000
     153 ->157         0.65972
     153 ->159        -0.16961
     153 ->160         0.11272

 Excited State   5:      Singlet-A      3.3345 eV  371.82 nm  f=0.0162  <S**2>=0.000
     152 ->157         0.67962
     156 ->158         0.13636

 The electronic state is 1-A.
 Alpha  occ. eigenvalues --  -46.91911 -19.25829 -19.19225 -19.19098 -19.18867
 Alpha  occ. eigenvalues --  -14.41418 -14.40629 -14.39434 -14.39272 -10.36132
 Alpha  occ. eigenvalues --  -10.32342 -10.31656 -10.28466 -10.28448 -10.28415
 Alpha  occ. eigenvalues --  -10.28271 -10.28227 -10.28160 -10.28051 -10.27829
 Alpha  occ. eigenvalues --  -10.26648 -10.26136 -10.26091 -10.25920 -10.25837
 Alpha  occ. eigenvalues --  -10.25785 -10.25596 -10.25394 -10.25025 -10.24975
 Alpha  occ. eigenvalues --  -10.24956 -10.24933 -10.24705 -10.24509 -10.23884
 Alpha  occ. eigenvalues --  -10.23689 -10.23604 -10.23497 -10.23492 -10.23421
 Alpha  occ. eigenvalues --  -10.23335 -10.23186 -10.22361  -3.14095  -1.86945
 Alpha  occ. eigenvalues --   -1.86460  -1.86331  -1.10900  -1.04240  -1.03731
 Alpha  occ. eigenvalues --   -1.00752  -1.00445  -0.99326  -0.97691  -0.96822
 Alpha  occ. eigenvalues --   -0.87565  -0.84438  -0.83595  -0.82791  -0.81876
 Alpha  occ. eigenvalues --   -0.81405  -0.80988  -0.78994  -0.78352  -0.77227
 Alpha  occ. eigenvalues --   -0.76760  -0.75604  -0.75287  -0.72951  -0.72048
 Alpha  occ. eigenvalues --   -0.71775  -0.70886  -0.69617  -0.67480  -0.66423
 Alpha  occ. eigenvalues --   -0.63941  -0.63666  -0.62511  -0.60950  -0.60866
 Alpha  occ. eigenvalues --   -0.59864  -0.59670  -0.59133  -0.57155  -0.54938
 Alpha  occ. eigenvalues --   -0.54516  -0.54077  -0.53418  -0.52869  -0.52245
 Alpha  occ. eigenvalues --   -0.51075  -0.50268  -0.50107  -0.48981  -0.48586
 Alpha  occ. eigenvalues --   -0.48455  -0.47955  -0.47760  -0.47481  -0.46662
 Alpha  occ. eigenvalues --   -0.46505  -0.46246  -0.45808  -0.45436  -0.45049
 Alpha  occ. eigenvalues --   -0.44883  -0.44605  -0.44254  -0.43650  -0.43295
 Alpha  occ. eigenvalues --   -0.43043  -0.43006  -0.42586  -0.42408  -0.42032
 Alpha  occ. eigenvalues --   -0.41915  -0.41720  -0.41294  -0.40977  -0.40862
 Alpha  occ. eigenvalues --   -0.40403  -0.39967  -0.39891  -0.39343  -0.38780
 Alpha  occ. eigenvalues --   -0.38575  -0.38525  -0.38137  -0.38042  -0.37361
 Alpha  occ. eigenvalues --   -0.37221  -0.36934  -0.36605  -0.36479  -0.36388
 Alpha  occ. eigenvalues --   -0.36091  -0.35996  -0.35754  -0.35055  -0.34911
 Alpha  occ. eigenvalues --   -0.33753  -0.32927  -0.32138  -0.31081  -0.31003
 Alpha  occ. eigenvalues --   -0.30605  -0.29085  -0.28592  -0.28199  -0.27182
 Alpha  occ. eigenvalues --   -0.26210  -0.25889  -0.25753  -0.25416  -0.21022
 Alpha  occ. eigenvalues --   -0.18619
 Alpha virt. eigenvalues --   -0.10707  -0.05252  -0.03519  -0.01930  -0.00143
 Alpha virt. eigenvalues --    0.00368   0.01434   0.02537   0.03173   0.03635
 Alpha virt. eigenvalues --    0.04705   0.05605   0.06075   0.06659   0.07104

 Mulliken charges:
               1
     1  Mg  11.997979
     2  C    5.974386
     3  C    6.005070
     4  C    6.023681
     5  C    5.997600
     6  N    6.987707
     7  C    6.029201
     8  C    5.993054
     9  C    6.006582
    10  C    5.975911
    11  C    6.006706
    12  C    5.996263
    13  C    6.002873
    14  H    0.996592
    15  N    7.008741
    16  C    5.959638
    17  C    5.982312
    18  C    5.984818
    19  C    5.968227
    20  C    6.005002
    21  C    5.985356
    22  O    7.970371
    23  C    6.003094
    24  N    7.009183
    25  C    5.964865
    26  C    6.006206
    27  C    5.993720
    28  C    6.031953
    29  C    6.000359
    30  C    5.990568
    31  C    6.000936
    32  N    6.998486
    33  C    6.031554
    34  C    6.032344
    35  C    5.996924
    36  C    6.034355
    37  C    5.997262
    38  C    6.019384
    39  O    8.027646
    40  C    6.004439
    41  C    6.001539
    42  O    8.005635
    43  O    8.001425
    44  C    5.997298
    45  H    0.988287
    46  H    0.996658
    47  H    1.011367
    48  H    0.996710
    49  H    0.997372
    50  H    0.997753
    51  H    0.986826
    52  H    1.000501
    53  H    1.006485
    54  H    0.992294
    55  H    1.003193
    56  H    1.003571
    57  H    0.984135
    58  H    0.981961
    59  H    0.985137
    60  H    0.993267
    61  H    0.995171
    62  H    0.986143
    63  H    1.003042
    64  H    1.000700
    65  H    0.990429
    66  H    0.999374
    67  H    1.006845
    68  H    1.002189
    69  H    1.013558
    70  H    1.005547
    71  H    1.003414
    72  H    0.993615
    73  H    1.019193
    74  H    1.014449
    75  H    1.015853
    76  H    1.005799
    77  H    1.003941
    78  H    1.005718
    79  H    1.002258
 Sum of Mulliken charges = 312.00000

 Dipole moment (field-independent basis, Debye):
    X=             -6.1841    Y=              7.9671    Z=             -0.3254  Tot=             10.0908
 Quadrupole moment (field-independent basis, Debye-Ang):
   XX=             -7.7399   YY=              0.5317   ZZ=              0.1954
   XY=              7.4551   XZ=             -0.7018   YZ=             -0.8328

 Normal termination of Gaussian 16 at Wed Oct 13 19:53:06 2021.
