 Gaussian 16, Revision A.03,
 Gaussian 16:  ES64L-G16RevA.03 25-Dec-2016

 --------------------------------------------------------
 #p PBE1PBE/Def2SVP td=(nstates=5) density=(transition=1)
 --------------------------------------------------------

 --------------------------------
 TDDFT excited states in gaussian
 --------------------------------
 Symbolic Z-matrix:
 Charge =  0 Multiplicity = 1

                         Standard orientation:
 ---------------------------------------------------------------------
 Center     Atomic      Atomic             Coordinates (Angstroms)
 Number     Number       Type             X           Y           Z
 ---------------------------------------------------------------------
      1         12           0        9.022093    0.276385    0.005335
      2          6           0        6.906523   -2.226372    1.168944
      3          6           0       10.621400   -2.045816   -1.942090
      4          6           0       11.259625    2.700768   -0.849094
      5          6           0        7.378482    2.445413    2.291640
      6          7           0        8.815578   -1.882412   -0.319163
      7          6           0        7.795316   -2.645983    0.183636
      8          6           0        7.946708   -4.035813   -0.439617
      9          6           0        9.281337   -4.020269   -1.163357
     10          6           0        9.577757   -2.524932   -1.172008
     11          6           0       10.422775   -4.856208   -0.649733
     12          6           0        6.711635   -4.529907   -1.333323
     13          6           0        6.942293   -5.842379   -2.149327
     14          1           0        6.556249   -7.197119   -1.499931
     15          7           0       10.604423    0.330754   -1.336344
     16          6           0       11.128633   -0.721146   -2.013289
     17          6           0       12.267243   -0.219038   -2.737528
     18          6           0       12.447152    1.156727   -2.408723
     19          6           0       11.447177    1.457275   -1.485647
     20          6           0       13.050346   -1.122409   -3.639443
     21          6           0       13.627424    2.065829   -2.859449
     22          8           0       13.899665    3.100079   -2.276542
     23          6           0       14.561828    1.707104   -3.914000
     24          7           0        9.245345    2.165988    0.606079
     25          6           0       10.214217    3.028458    0.094062
     26          6           0       10.104333    4.449232    0.674181
     27          6           0        8.726043    4.380971    1.415711
     28          6           0        8.409068    2.894728    1.393951
     29          6           0       11.294370    4.975665    1.363809
     30          6           0        7.497294    5.318868    0.905171
     31          6           0        6.852154    6.339879    1.847074
     32          7           0        7.449544    0.154674    1.533182
     33          6           0        6.938928    1.118346    2.356857
     34          6           0        5.902218    0.595458    3.181474
     35          6           0        5.784624   -0.760689    2.690050
     36          6           0        6.823293   -0.985416    1.743568
     37          6           0        5.136396    1.392825    4.167267
     38          6           0        4.982017   -1.958466    2.783677
     39          8           0        3.968036   -2.252024    3.385985
     40          6           0        5.731382   -2.994031    1.756126
     41          6           0        6.015097   -4.297993    2.408038
     42          8           0        6.805127   -4.438534    3.315690
     43          8           0        5.308691   -5.307579    1.869923
     44          6           0        5.696208   -6.714349    2.271154
     45          1           0       11.100720   -2.769588   -2.604972
     46          1           0       11.993639    3.456958   -1.134589
     47          1           0        6.989881    3.264957    2.900045
     48          1           0        7.988217   -4.640910    0.465945
     49          1           0        9.145577   -4.399354   -2.175948
     50          1           0       11.041538   -4.062977   -0.231314
     51          1           0       10.892760   -5.452165   -1.432202
     52          1           0       10.136848   -5.471195    0.203848
     53          1           0        6.582281   -3.684791   -2.009782
     54          1           0        5.831785   -4.664306   -0.705220
     55          1           0        7.992537   -5.978222   -2.404403
     56          1           0        6.400171   -5.748431   -3.090263
     57          1           0       12.686000   -2.138087   -3.796680
     58          1           0       14.014882   -1.256120   -3.150774
     59          1           0       13.274134   -0.671834   -4.606599
     60          1           0       15.023641    0.720335   -3.921851
     61          1           0       15.369392    2.418357   -4.086885
     62          1           0       13.948396    1.830220   -4.806304
     63          1           0        9.966078    4.975747   -0.270548
     64          1           0        9.070381    4.593901    2.427607
     65          1           0       11.782112    5.842666    0.917438
     66          1           0       12.025609    4.168483    1.414139
     67          1           0       11.103757    5.319956    2.380211
     68          1           0        6.695591    4.654847    0.582546
     69          1           0        7.667920    5.932031    0.019473
     70          1           0        5.883104    6.044625    2.250246
     71          1           0        6.846938    7.364840    1.477313
     72          1           0        7.454217    6.365861    2.755444
     73          1           0        5.838231    1.996573    4.742120
     74          1           0        4.499416    0.777639    4.802234
     75          1           0        4.620906    2.179092    3.614825
     76          1           0        5.004494   -3.193197    0.969348
     77          1           0        4.795693   -7.275122    2.021757
     78          1           0        5.921217   -6.722692    3.337454
     79          1           0        6.518594   -7.008466    1.618856
     80         12           0       -8.323878    0.973242   -0.523682
     81          6           0      -10.557057   -1.770491   -0.551848
     82          6           0       -5.687420   -1.254031   -0.527583
     83          6           0       -6.215963    3.606579   -0.201422
     84          6           0      -11.031825    3.188758   -0.304779
     85          7           0       -8.249449   -1.237758   -0.434490
     86          6           0       -9.263307   -2.161762   -0.676046
     87          6           0       -8.688604   -3.632245   -0.797745
     88          6           0       -7.180948   -3.409141   -0.504974
     89          6           0       -7.001241   -1.876491   -0.426938
     90          6           0       -6.559838   -4.106624    0.762651
     91          6           0       -9.078845   -4.442568   -2.101121
     92          6           0       -9.826650   -5.718804   -1.859519
     93          1           0       -9.482711   -6.918766   -2.828172
     94          7           0       -6.290674    1.095109   -0.381474
     95          6           0       -5.345632    0.093037   -0.468030
     96          6           0       -4.017290    0.666878   -0.320002
     97          6           0       -4.114157    2.083972   -0.223786
     98          6           0       -5.600679    2.336234   -0.289581
     99          6           0       -2.709862   -0.142391   -0.435696
    100          6           0       -3.018237    3.140180   -0.124364
    101          8           0       -3.228476    4.335606   -0.135728
    102          6           0       -1.468236    2.816141   -0.102484
    103          7           0       -8.601284    3.114178   -0.187574
    104          6           0       -7.586065    3.963099   -0.095133
    105          6           0       -8.072135    5.447552    0.066888
    106          6           0       -9.629904    5.320952   -0.164535
    107          6           0       -9.789096    3.773017   -0.253083
    108          6           0       -7.584599    6.078281    1.403278
    109          6           0      -10.094795    6.109614   -1.372766
    110          6           0      -11.405527    6.864287   -1.157883
    111          7           0      -10.391501    0.849224   -0.302605
    112          6           0      -11.376435    1.818024   -0.324583
    113          6           0      -12.631218    1.153305   -0.150866
    114          6           0      -12.397811   -0.238709   -0.275537
    115          6           0      -10.987812   -0.407404   -0.363968
    116          6           0      -13.947911    1.809599    0.025145
    117          6           0      -13.048829   -1.555543   -0.388759
    118          8           0      -14.210937   -1.925801   -0.249799
    119          6           0      -11.748154   -2.646992   -0.626755
    120          6           0      -11.769272   -3.649908    0.391874
    121          8           0      -11.010622   -3.690177    1.336119
    122          8           0      -12.677654   -4.638071    0.086347
    123          6           0      -12.774890   -5.673395    1.145285
    124          1           0       -4.826556   -1.914446   -0.652473
    125          1           0       -5.587087    4.485340   -0.047448
    126          1           0      -11.815494    3.949826   -0.324650
    127          1           0       -9.031301   -4.125374    0.111278
    128          1           0       -6.572517   -3.745800   -1.344415
    129          1           0       -5.573529   -4.465507    0.466893
    130          1           0       -7.219860   -4.918633    1.066808
    131          1           0       -6.433620   -3.447762    1.621990
    132          1           0       -8.143948   -4.611257   -2.635729
    133          1           0       -9.740096   -3.799691   -2.682368
    134          1           0      -10.897578   -5.543332   -1.969754
    135          1           0       -9.591544   -5.956228   -0.822379
    136          1           0       -2.238694    0.215336   -1.350504
    137          1           0       -2.955519   -1.182894   -0.649403
    138          1           0       -1.999698   -0.019239    0.382927
    139          1           0       -1.233551    2.243727   -1.000554
    140          1           0       -1.124822    2.456784    0.868035
    141          1           0       -0.989761    3.793688   -0.050819
    142          1           0       -7.718128    6.109386   -0.723272
    143          1           0      -10.094437    5.640814    0.768410
    144          1           0       -8.445061    6.519373    1.907215
    145          1           0       -6.761220    6.781402    1.275179
    146          1           0       -7.186546    5.298755    2.050820
    147          1           0      -10.197015    5.483177   -2.258292
    148          1           0       -9.370622    6.840373   -1.736193
    149          1           0      -11.885833    6.571469   -0.224197
    150          1           0      -12.061123    6.573742   -1.979265
    151          1           0      -11.287652    7.942952   -1.262466
    152          1           0      -13.966742    2.899238    0.043533
    153          1           0      -14.449290    1.268118    0.828247
    154          1           0      -14.410650    1.680056   -0.953509
    155          1           0      -11.854461   -3.115193   -1.605734
    156          1           0      -13.082562   -5.213576    2.084696
    157          1           0      -11.806260   -6.172736    1.166420
    158          1           0      -13.536804   -6.423494    0.936908
 ---------------------------------------------------------------------

 SCF Done:  E(RPBE1PBE) =  -4067.37987042     A.U. after   16 cycles

 Excitation energies and oscillator strengths:

 Excited State   1:      Singlet-A      1.7955 eV  690.54 nm  f=0.0000  <S**2>=0.000
     312 -> 313        0.70706
 This state for optimization and/or second-order correction.
 Total Energy, E(TD-HF/TD-DFT) =  -4067.31388852
 Copying the excited state density for this state as the 1-particle RhoCI density.

 Excited State   2:      Singlet-A      1.8523 eV  669.34 nm  f=0.6093  <S**2>=0.000
     309 -> 315       -0.15907
     311 -> 313        0.64281
     312 -> 314       -0.25943
     311 <- 313       -0.10302

 Excited State   3:      Singlet-A      1.8790 eV  659.86 nm  f=0.1666  <S**2>=0.000
     310 -> 316        0.16320
     311 -> 313        0.25923
     312 -> 314        0.63997

 Excited State   4:      Singlet-A      1.9541 eV  634.49 nm  f=0.0000  <S**2>=0.000
     311 -> 314        0.70701

 Excited State   5:      Singlet-A      2.2287 eV  556.30 nm  f=0.0706  <S**2>=0.000
     309 -> 313        0.64202
     311 -> 315        0.27165

 The electronic state is 1-A.
 Alpha  occ. eigenvalues --  -46.91526 -46.91428 -19.25259 -19.24901 -19.19855
 Alpha  occ. eigenvalues --  -19.19610 -19.19408 -19.19386 -19.19131 -19.18662
 Alpha  occ. eigenvalues --  -14.42374 -14.41711 -14.41666 -14.41105 -14.39737
 Alpha  occ. eigenvalues --  -14.38886 -14.38529 -14.38274 -10.35216 -10.35143
 Alpha  occ. eigenvalues --  -10.33338 -10.33096 -10.32823 -10.32015 -10.29815
 Alpha  occ. eigenvalues --  -10.29518 -10.29516 -10.29182 -10.29080 -10.29017
 Alpha  occ. eigenvalues --  -10.28589 -10.28421 -10.28259 -10.28175 -10.28051
 Alpha  occ. eigenvalues --  -10.27717 -10.27603 -10.27486 -10.27323 -10.27204
 Alpha  occ. eigenvalues --  -10.26902 -10.26650 -10.26607 -10.26120 -10.26098
 Alpha  occ. eigenvalues --  -10.26093 -10.25999 -10.25977 -10.25930 -10.25581
 Alpha  occ. eigenvalues --  -10.25542 -10.25511 -10.25500 -10.25339 -10.25330
 Alpha  occ. eigenvalues --  -10.25273 -10.25193 -10.25180 -10.25145 -10.25119
 Alpha  occ. eigenvalues --  -10.24987 -10.24937 -10.24922 -10.24878 -10.24843
 Alpha  occ. eigenvalues --  -10.24840 -10.24821 -10.24672 -10.24662 -10.24492
 Alpha  occ. eigenvalues --  -10.24270 -10.23977 -10.23891 -10.23875 -10.23590
 Alpha  occ. eigenvalues --  -10.23577 -10.23533 -10.23441 -10.23353 -10.23217
 Alpha  occ. eigenvalues --  -10.23131 -10.23129 -10.23068 -10.22974 -10.22792
 Alpha  occ. eigenvalues --  -10.22719  -3.13666  -3.13635  -1.86524  -1.86484
 Alpha  occ. eigenvalues --   -1.86043  -1.86003  -1.85891  -1.85866  -1.10806
 Alpha  occ. eigenvalues --   -1.10548  -1.05825  -1.05796  -1.04486  -1.04219
 Alpha  occ. eigenvalues --   -1.02186  -1.01741  -1.00025  -0.98968  -0.98575
 Alpha  occ. eigenvalues --   -0.98104  -0.97158  -0.96865  -0.96499  -0.95508
 Alpha  occ. eigenvalues --   -0.86982  -0.86243  -0.83651  -0.83347  -0.83156
 Alpha  occ. eigenvalues --   -0.82809  -0.82529  -0.82077  -0.82039  -0.81421
 Alpha  occ. eigenvalues --   -0.81151  -0.81117  -0.81015  -0.80127  -0.79057
 Alpha  occ. eigenvalues --   -0.78474  -0.78147  -0.77877  -0.76939  -0.76868
 Alpha  occ. eigenvalues --   -0.76673  -0.75882  -0.75268  -0.75209  -0.74872
 Alpha  occ. eigenvalues --   -0.74003  -0.73289  -0.72300  -0.72257  -0.71745
 Alpha  occ. eigenvalues --   -0.71193  -0.70663  -0.70382  -0.69975  -0.69675
 Alpha  occ. eigenvalues --   -0.68940  -0.67400  -0.66662  -0.66432  -0.65607
 Alpha  occ. eigenvalues --   -0.63841  -0.63402  -0.63216  -0.63115  -0.62895
 Alpha  occ. eigenvalues --   -0.61861  -0.61500  -0.61401  -0.60258  -0.60055
 Alpha  occ. eigenvalues --   -0.59948  -0.59285  -0.59211  -0.58921  -0.58911
 Alpha  occ. eigenvalues --   -0.58836  -0.56189  -0.55671  -0.55218  -0.54454
 Alpha  occ. eigenvalues --   -0.54264  -0.53759  -0.53670  -0.53609  -0.53162
 Alpha  occ. eigenvalues --   -0.52735  -0.52484  -0.52277  -0.51880  -0.51653
 Alpha  occ. eigenvalues --   -0.51138  -0.50472  -0.50356  -0.50147  -0.49949
 Alpha  occ. eigenvalues --   -0.49506  -0.49248  -0.49240  -0.48758  -0.48573
 Alpha  occ. eigenvalues --   -0.48195  -0.47951  -0.47619  -0.47520  -0.47493
 Alpha  occ. eigenvalues --   -0.47272  -0.47069  -0.47030  -0.47000  -0.46907
 Alpha  occ. eigenvalues --   -0.46633  -0.46171  -0.46050  -0.45945  -0.45780
 Alpha  occ. eigenvalues --   -0.45608  -0.45533  -0.45229  -0.45214  -0.45020
 Alpha  occ. eigenvalues --   -0.44954  -0.44750  -0.44698  -0.44217  -0.44126
 Alpha  occ. eigenvalues --   -0.44120  -0.43959  -0.43870  -0.43837  -0.43770
 Alpha  occ. eigenvalues --   -0.43406  -0.43107  -0.43004  -0.42763  -0.42615
 Alpha  occ. eigenvalues --   -0.42543  -0.42538  -0.42283  -0.42246  -0.41970
 Alpha  occ. eigenvalues --   -0.41778  -0.41737  -0.41499  -0.41382  -0.41331
 Alpha  occ. eigenvalues --   -0.41153  -0.41044  -0.40955  -0.40763  -0.40705
 Alpha  occ. eigenvalues --   -0.40147  -0.40071  -0.40005  -0.39813  -0.39756
 Alpha  occ. eigenvalues --   -0.39540  -0.39399  -0.39242  -0.39207  -0.39039
 Alpha  occ. eigenvalues --   -0.39018  -0.38775  -0.38696  -0.38541  -0.38333
 Alpha  occ. eigenvalues --   -0.38210  -0.38074  -0.37853  -0.37798  -0.37726
 Alpha  occ. eigenvalues --   -0.37393  -0.37241  -0.37103  -0.36907  -0.36787
 Alpha  occ. eigenvalues --   -0.36773  -0.36515  -0.36306  -0.36212  -0.35958
 Alpha  occ. eigenvalues --   -0.35946  -0.35463  -0.35297  -0.35209  -0.35089
 Alpha  occ. eigenvalues --   -0.34783  -0.34627  -0.34496  -0.34350  -0.34228
 Alpha  occ. eigenvalues --   -0.33902  -0.33530  -0.32919  -0.32506  -0.32451
 Alpha  occ. eigenvalues --   -0.32124  -0.32084  -0.31809  -0.31507  -0.31182
 Alpha  occ. eigenvalues --   -0.31125  -0.30878  -0.29650  -0.29419  -0.29183
 Alpha  occ. eigenvalues --   -0.28851  -0.28577  -0.28066  -0.26982  -0.26780
 Alpha  occ. eigenvalues --   -0.26195  -0.26046  -0.25773  -0.25521  -0.25459
 Alpha  occ. eigenvalues --   -0.25380  -0.24861  -0.24544  -0.21283  -0.20799
 Alpha  occ. eigenvalues --   -0.18934  -0.18743
 Alpha virt. eigenvalues --   -0.11396  -0.10941  -0.05530  -0.05190  -0.03982
 Alpha virt. eigenvalues --   -0.03764  -0.02214  -0.01880   0.00238   0.00348
 Alpha virt. eigenvalues --    0.00378   0.00625   0.01172   0.01237   0.01511

 Mulliken charges:
               1
     1  Mg  12.000000
     2  C    6.000000
     3  C    6.000000
     4  C    6.000000
     5  C    6.000000
     6  N    7.000000
     7  C    6.000000
     8  C    6.000000
     9  C    6.000000
    10  C    6.000000
    11  C    6.000000
    12  C    6.000000
    13  C    6.000000
    14  H    1.000000
    15  N    7.000000
    16  C    6.000000
    17  C    6.000000
    18  C    6.000000
    19  C    6.000000
    20  C    6.000000
    21  C    6.000000
    22  O    8.000000
    23  C    6.000000
    24  N    7.000000
    25  C    6.000000
    26  C    6.000000
    27  C    6.000000
    28  C    6.000000
    29  C    6.000000
    30  C    6.000000
    31  C    6.000000
    32  N    7.000000
    33  C    6.000000
    34  C    6.000000
    35  C    6.000000
    36  C    6.000000
    37  C    6.000000
    38  C    6.000000
    39  O    8.000000
    40  C    6.000000
    41  C    6.000000
    42  O    8.000000
    43  O    8.000000
    44  C    6.000000
    45  H    1.000000
    46  H    1.000000
    47  H    1.000000
    48  H    1.000000
    49  H    1.000000
    50  H    1.000000
    51  H    1.000000
    52  H    1.000000
    53  H    1.000000
    54  H    1.000000
    55  H    1.000000
    56  H    1.000000
    57  H    1.000000
    58  H    1.000000
    59  H    1.000000
    60  H    1.000000
    61  H    1.000000
    62  H    1.000000
    63  H    1.000000
    64  H    1.000000
    65  H    1.000000
    66  H    1.000000
    67  H    1.000000
    68  H    1.000000
    69  H    1.000000
    70  H    1.000000
    71  H    1.000000
    72  H    1.000000
    73  H    1.000000
    74  H    1.000000
    75  H    1.000000
    76  H    1.000000
    77  H    1.000000
    78  H    1.000000
    79  H    1.000000
    80  Mg  12.000000
    81  C    6.000001
    82  C    6.000000
    83  C    5.999999
    84  C    6.000001
    85  N    7.000000
    86  C    5.999999
    87  C    6.000000
    88  C    6.000000
    89  C    6.000001
    90  C    6.000000
    91  C    6.000000
    92  C    6.000000
    93  H    1.000000
    94  N    6.999999
    95  C    6.000001
    96  C    6.000002
    97  C    6.000001
    98  C    6.000000
    99  C    6.000000
   100  C    6.000000
   101  O    8.000002
   102  C    6.000000
   103  N    7.000000
   104  C    6.000001
   105  C    6.000000
   106  C    6.000000
   107  C    5.999999
   108  C    6.000000
   109  C    6.000000
   110  C    6.000000
   111  N    7.000000
   112  C    5.999998
   113  C    5.999999
   114  C    6.000000
   115  C    5.999999
   116  C    6.000000
   117  C    5.999999
   118  O    7.999999
   119  C    6.000000
   120  C    6.000000
   121  O    8.000000
   122  O    8.000000
   123  C    6.000000
   124  H    1.000000
   125  H    1.000000
   126  H    1.000000
   127  H    1.000000
   128  H    1.000000
   129  H    1.000000
   130  H    1.000001
   131  H    1.000000
   132  H    1.000000
   133  H    1.000000
   134  H    1.000000
   135  H    1.000000
   136  H    1.000001
   137  H    1.000001
   138  H    1.000001
   139  H    1.000000
   140  H    1.000000
   141  H    1.000001
   142  H    1.000000
   143  H    1.000000
   144  H    1.000000
   145  H    1.000000
   146  H    1.000000
   147  H    1.000000
   148  H    1.000000
   149  H    1.000000
   150  H    1.000000
   151  H    1.000000
   152  H    0.999999
   153  H    0.999999
   154  H    0.999999
   155  H    1.000000
   156  H    1.000000
   157  H    1.000000
   158  H    1.000000
 Sum of Mulliken charges = 624.00000

 Dipole moment (field-independent basis, Debye):
    X=              0.0005    Y=              0.0000    Z=             -0.0001  Tot=              0.0005
 Quadrupole moment (field-independent basis, Debye-Ang):
   XX=             -0.0046   YY=             -0.0000   ZZ=             -0.0000
   XY=              0.0002   XZ=             -0.0006   YZ=             -0.0000

 Normal termination of Gaussian 16 at Fri Oct 15 06:07:39 2021.
