 Gaussian 16, Revision A.03,
 Gaussian 16:  ES64L-G16RevA.03 25-Dec-2016

 --------------------------------------------------------
 #p PBE1PBE/Def2SVP td=(nstates=5) density=(transition=1)
 --------------------------------------------------------

 --------------------------------
 TDDFT excited states in gaussian
 --------------------------------
 Symbolic Z-matrix:
 Charge =  0 Multiplicity = 1

                         Standard orientation:
 ---------------------------------------------------------------------
 Center     Atomic      Atomic             Coordinates (Angstroms)
 Number     Number       Type             X           Y           Z
 ---------------------------------------------------------------------
      1         12           0      -26.763250   -0.807039    0.105165
      2          6           0      -27.957944    2.565054   -0.012753
      3          6           0      -25.085717   -0.156683   -2.794143
      4          6           0      -26.065374   -3.896284   -0.056568
      5          6           0      -29.378741   -1.500799    2.301426
      6          7           0      -26.617003    1.012549   -1.147174
      7          6           0      -27.074894    2.256759   -1.049971
      8          6           0      -26.468315    3.222981   -2.111033
      9          6           0      -26.062664    2.153985   -3.222201
     10          6           0      -25.875654    0.937765   -2.332391
     11          6           0      -27.176062    1.863527   -4.223440
     12          6           0      -25.215243    3.989861   -1.569335
     13          6           0      -24.762104    5.182206   -2.416879
     14          1           0      -24.223079    6.354713   -1.744549
     15          7           0      -25.368642   -1.753198   -0.925710
     16          6           0      -24.786516   -1.333997   -2.074922
     17          6           0      -23.815446   -2.385315   -2.446987
     18          6           0      -24.015890   -3.537034   -1.524241
     19          6           0      -25.190686   -3.113252   -0.806160
     20          6           0      -22.802565   -2.220899   -3.538221
     21          6           0      -23.273607   -4.821175   -1.328977
     22          8           0      -23.750429   -5.783783   -0.635722
     23          6           0      -21.996637   -4.958391   -2.052552
     24          7           0      -27.722875   -2.518800    0.816944
     25          6           0      -27.177836   -3.730356    0.661863
     26          6           0      -27.890135   -4.759414    1.488669
     27          6           0      -28.890690   -3.951030    2.434797
     28          6           0      -28.621548   -2.523542    1.898038
     29          6           0      -28.674262   -5.821404    0.705513
     30          6           0      -28.772574   -4.200199    3.959389
     31          6           0      -27.452308   -3.664344    4.466199
     32          7           0      -28.285338    0.342185    1.141300
     33          6           0      -29.286017   -0.154864    1.988800
     34          6           0      -30.141409    0.986360    2.362940
     35          6           0      -29.585091    2.072084    1.689473
     36          6           0      -28.469614    1.631874    0.921217
     37          6           0      -31.305587    0.923105    3.178490
     38          6           0      -29.688374    3.497201    1.420714
     39          8           0      -30.379934    4.415316    1.863777
     40          6           0      -28.713407    3.851178    0.212424
     41          6           0      -27.924759    5.070095    0.606869
     42          8           0      -27.093392    5.021021    1.536271
     43          8           0      -28.096621    6.028686   -0.316228
     44          6           0      -27.317361    7.255496   -0.000247
     45          1           0      -24.709962   -0.141028   -3.819083
     46          1           0      -25.794346   -4.952423    0.003037
     47          1           0      -30.163087   -1.625565    3.050217
     48          1           0      -27.174030    3.942454   -2.526662
     49          1           0      -25.124352    2.412701   -3.712464
     50          1           0      -28.109858    2.343712   -3.931263
     51          1           0      -27.289949    0.779314   -4.225664
     52          1           0      -26.868822    2.134611   -5.233833
     53          1           0      -24.336094    3.352122   -1.661250
     54          1           0      -25.378369    4.318746   -0.542422
     55          1           0      -25.527341    5.472980   -3.137137
     56          1           0      -23.919236    4.864287   -3.030638
     57          1           0      -23.007111   -1.339736   -4.145063
     58          1           0      -22.933399   -3.058606   -4.222939
     59          1           0      -21.782449   -2.216065   -3.153941
     60          1           0      -22.176849   -4.857078   -3.122977
     61          1           0      -21.564101   -5.902339   -1.722817
     62          1           0      -21.341625   -4.132885   -1.772466
     63          1           0      -27.188577   -5.319090    2.105925
     64          1           0      -29.934434   -4.171252    2.209464
     65          1           0      -28.371748   -6.844222    0.931417
     66          1           0      -28.563771   -5.606536   -0.356990
     67          1           0      -29.756194   -5.771549    0.825326
     68          1           0      -28.787596   -5.268770    4.171231
     69          1           0      -29.574208   -3.736759    4.534591
     70          1           0      -26.760524   -4.477835    4.250564
     71          1           0      -27.506323   -3.471594    5.538179
     72          1           0      -27.126595   -2.798209    3.889826
     73          1           0      -31.249657    1.774632    3.856532
     74          1           0      -31.354271   -0.017381    3.726870
     75          1           0      -32.086383    1.006678    2.422692
     76          1           0      -29.344815    4.035513   -0.656177
     77          1           0      -28.022878    8.086035    0.025919
     78          1           0      -26.506347    7.303245   -0.727146
     79          1           0      -26.894637    7.312872    1.003423
     80         12           0       27.629347    0.312209    0.173252
     81          6           0       24.419477   -0.148653   -1.034171
     82          6           0       26.361939    0.530236    3.384155
     83          6           0       30.783045   -0.007310    1.333827
     84          6           0       28.733250   -0.278969   -3.123648
     85          7           0       25.628020   -0.084666    1.098165
     86          6           0       24.507313   -0.052525    0.371666
     87          6           0       23.263487   -0.203535    1.301064
     88          6           0       23.866785    0.292771    2.698976
     89          6           0       25.410962    0.328706    2.382945
     90          6           0       23.218190    1.604155    3.204055
     91          6           0       22.847960   -1.654031    1.394951
     92          6           0       21.348747   -1.908495    1.380190
     93          1           0       20.665140   -3.030229    2.249399
     94          7           0       28.443434    0.448872    2.142348
     95          6           0       27.797544    0.460411    3.321099
     96          6           0       28.782292    0.551998    4.349712
     97          6           0       30.088470    0.577417    3.773398
     98          6           0       29.836928    0.370324    2.341865
     99          6           0       28.408935    0.800107    5.764407
    100          6           0       31.349456    0.578391    4.562277
    101          8           0       31.311784    0.662371    5.778603
    102          6           0       32.714743    0.546238    3.885861
    103          7           0       29.572727   -0.018488   -0.836902
    104          6           0       30.684648   -0.173168   -0.064914
    105          6           0       31.827422   -0.682086   -0.882028
    106          6           0       31.141313   -0.771732   -2.326528
    107          6           0       29.728335   -0.270191   -2.160004
    108          6           0       33.108151    0.169720   -0.802916
    109          6           0       31.207401   -2.192643   -3.043176
    110          6           0       31.740106   -2.319391   -4.489820
    111          7           0       26.806394   -0.093451   -1.681182
    112          6           0       27.362561   -0.232333   -2.913919
    113          6           0       26.381643   -0.109301   -3.898903
    114          6           0       25.162943   -0.046568   -3.237649
    115          6           0       25.467163   -0.114924   -1.901178
    116          6           0       26.653389   -0.186180   -5.429926
    117          6           0       23.786590    0.062795   -3.376038
    118          8           0       23.125633    0.025031   -4.407960
    119          6           0       23.128896   -0.038050   -1.916117
    120          6           0       22.460489    1.158634   -1.551300
    121          8           0       22.901040    2.247917   -1.176502
    122          8           0       21.100742    0.890394   -1.675371
    123          6           0       20.110761    1.911425   -1.378239
    124          1           0       25.962232    0.755486    4.374857
    125          1           0       31.845843   -0.125235    1.557285
    126          1           0       29.185867   -0.365092   -4.113795
    127          1           0       22.459477    0.401096    0.882353
    128          1           0       23.830297   -0.456289    3.489309
    129          1           0       22.533282    2.026205    2.468875
    130          1           0       23.998650    2.327654    3.441856
    131          1           0       22.712495    1.378009    4.142512
    132          1           0       23.249602   -2.242465    2.220142
    133          1           0       23.367111   -2.136557    0.566869
    134          1           0       21.066917   -2.021308    0.333453
    135          1           0       20.970081   -0.938894    1.703543
    136          1           0       28.546126    1.876935    5.861222
    137          1           0       29.042791    0.238015    6.450517
    138          1           0       27.378069    0.527587    5.990828
    139          1           0       32.884895   -0.496755    3.618381
    140          1           0       33.437327    0.746712    4.676549
    141          1           0       32.741560    1.227496    3.035507
    142          1           0       31.964489   -1.660369   -0.422429
    143          1           0       31.672132   -0.165220   -3.060360
    144          1           0       33.806683   -0.400834   -0.189960
    145          1           0       32.931955    1.165749   -0.395422
    146          1           0       33.549750    0.249320   -1.795974
    147          1           0       30.199929   -2.607697   -3.068142
    148          1           0       31.853213   -2.899976   -2.522413
    149          1           0       30.805758   -2.189486   -5.035760
    150          1           0       32.113346   -3.326820   -4.669268
    151          1           0       32.351001   -1.526280   -4.920757
    152          1           0       26.858317   -1.223635   -5.691005
    153          1           0       27.535559    0.344686   -5.788303
    154          1           0       25.783467    0.146611   -5.996809
    155          1           0       22.491426   -0.921990   -1.941002
    156          1           0       19.256000    1.722470   -2.026955
    157          1           0       20.476976    2.937845   -1.412234
    158          1           0       19.726674    1.712127   -0.377710
 ---------------------------------------------------------------------

 SCF Done:  E(RPBE1PBE) =  -4067.36040602     A.U. after   16 cycles

 Excitation energies and oscillator strengths:

 Excited State   1:      Singlet-A      1.8414 eV  673.30 nm  f=0.3748  <S**2>=0.000
     310 -> 316        0.16205
     312 -> 314        0.69317
     312 <- 314       -0.11105
 This state for optimization and/or second-order correction.
 Total Energy, E(TD-HF/TD-DFT) =  -4067.29273469
 Copying the excited state density for this state as the 1-particle RhoCI density.

 Excited State   2:      Singlet-A      1.8605 eV  666.39 nm  f=0.3888  <S**2>=0.000
     309 -> 315       -0.17798
     311 -> 313        0.69226
     311 <- 313       -0.11024

 Excited State   3:      Singlet-A      1.8619 eV  665.90 nm  f=0.0000  <S**2>=0.000
     312 -> 313        0.70711

 Excited State   4:      Singlet-A      2.1146 eV  586.33 nm  f=0.0000  <S**2>=0.000
     311 -> 314        0.70711

 Excited State   5:      Singlet-A      2.1929 eV  565.38 nm  f=0.0925  <S**2>=0.000
     310 -> 314        0.65172
     312 -> 316       -0.24143

 The electronic state is 1-A.
 Alpha  occ. eigenvalues --  -46.93077 -46.91178 -19.26911 -19.25278 -19.20354
 Alpha  occ. eigenvalues --  -19.19527 -19.19291 -19.18998 -19.18615 -19.18402
 Alpha  occ. eigenvalues --  -14.41932 -14.41891 -14.41516 -14.40946 -14.39480
 Alpha  occ. eigenvalues --  -14.39038 -14.38892 -14.38243 -10.36531 -10.36094
 Alpha  occ. eigenvalues --  -10.32480 -10.32373 -10.31797 -10.31559 -10.29286
 Alpha  occ. eigenvalues --  -10.29162 -10.29133 -10.29056 -10.28893 -10.28883
 Alpha  occ. eigenvalues --  -10.28789 -10.28638 -10.28622 -10.28206 -10.28123
 Alpha  occ. eigenvalues --  -10.27989 -10.27532 -10.27496 -10.27246 -10.27131
 Alpha  occ. eigenvalues --  -10.27024 -10.26554 -10.26344 -10.26324 -10.26217
 Alpha  occ. eigenvalues --  -10.26160 -10.26133 -10.26049 -10.26016 -10.26005
 Alpha  occ. eigenvalues --  -10.26000 -10.25970 -10.25887 -10.25675 -10.25488
 Alpha  occ. eigenvalues --  -10.25471 -10.25440 -10.25363 -10.25336 -10.25260
 Alpha  occ. eigenvalues --  -10.25242 -10.25198 -10.25086 -10.24839 -10.24763
 Alpha  occ. eigenvalues --  -10.24636 -10.24475 -10.24383 -10.24370 -10.24268
 Alpha  occ. eigenvalues --  -10.23967 -10.23782 -10.23674 -10.23651 -10.23601
 Alpha  occ. eigenvalues --  -10.23601 -10.23368 -10.23363 -10.23323 -10.23262
 Alpha  occ. eigenvalues --  -10.22901 -10.22581 -10.22548 -10.22405 -10.22389
 Alpha  occ. eigenvalues --  -10.22079  -3.14986  -3.13495  -1.87839  -1.87354
 Alpha  occ. eigenvalues --   -1.87201  -1.86317  -1.85883  -1.85729  -1.11408
 Alpha  occ. eigenvalues --   -1.10446  -1.04806  -1.04765  -1.03354  -1.02279
 Alpha  occ. eigenvalues --   -1.01825  -1.01437  -1.00209  -0.99159  -0.98723
 Alpha  occ. eigenvalues --   -0.98496  -0.98355  -0.97886  -0.97323  -0.97076
 Alpha  occ. eigenvalues --   -0.88291  -0.86317  -0.83824  -0.83820  -0.83440
 Alpha  occ. eigenvalues --   -0.83401  -0.82704  -0.82579  -0.82259  -0.82190
 Alpha  occ. eigenvalues --   -0.81961  -0.81425  -0.81254  -0.80569  -0.79731
 Alpha  occ. eigenvalues --   -0.79220  -0.78916  -0.78212  -0.77343  -0.77144
 Alpha  occ. eigenvalues --   -0.76859  -0.76488  -0.75880  -0.75843  -0.75103
 Alpha  occ. eigenvalues --   -0.74929  -0.73091  -0.72538  -0.71946  -0.71532
 Alpha  occ. eigenvalues --   -0.71217  -0.70885  -0.70801  -0.70228  -0.69551
 Alpha  occ. eigenvalues --   -0.69213  -0.67950  -0.67228  -0.66888  -0.66075
 Alpha  occ. eigenvalues --   -0.64342  -0.64207  -0.63677  -0.63219  -0.62561
 Alpha  occ. eigenvalues --   -0.62106  -0.61786  -0.61540  -0.60571  -0.60344
 Alpha  occ. eigenvalues --   -0.60075  -0.59693  -0.59438  -0.59406  -0.59083
 Alpha  occ. eigenvalues --   -0.58755  -0.57253  -0.56861  -0.55069  -0.54932
 Alpha  occ. eigenvalues --   -0.54525  -0.54292  -0.53720  -0.53609  -0.53524
 Alpha  occ. eigenvalues --   -0.53105  -0.52840  -0.52634  -0.52092  -0.51789
 Alpha  occ. eigenvalues --   -0.50956  -0.50859  -0.50671  -0.50360  -0.50109
 Alpha  occ. eigenvalues --   -0.50040  -0.49822  -0.49383  -0.49066  -0.48934
 Alpha  occ. eigenvalues --   -0.48446  -0.48244  -0.48005  -0.47940  -0.47739
 Alpha  occ. eigenvalues --   -0.47541  -0.47181  -0.47089  -0.46965  -0.46920
 Alpha  occ. eigenvalues --   -0.46736  -0.46531  -0.46404  -0.46367  -0.46172
 Alpha  occ. eigenvalues --   -0.46118  -0.45866  -0.45845  -0.45070  -0.45021
 Alpha  occ. eigenvalues --   -0.44738  -0.44621  -0.44553  -0.44470  -0.44261
 Alpha  occ. eigenvalues --   -0.44115  -0.44092  -0.43850  -0.43726  -0.43695
 Alpha  occ. eigenvalues --   -0.43686  -0.43206  -0.43103  -0.43050  -0.42998
 Alpha  occ. eigenvalues --   -0.42963  -0.42323  -0.42220  -0.41937  -0.41612
 Alpha  occ. eigenvalues --   -0.41552  -0.41530  -0.41433  -0.41347  -0.41232
 Alpha  occ. eigenvalues --   -0.41058  -0.40861  -0.40848  -0.40696  -0.40542
 Alpha  occ. eigenvalues --   -0.40541  -0.40246  -0.40104  -0.39928  -0.39806
 Alpha  occ. eigenvalues --   -0.39505  -0.39315  -0.39290  -0.39209  -0.38887
 Alpha  occ. eigenvalues --   -0.38825  -0.38731  -0.38716  -0.38467  -0.38280
 Alpha  occ. eigenvalues --   -0.38269  -0.38226  -0.37985  -0.37846  -0.37802
 Alpha  occ. eigenvalues --   -0.37477  -0.37433  -0.37049  -0.36894  -0.36846
 Alpha  occ. eigenvalues --   -0.36813  -0.36692  -0.36551  -0.36393  -0.36356
 Alpha  occ. eigenvalues --   -0.35949  -0.35892  -0.35765  -0.35580  -0.35468
 Alpha  occ. eigenvalues --   -0.35220  -0.34997  -0.34663  -0.34322  -0.33405
 Alpha  occ. eigenvalues --   -0.33277  -0.33186  -0.32979  -0.32712  -0.32436
 Alpha  occ. eigenvalues --   -0.32369  -0.32258  -0.32242  -0.31693  -0.31244
 Alpha  occ. eigenvalues --   -0.31165  -0.30704  -0.29823  -0.29570  -0.29496
 Alpha  occ. eigenvalues --   -0.29055  -0.28905  -0.28401  -0.27454  -0.26707
 Alpha  occ. eigenvalues --   -0.26431  -0.25990  -0.25935  -0.25511  -0.25103
 Alpha  occ. eigenvalues --   -0.25102  -0.24940  -0.24816  -0.21520  -0.20964
 Alpha  occ. eigenvalues --   -0.19225  -0.18747
 Alpha virt. eigenvalues --   -0.11661  -0.11211  -0.05777  -0.05332  -0.04417
 Alpha virt. eigenvalues --   -0.04142  -0.02163  -0.02114  -0.00438  -0.00225
 Alpha virt. eigenvalues --    0.00366   0.00436   0.00462   0.00468   0.01362

 Mulliken charges:
               1
     1  Mg  11.999353
     2  C    6.014597
     3  C    5.988119
     4  C    5.987742
     5  C    6.014432
     6  N    7.008091
     7  C    5.968210
     8  C    6.008329
     9  C    5.991277
    10  C    6.027131
    11  C    5.999213
    12  C    6.003609
    13  C    6.001011
    14  H    1.000370
    15  N    6.996802
    16  C    6.036318
    17  C    6.029217
    18  C    6.015187
    19  C    6.020570
    20  C    5.994856
    21  C    6.014479
    22  O    8.030440
    23  C    5.995128
    24  N    6.999319
    25  C    6.026482
    26  C    5.988748
    27  C    6.011843
    28  C    5.968676
    29  C    6.000466
    30  C    6.003700
    31  C    6.000982
    32  N    7.003272
    33  C    5.956122
    34  C    5.977341
    35  C    5.993823
    36  C    5.971122
    37  C    6.003272
    38  C    5.985534
    39  O    7.969545
    40  C    5.998620
    41  C    5.996607
    42  O    7.995648
    43  O    7.998240
    44  C    6.001244
    45  H    1.007725
    46  H    1.005988
    47  H    0.991140
    48  H    1.000792
    49  H    0.999579
    50  H    1.015462
    51  H    0.995553
    52  H    1.003287
    53  H    0.986824
    54  H    1.005621
    55  H    0.999255
    56  H    0.993428
    57  H    1.019272
    58  H    1.019735
    59  H    1.020510
    60  H    1.005175
    61  H    1.014418
    62  H    1.007130
    63  H    0.999033
    64  H    0.996003
    65  H    0.999938
    66  H    0.994690
    67  H    1.009435
    68  H    0.991017
    69  H    1.002842
    70  H    0.988744
    71  H    0.998605
    72  H    1.002676
    73  H    0.984452
    74  H    0.983514
    75  H    0.981788
    76  H    0.992251
    77  H    0.997134
    78  H    0.994073
    79  H    0.997823
    80  Mg  12.000048
    81  C    5.999925
    82  C    5.999638
    83  C    5.999996
    84  C    6.000348
    85  N    6.999791
    86  C    5.999790
    87  C    6.000105
    88  C    5.999879
    89  C    6.000498
    90  C    5.999989
    91  C    6.000016
    92  C    6.000047
    93  H    0.999830
    94  N    7.000003
    95  C    6.000560
    96  C    6.000286
    97  C    6.000224
    98  C    6.000361
    99  C    5.999941
   100  C    6.000130
   101  O    8.000257
   102  C    5.999970
   103  N    7.000091
   104  C    6.000323
   105  C    5.999884
   106  C    6.000117
   107  C    5.999527
   108  C    5.999958
   109  C    6.000027
   110  C    5.999974
   111  N    6.999955
   112  C    5.999603
   113  C    5.999685
   114  C    5.999892
   115  C    5.999804
   116  C    5.999942
   117  C    5.999799
   118  O    7.999534
   119  C    5.999909
   120  C    5.999999
   121  O    7.999861
   122  O    7.999949
   123  C    6.000056
   124  H    1.000078
   125  H    1.000165
   126  H    0.999933
   127  H    1.000002
   128  H    0.999982
   129  H    1.000130
   130  H    0.999962
   131  H    1.000015
   132  H    0.999867
   133  H    1.000073
   134  H    1.000038
   135  H    0.999952
   136  H    1.000290
   137  H    1.000232
   138  H    1.000264
   139  H    1.000124
   140  H    1.000183
   141  H    1.000101
   142  H    0.999995
   143  H    1.000006
   144  H    1.000008
   145  H    0.999995
   146  H    1.000158
   147  H    1.000050
   148  H    0.999894
   149  H    1.000078
   150  H    0.999970
   151  H    0.999982
   152  H    0.999749
   153  H    0.999766
   154  H    0.999841
   155  H    0.999844
   156  H    0.999904
   157  H    0.999960
   158  H    0.999888
 Sum of Mulliken charges = 624.00000

 Dipole moment (field-independent basis, Debye):
    X=              7.0708    Y=             -5.5618    Z=             -5.1406  Tot=             10.3612
 Quadrupole moment (field-independent basis, Debye-Ang):
   XX=           -369.5064   YY=              4.5753   ZZ=              0.7870
   XY=            142.5331   XZ=            144.6077   YZ=              4.9861

 Normal termination of Gaussian 16 at Thu Oct 14 14:34:37 2021.
