 Gaussian 16, Revision A.03,
 Gaussian 16:  ES64L-G16RevA.03 25-Dec-2016

 --------------------------------------------------------
 #p PBE1PBE/Def2SVP td=(nstates=5) density=(transition=1)
 --------------------------------------------------------

 --------------------------------
 TDDFT excited states in gaussian
 --------------------------------
 Symbolic Z-matrix:
 Charge =  0 Multiplicity = 1

                         Standard orientation:
 ---------------------------------------------------------------------
 Center     Atomic      Atomic             Coordinates (Angstroms)
 Number     Number       Type             X           Y           Z
 ---------------------------------------------------------------------
      1         12           0      -17.809904   -0.676301    0.137971
      2          6           0      -17.446932    2.726432   -0.269081
      3          6           0      -16.875901   -0.248624    3.401677
      4          6           0      -17.879749   -4.035909    0.473484
      5          6           0      -18.170905   -1.052291   -3.299679
      6          7           0      -17.094265    1.113992    1.339483
      7          6           0      -17.219807    2.350897    1.046560
      8          6           0      -16.893768    3.408365    2.222928
      9          6           0      -16.415901    2.375437    3.318516
     10          6           0      -16.727552    0.953976    2.648745
     11          6           0      -14.836079    2.423044    3.663456
     12          6           0      -18.114817    4.317177    2.682719
     13          6           0      -17.794634    5.764488    3.199817
     14          1           0      -16.352960    6.081190    3.460396
     15          7           0      -17.517446   -1.934172    1.684879
     16          6           0      -17.202809   -1.571744    3.053390
     17          6           0      -17.180805   -2.802708    3.836670
     18          6           0      -17.358252   -3.919222    2.982060
     19          6           0      -17.641666   -3.322455    1.657233
     20          6           0      -17.007194   -2.664391    5.306355
     21          6           0      -17.406573   -5.435400    3.283945
     22          8           0      -17.463365   -6.307752    2.469087
     23          6           0      -17.186545   -5.809962    4.763594
     24          7           0      -17.890280   -2.379875   -1.200971
     25          6           0      -17.903356   -3.629792   -0.860659
     26          6           0      -17.784046   -4.564809   -2.097487
     27          6           0      -17.991938   -3.614448   -3.300991
     28          6           0      -18.043550   -2.243476   -2.586476
     29          6           0      -16.428029   -5.302118   -2.106838
     30          6           0      -19.256270   -3.978096   -4.138485
     31          6           0      -19.134943   -5.263774   -4.972447
     32          7           0      -17.817320    0.566256   -1.509051
     33          6           0      -18.079305    0.264341   -2.833609
     34          6           0      -18.109222    1.517277   -3.541195
     35          6           0      -17.826540    2.564794   -2.614204
     36          6           0      -17.699237    1.866670   -1.382453
     37          6           0      -18.315248    1.658469   -4.935852
     38          6           0      -17.708957    3.968249   -2.376897
     39          8           0      -17.717710    4.913235   -3.220996
     40          6           0      -17.338549    4.097118   -0.848491
     41          6           0      -16.048663    4.748995   -0.770801
     42          8           0      -14.969396    4.174649   -0.912427
     43          8           0      -16.282826    6.096996   -0.672895
     44          6           0      -15.061400    6.911544   -0.845381
     45          1           0      -16.556065   -0.146673    4.440353
     46          1           0      -17.911422   -5.111486    0.663074
     47          1           0      -18.359006   -1.219213   -4.362757
     48          1           0      -16.039546    3.962839    1.833552
     49          1           0      -16.944503    2.551982    4.255063
     50          1           0      -14.326634    2.916263    2.835140
     51          1           0      -14.455486    1.408463    3.780228
     52          1           0      -14.556601    2.941896    4.580981
     53          1           0      -18.548764    3.758193    3.511345
     54          1           0      -18.994820    4.307707    2.038677
     55          1           0      -18.329308    6.034114    4.110520
     56          1           0      -18.062579    6.483646    2.425735
     57          1           0      -15.949885   -2.594667    5.563567
     58          1           0      -17.581759   -3.396276    5.874264
     59          1           0      -17.479176   -1.724072    5.590202
     60          1           0      -18.036808   -5.606847    5.415415
     61          1           0      -16.314279   -5.204669    5.008246
     62          1           0      -16.880368   -6.838378    4.952883
     63          1           0      -18.638555   -5.228970   -1.970077
     64          1           0      -17.097578   -3.614141   -3.924020
     65          1           0      -15.619773   -4.813873   -1.561936
     66          1           0      -15.928501   -5.444129   -3.065749
     67          1           0      -16.629085   -6.275841   -1.660231
     68          1           0      -19.442188   -3.179434   -4.855254
     69          1           0      -20.124261   -4.050431   -3.482280
     70          1           0      -18.181405   -5.728778   -4.722133
     71          1           0      -18.957089   -4.991214   -6.012834
     72          1           0      -19.963396   -5.971713   -4.975442
     73          1           0      -19.143573    0.985338   -5.157262
     74          1           0      -17.489581    1.355888   -5.579709
     75          1           0      -18.462968    2.715866   -5.157784
     76          1           0      -18.103407    4.776412   -0.471206
     77          1           0      -14.748266    6.768794   -1.880013
     78          1           0      -14.316656    6.696290   -0.079858
     79          1           0      -15.350347    7.955283   -0.721030
     80         12           0       17.674162   -0.828365    0.104833
     81          6           0       15.923224    2.449258    0.174973
     82          6           0       20.486677    1.045052    0.167923
     83          6           0       19.056600   -3.658870   -0.248341
     84          6           0       14.517702   -2.224282   -0.768150
     85          7           0       18.108051    1.464269    0.111936
     86          6           0       17.260973    2.538973    0.323218
     87          6           0       17.971487    3.856718    0.652976
     88          6           0       19.410185    3.469688    0.190697
     89          6           0       19.375162    1.893382    0.135533
     90          6           0       19.839560    4.057195   -1.116735
     91          6           0       17.844919    4.390748    2.119162
     92          6           0       17.880099    5.866916    2.334596
     93          1           0       18.602582    6.324739    3.597620
     94          7           0       19.572491   -1.289533    0.019081
     95          6           0       20.644198   -0.378055    0.121419
     96          6           0       21.855127   -1.140022    0.225943
     97          6           0       21.393086   -2.527091    0.260919
     98          6           0       19.996043   -2.505704    0.016705
     99          6           0       23.289459   -0.533264    0.450400
    100          6           0       22.264048   -3.722139    0.500929
    101          8           0       21.815115   -4.893410    0.456325
    102          6           0       23.702093   -3.622437    0.858255
    103          7           0       16.984328   -2.657839   -0.578674
    104          6           0       17.768027   -3.737137   -0.622051
    105          6           0       17.022868   -5.045088   -1.040459
    106          6           0       15.548005   -4.585222   -0.738358
    107          6           0       15.663095   -3.036266   -0.733692
    108          6           0       17.223725   -5.382035   -2.553048
    109          6           0       15.034097   -5.096639    0.672692
    110          6           0       15.111235   -6.600970    1.008007
    111          7           0       15.625634   -0.089217   -0.191166
    112          6           0       14.473435   -0.813680   -0.474574
    113          6           0       13.349135    0.086310   -0.582680
    114          6           0       13.862814    1.358287   -0.299463
    115          6           0       15.271202    1.231956   -0.149595
    116          6           0       11.919824   -0.287065   -0.790031
    117          6           0       13.496546    2.760096   -0.145577
    118          8           0       12.435286    3.369130   -0.173180
    119          6           0       14.886938    3.472033    0.268370
    120          6           0       15.027396    4.605622   -0.629383
    121          8           0       15.143520    4.568237   -1.864453
    122          8           0       14.576059    5.713875    0.028330
    123          6           0       14.542740    6.967832   -0.653538
    124          1           0       21.343811    1.700123    0.338257
    125          1           0       19.490508   -4.652830   -0.374232
    126          1           0       13.574713   -2.713036   -1.023321
    127          1           0       17.574583    4.612042   -0.025630
    128          1           0       20.133575    3.676310    0.978884
    129          1           0       19.822498    3.249273   -1.848249
    130          1           0       20.874411    4.391903   -1.046393
    131          1           0       19.242320    4.876004   -1.517449
    132          1           0       18.699864    3.999907    2.670163
    133          1           0       16.951295    3.940650    2.550705
    134          1           0       16.826900    6.136749    2.409824
    135          1           0       18.151504    6.415908    1.432799
    136          1           0       23.699445   -0.654246    1.452648
    137          1           0       23.331186    0.511628    0.144060
    138          1           0       23.873347   -1.098925   -0.276750
    139          1           0       24.260069   -3.363860   -0.042054
    140          1           0       23.984939   -4.614108    1.212417
    141          1           0       23.767694   -2.905896    1.676339
    142          1           0       17.422120   -5.831543   -0.399114
    143          1           0       14.805702   -4.856363   -1.488458
    144          1           0       17.818269   -6.295300   -2.587479
    145          1           0       17.658317   -4.591316   -3.163738
    146          1           0       16.200458   -5.597709   -2.863736
    147          1           0       13.971129   -4.870566    0.753458
    148          1           0       15.530429   -4.473490    1.416416
    149          1           0       15.728330   -6.650796    1.904995
    150          1           0       15.653809   -7.031872    0.166069
    151          1           0       14.132426   -7.037663    1.205760
    152          1           0       11.896046   -1.363144   -0.616485
    153          1           0       11.697790   -0.056290   -1.831887
    154          1           0       11.218402    0.277237   -0.175507
    155          1           0       14.832335    3.801876    1.305670
    156          1           0       14.935616    6.887771   -1.667355
    157          1           0       15.213007    7.614154   -0.086734
    158          1           0       13.558751    7.429529   -0.585166
 ---------------------------------------------------------------------

 SCF Done:  E(RPBE1PBE) =  -4067.38814924     A.U. after   16 cycles

 Excitation energies and oscillator strengths:

 Excited State   1:      Singlet-A      1.7536 eV  707.01 nm  f=0.0000  <S**2>=0.000
     312 -> 313        0.70710
 This state for optimization and/or second-order correction.
 Total Energy, E(TD-HF/TD-DFT) =  -4067.32370435
 Copying the excited state density for this state as the 1-particle RhoCI density.

 Excited State   2:      Singlet-A      1.8204 eV  681.09 nm  f=0.3648  <S**2>=0.000
     309 -> 316       -0.15128
     311 -> 313        0.70061
     311 <- 313       -0.12604

 Excited State   3:      Singlet-A      1.9095 eV  649.29 nm  f=0.3711  <S**2>=0.000
     310 -> 315        0.19439
     312 -> 314        0.68533

 Excited State   4:      Singlet-A      2.1810 eV  568.46 nm  f=0.0000  <S**2>=0.000
     311 -> 314        0.70710

 Excited State   5:      Singlet-A      2.2083 eV  561.45 nm  f=0.1047  <S**2>=0.000
     310 -> 314        0.65633
     312 -> 315       -0.25144

 The electronic state is 1-A.
 Alpha  occ. eigenvalues --  -46.92320 -46.91789 -19.25430 -19.25363 -19.20169
 Alpha  occ. eigenvalues --  -19.20023 -19.19537 -19.19512 -19.18641 -19.17787
 Alpha  occ. eigenvalues --  -14.41658 -14.41576 -14.41077 -14.41052 -14.39398
 Alpha  occ. eigenvalues --  -14.39301 -14.39205 -14.38640 -10.36022 -10.35517
 Alpha  occ. eigenvalues --  -10.33222 -10.33036 -10.32021 -10.31221 -10.29432
 Alpha  occ. eigenvalues --  -10.29109 -10.28560 -10.28455 -10.28430 -10.28372
 Alpha  occ. eigenvalues --  -10.28364 -10.28308 -10.28267 -10.28177 -10.28151
 Alpha  occ. eigenvalues --  -10.28095 -10.27982 -10.27961 -10.27641 -10.26863
 Alpha  occ. eigenvalues --  -10.26848 -10.26813 -10.26730 -10.26712 -10.26703
 Alpha  occ. eigenvalues --  -10.26667 -10.26383 -10.26053 -10.26015 -10.26002
 Alpha  occ. eigenvalues --  -10.25985 -10.25759 -10.25721 -10.25580 -10.25495
 Alpha  occ. eigenvalues --  -10.25447 -10.25419 -10.25369 -10.25353 -10.25268
 Alpha  occ. eigenvalues --  -10.25240 -10.25113 -10.25020 -10.24946 -10.24761
 Alpha  occ. eigenvalues --  -10.24679 -10.24583 -10.24563 -10.24409 -10.24368
 Alpha  occ. eigenvalues --  -10.24212 -10.24041 -10.23568 -10.23559 -10.23477
 Alpha  occ. eigenvalues --  -10.23458 -10.23405 -10.23172 -10.23141 -10.23101
 Alpha  occ. eigenvalues --  -10.23073 -10.22954 -10.22864 -10.22823 -10.22376
 Alpha  occ. eigenvalues --  -10.22187  -3.14557  -3.13979  -1.87367  -1.86928
 Alpha  occ. eigenvalues --   -1.86813  -1.86803  -1.86358  -1.86206  -1.11208
 Alpha  occ. eigenvalues --   -1.10251  -1.07089  -1.04877  -1.02272  -1.02006
 Alpha  occ. eigenvalues --   -1.01699  -1.01569  -0.99986  -0.99659  -0.98957
 Alpha  occ. eigenvalues --   -0.98593  -0.98338  -0.98247  -0.97156  -0.95312
 Alpha  occ. eigenvalues --   -0.87964  -0.86924  -0.83741  -0.83585  -0.83122
 Alpha  occ. eigenvalues --   -0.82568  -0.82368  -0.82012  -0.81799  -0.81795
 Alpha  occ. eigenvalues --   -0.81286  -0.81152  -0.81077  -0.80533  -0.78979
 Alpha  occ. eigenvalues --   -0.78298  -0.78179  -0.77703  -0.77411  -0.76550
 Alpha  occ. eigenvalues --   -0.76360  -0.75794  -0.75464  -0.75340  -0.75098
 Alpha  occ. eigenvalues --   -0.74561  -0.72889  -0.72737  -0.71736  -0.71686
 Alpha  occ. eigenvalues --   -0.71596  -0.70647  -0.70541  -0.70019  -0.69820
 Alpha  occ. eigenvalues --   -0.69152  -0.67758  -0.66675  -0.65878  -0.65357
 Alpha  occ. eigenvalues --   -0.63726  -0.63641  -0.63116  -0.63031  -0.62645
 Alpha  occ. eigenvalues --   -0.62550  -0.61403  -0.61323  -0.60166  -0.60082
 Alpha  occ. eigenvalues --   -0.59780  -0.59583  -0.59493  -0.59276  -0.58968
 Alpha  occ. eigenvalues --   -0.58611  -0.56568  -0.56117  -0.55400  -0.54454
 Alpha  occ. eigenvalues --   -0.54341  -0.53962  -0.53947  -0.53663  -0.53307
 Alpha  occ. eigenvalues --   -0.52888  -0.52875  -0.52437  -0.52352  -0.52128
 Alpha  occ. eigenvalues --   -0.50519  -0.50391  -0.50146  -0.50133  -0.49746
 Alpha  occ. eigenvalues --   -0.49414  -0.49198  -0.49076  -0.48728  -0.48547
 Alpha  occ. eigenvalues --   -0.48231  -0.47836  -0.47834  -0.47624  -0.47341
 Alpha  occ. eigenvalues --   -0.47302  -0.47135  -0.47038  -0.47005  -0.46728
 Alpha  occ. eigenvalues --   -0.46455  -0.46445  -0.46009  -0.45927  -0.45761
 Alpha  occ. eigenvalues --   -0.45568  -0.45520  -0.45417  -0.45264  -0.44886
 Alpha  occ. eigenvalues --   -0.44790  -0.44540  -0.44392  -0.44345  -0.44068
 Alpha  occ. eigenvalues --   -0.44025  -0.43852  -0.43686  -0.43554  -0.43434
 Alpha  occ. eigenvalues --   -0.43122  -0.43068  -0.42980  -0.42795  -0.42769
 Alpha  occ. eigenvalues --   -0.42507  -0.42445  -0.42424  -0.42279  -0.41943
 Alpha  occ. eigenvalues --   -0.41633  -0.41252  -0.41249  -0.41121  -0.41041
 Alpha  occ. eigenvalues --   -0.40988  -0.40877  -0.40715  -0.40690  -0.40352
 Alpha  occ. eigenvalues --   -0.40081  -0.39913  -0.39881  -0.39663  -0.39624
 Alpha  occ. eigenvalues --   -0.39517  -0.39250  -0.39167  -0.39044  -0.38891
 Alpha  occ. eigenvalues --   -0.38780  -0.38483  -0.38471  -0.38177  -0.38134
 Alpha  occ. eigenvalues --   -0.37870  -0.37861  -0.37752  -0.37632  -0.37558
 Alpha  occ. eigenvalues --   -0.37507  -0.37472  -0.37088  -0.37028  -0.36843
 Alpha  occ. eigenvalues --   -0.36585  -0.36449  -0.36369  -0.36261  -0.36124
 Alpha  occ. eigenvalues --   -0.36046  -0.35694  -0.35513  -0.35458  -0.35120
 Alpha  occ. eigenvalues --   -0.34688  -0.34649  -0.34357  -0.34293  -0.34210
 Alpha  occ. eigenvalues --   -0.33546  -0.33147  -0.33101  -0.32914  -0.32757
 Alpha  occ. eigenvalues --   -0.32586  -0.32236  -0.31939  -0.31486  -0.31453
 Alpha  occ. eigenvalues --   -0.31370  -0.30666  -0.29824  -0.29537  -0.29076
 Alpha  occ. eigenvalues --   -0.29067  -0.28653  -0.28553  -0.27204  -0.26936
 Alpha  occ. eigenvalues --   -0.26258  -0.26223  -0.25748  -0.25737  -0.25486
 Alpha  occ. eigenvalues --   -0.25360  -0.24931  -0.24708  -0.21229  -0.20587
 Alpha  occ. eigenvalues --   -0.19295  -0.18809
 Alpha virt. eigenvalues --   -0.11987  -0.10903  -0.05112  -0.04414  -0.04194
 Alpha virt. eigenvalues --   -0.03917  -0.02249  -0.02226  -0.01010  -0.00454
 Alpha virt. eigenvalues --   -0.00092   0.00907   0.00943   0.01534   0.01536

 Mulliken charges:
               1
     1  Mg  12.000000
     2  C    6.000000
     3  C    6.000000
     4  C    6.000000
     5  C    6.000000
     6  N    7.000000
     7  C    6.000000
     8  C    6.000000
     9  C    6.000000
    10  C    6.000000
    11  C    6.000000
    12  C    6.000000
    13  C    6.000000
    14  H    1.000000
    15  N    7.000000
    16  C    6.000000
    17  C    6.000000
    18  C    6.000000
    19  C    6.000000
    20  C    6.000000
    21  C    6.000000
    22  O    8.000000
    23  C    6.000000
    24  N    7.000000
    25  C    6.000000
    26  C    6.000000
    27  C    6.000000
    28  C    6.000000
    29  C    6.000000
    30  C    6.000000
    31  C    6.000000
    32  N    7.000000
    33  C    6.000000
    34  C    6.000000
    35  C    6.000000
    36  C    6.000000
    37  C    6.000000
    38  C    6.000000
    39  O    8.000000
    40  C    6.000000
    41  C    6.000000
    42  O    8.000000
    43  O    8.000000
    44  C    6.000000
    45  H    1.000000
    46  H    1.000000
    47  H    1.000000
    48  H    1.000000
    49  H    1.000000
    50  H    1.000000
    51  H    1.000000
    52  H    1.000000
    53  H    1.000000
    54  H    1.000000
    55  H    1.000000
    56  H    1.000000
    57  H    1.000000
    58  H    1.000000
    59  H    1.000000
    60  H    1.000000
    61  H    1.000000
    62  H    1.000000
    63  H    1.000000
    64  H    1.000000
    65  H    1.000000
    66  H    1.000000
    67  H    1.000000
    68  H    1.000000
    69  H    1.000000
    70  H    1.000000
    71  H    1.000000
    72  H    1.000000
    73  H    1.000000
    74  H    1.000000
    75  H    1.000000
    76  H    1.000000
    77  H    1.000000
    78  H    1.000000
    79  H    1.000000
    80  Mg  12.000000
    81  C    6.000000
    82  C    6.000000
    83  C    6.000000
    84  C    6.000000
    85  N    7.000000
    86  C    6.000000
    87  C    6.000000
    88  C    6.000000
    89  C    6.000000
    90  C    6.000000
    91  C    6.000000
    92  C    6.000000
    93  H    1.000000
    94  N    7.000000
    95  C    6.000000
    96  C    6.000000
    97  C    6.000000
    98  C    6.000000
    99  C    6.000000
   100  C    6.000000
   101  O    8.000000
   102  C    6.000000
   103  N    7.000000
   104  C    6.000000
   105  C    6.000000
   106  C    6.000000
   107  C    6.000000
   108  C    6.000000
   109  C    6.000000
   110  C    6.000000
   111  N    7.000000
   112  C    6.000000
   113  C    6.000000
   114  C    6.000000
   115  C    6.000000
   116  C    6.000000
   117  C    6.000000
   118  O    8.000000
   119  C    6.000000
   120  C    6.000000
   121  O    8.000000
   122  O    8.000000
   123  C    6.000000
   124  H    1.000000
   125  H    1.000000
   126  H    1.000000
   127  H    1.000000
   128  H    1.000000
   129  H    1.000000
   130  H    1.000000
   131  H    1.000000
   132  H    1.000000
   133  H    1.000000
   134  H    1.000000
   135  H    1.000000
   136  H    1.000000
   137  H    1.000000
   138  H    1.000000
   139  H    1.000000
   140  H    1.000000
   141  H    1.000000
   142  H    1.000000
   143  H    1.000000
   144  H    1.000000
   145  H    1.000000
   146  H    1.000000
   147  H    1.000000
   148  H    1.000000
   149  H    1.000000
   150  H    1.000000
   151  H    1.000000
   152  H    1.000000
   153  H    1.000000
   154  H    1.000000
   155  H    1.000000
   156  H    1.000000
   157  H    1.000000
   158  H    1.000000
 Sum of Mulliken charges = 624.00000

 Dipole moment (field-independent basis, Debye):
    X=              0.0000    Y=              0.0000    Z=              0.0000  Tot=              0.0000
 Quadrupole moment (field-independent basis, Debye-Ang):
   XX=              0.0000   YY=             -0.0000   ZZ=             -0.0000
   XY=             -0.0000   XZ=              0.0000   YZ=             -0.0000

 Normal termination of Gaussian 16 at Fri Oct 15 09:31:41 2021.
