 Gaussian 16, Revision A.03,
 Gaussian 16:  ES64L-G16RevA.03 25-Dec-2016

 --------------------------------------------------------
 #p PBE1PBE/Def2SVP td=(nstates=5) density=(transition=1)
 --------------------------------------------------------

 --------------------------------
 TDDFT excited states in gaussian
 --------------------------------
 Symbolic Z-matrix:
 Charge =  0 Multiplicity = 1

                         Standard orientation:
 ---------------------------------------------------------------------
 Center     Atomic      Atomic             Coordinates (Angstroms)
 Number     Number       Type             X           Y           Z
 ---------------------------------------------------------------------
      1         12           0        9.524546   -0.547342    0.461363
      2          6           0        8.818859    2.586919   -0.954510
      3          6           0        7.728323    0.382740    3.190989
      4          6           0        9.890290   -3.642165    1.453680
      5          6           0       10.589409   -1.481416   -2.849223
      6          7           0        8.485338    1.284777    1.040815
      7          6           0        8.302410    2.427536    0.314542
      8          6           0        7.228837    3.274229    1.014470
      9          6           0        7.374024    2.826638    2.464736
     10          6           0        7.803446    1.370739    2.200361
     11          6           0        8.461173    3.614248    3.231817
     12          6           0        5.795753    2.977409    0.436507
     13          6           0        5.040623    4.144187   -0.370712
     14          1           0        4.665616    3.911399   -1.844228
     15          7           0        8.849468   -1.518090    2.067822
     16          6           0        8.138902   -0.958303    3.104667
     17          6           0        8.021579   -1.934650    4.142172
     18          6           0        8.738986   -3.116280    3.760259
     19          6           0        9.202858   -2.818831    2.374104
     20          6           0        7.253612   -1.676782    5.483678
     21          6           0        8.952228   -4.374797    4.677456
     22          8           0        8.584805   -4.356711    5.811816
     23          6           0        9.841573   -5.429538    4.206400
     24          7           0        9.856786   -2.391814   -0.648879
     25          6           0       10.308808   -3.402363    0.131156
     26          6           0       11.282645   -4.322697   -0.585471
     27          6           0       11.204870   -3.852296   -2.029871
     28          6           0       10.490842   -2.467104   -1.854226
     29          6           0       12.744702   -4.237072   -0.010209
     30          6           0       10.485600   -4.774088   -3.123536
     31          6           0       11.262905   -5.511138   -4.180952
     32          7           0        9.877284    0.363231   -1.431344
     33          6           0       10.305358   -0.126608   -2.671938
     34          6           0       10.275412    0.900379   -3.690771
     35          6           0        9.725911    1.980586   -3.045032
     36          6           0        9.462439    1.640181   -1.677366
     37          6           0       10.673485    0.722767   -5.096795
     38          6           0        9.308745    3.362492   -3.226711
     39          8           0        9.431165    4.099741   -4.212720
     40          6           0        8.815391    3.837281   -1.876159
     41          6           0        9.723288    4.982042   -1.439938
     42          8           0       10.934974    4.815453   -1.320571
     43          8           0        9.019219    6.192377   -1.343381
     44          6           0        9.823742    7.324334   -0.968240
     45          1           0        7.282382    0.767574    4.110155
     46          1           0       10.270975   -4.541334    1.940561
     47          1           0       11.017898   -1.742949   -3.819204
     48          1           0        7.431961    4.313426    0.754587
     49          1           0        6.403802    2.931844    2.948627
     50          1           0        7.876854    3.880184    4.112005
     51          1           0        8.696240    4.459889    2.584881
     52          1           0        9.373946    3.074944    3.485275
     53          1           0        5.147065    2.755195    1.283723
     54          1           0        5.858077    2.055962   -0.141873
     55          1           0        5.748272    4.972981   -0.402439
     56          1           0        4.150153    4.534177    0.120865
     57          1           0        6.523179   -2.418336    5.805720
     58          1           0        6.735312   -0.727395    5.345148
     59          1           0        7.923870   -1.546398    6.333487
     60          1           0        9.544627   -5.878828    3.258489
     61          1           0        9.883192   -6.208233    4.967933
     62          1           0       10.875831   -5.089630    4.237924
     63          1           0       11.026122   -5.376267   -0.469709
     64          1           0       12.201255   -3.618366   -2.404868
     65          1           0       12.981671   -5.040420    0.687133
     66          1           0       12.927624   -3.232485    0.371135
     67          1           0       13.425519   -4.357859   -0.854047
     68          1           0        9.583178   -4.393686   -3.600894
     69          1           0       10.131707   -5.517827   -2.409099
     70          1           0       11.228259   -6.594478   -4.070160
     71          1           0       12.311780   -5.217369   -4.133568
     72          1           0       10.809292   -5.192083   -5.119042
     73          1           0       10.556852   -0.332918   -5.343303
     74          1           0       11.737906    0.957015   -5.129078
     75          1           0       10.136821    1.406728   -5.752689
     76          1           0        7.823243    4.220147   -2.111374
     77          1           0       10.079000    7.368974    0.090847
     78          1           0        9.328731    8.264783   -1.208719
     79          1           0       10.772713    7.396971   -1.498846
     80         12           0       -9.633260   -0.713642   -0.001125
     81          6           0       -8.850610    2.540168    0.776050
     82          6           0       -6.153744   -1.454096    0.064630
     83          6           0      -10.183312   -3.794961   -1.278852
     84          6           0      -12.872974    0.064398   -0.387837
     85          7           0       -7.718956    0.430498    0.376412
     86          6           0       -7.689686    1.768889    0.663139
     87          6           0       -6.265926    2.232731    0.978892
     88          6           0       -5.429043    0.945349    0.535455
     89          6           0       -6.485217   -0.095940    0.306591
     90          6           0       -4.456533    1.194561   -0.675254
     91          6           0       -6.039106    2.606713    2.514623
     92          6           0       -5.268409    3.829930    2.949543
     93          1           0       -3.959647    4.109694    2.300363
     94          7           0       -8.361917   -2.448719   -0.500296
     95          6           0       -7.045489   -2.601828   -0.237105
     96          6           0       -6.622022   -3.943615   -0.460114
     97          6           0       -7.796283   -4.673280   -0.828004
     98          6           0       -8.829424   -3.601380   -0.946279
     99          6           0       -5.170213   -4.269265   -0.317912
    100          6           0       -7.919986   -6.128337   -1.246858
    101          8           0       -8.926762   -6.571867   -1.807896
    102          6           0       -6.775402   -7.095425   -1.000084
    103          7           0      -11.294753   -1.704903   -0.891533
    104          6           0      -11.291593   -3.023413   -1.220991
    105          6           0      -12.707156   -3.505067   -1.534390
    106          6           0      -13.584601   -2.282693   -1.065700
    107          6           0      -12.530855   -1.238870   -0.752316
    108          6           0      -13.076438   -4.068919   -2.938275
    109          6           0      -14.623728   -2.555519    0.100572
    110          6           0      -14.237612   -2.312416    1.544235
    111          7           0      -10.662420    0.941804    0.052492
    112          6           0      -12.017005    1.156651    0.023882
    113          6           0      -12.375005    2.518920    0.182894
    114          6           0      -11.163900    3.107338    0.533410
    115          6           0      -10.162771    2.104742    0.461797
    116          6           0      -13.705891    3.258774    0.146838
    117          6           0      -10.520061    4.296938    0.883349
    118          8           0      -10.999044    5.411875    0.979482
    119          6           0       -8.920390    4.030985    1.053799
    120          6           0       -8.222920    4.868398    0.085747
    121          8           0       -8.292544    4.765623   -1.155049
    122          8           0       -7.486988    5.858031    0.657483
    123          6           0       -6.996924    6.954138   -0.185808
    124          1           0       -5.077641   -1.579824    0.198449
    125          1           0      -10.433363   -4.848713   -1.417133
    126          1           0      -13.917014    0.268520   -0.144313
    127          1           0       -6.073946    3.152454    0.424829
    128          1           0       -4.753404    0.618807    1.326194
    129          1           0       -3.445159    0.971332   -0.337294
    130          1           0       -4.655480    2.222743   -0.978013
    131          1           0       -4.567479    0.504418   -1.512162
    132          1           0       -5.519767    1.717163    2.871548
    133          1           0       -6.966799    2.517843    3.078958
    134          1           0       -5.184750    3.850394    4.036112
    135          1           0       -5.870177    4.678785    2.626871
    136          1           0       -5.149017   -5.196723    0.253176
    137          1           0       -4.663610   -3.521380    0.292612
    138          1           0       -4.608151   -4.386043   -1.245119
    139          1           0       -6.304821   -6.986297   -0.022527
    140          1           0       -6.116392   -7.112201   -1.869226
    141          1           0       -7.257470   -8.073081   -0.971495
    142          1           0      -12.804015   -4.395794   -0.913274
    143          1           0      -14.290551   -1.953791   -1.827376
    144          1           0      -13.722373   -3.369002   -3.468159
    145          1           0      -13.628541   -4.991334   -2.758953
    146          1           0      -12.127547   -4.235444   -3.446969
    147          1           0      -14.916758   -3.600759    0.011913
    148          1           0      -15.516097   -1.948205   -0.052590
    149          1           0      -14.436120   -3.183233    2.169478
    150          1           0      -14.739032   -1.453225    1.991713
    151          1           0      -13.167245   -2.108654    1.513747
    152          1           0      -14.509376    2.538187   -0.010442
    153          1           0      -13.679759    4.002693   -0.649804
    154          1           0      -13.843194    3.768083    1.100285
    155          1           0       -8.766520    4.435795    2.054496
    156          1           0       -6.788957    7.875095    0.359056
    157          1           0       -7.575357    7.147662   -1.088673
    158          1           0       -5.986040    6.657797   -0.466231
 ---------------------------------------------------------------------

 SCF Done:  E(RPBE1PBE) =  -4067.40513356     A.U. after   16 cycles

 Excitation energies and oscillator strengths:

 Excited State   1:      Singlet-A      1.8073 eV  686.01 nm  f=0.0000  <S**2>=0.000
     312 -> 313        0.70709
 This state for optimization and/or second-order correction.
 Total Energy, E(TD-HF/TD-DFT) =  -4067.33871585
 Copying the excited state density for this state as the 1-particle RhoCI density.

 Excited State   2:      Singlet-A      1.8761 eV  660.87 nm  f=0.3266  <S**2>=0.000
     309 -> 315        0.11178
     310 -> 316       -0.13536
     311 -> 313        0.54821
     312 -> 314        0.42270

 Excited State   3:      Singlet-A      1.8801 eV  659.45 nm  f=0.4125  <S**2>=0.000
     309 -> 315        0.14548
     310 -> 316        0.10575
     311 -> 313       -0.42451
     312 -> 314        0.54541

 Excited State   4:      Singlet-A      2.0025 eV  619.14 nm  f=0.0000  <S**2>=0.000
     311 -> 314        0.70708

 Excited State   5:      Singlet-A      2.2058 eV  562.08 nm  f=0.1644  <S**2>=0.000
     310 -> 313        0.67009
     311 -> 316        0.21435

 The electronic state is 1-A.
 Alpha  occ. eigenvalues --  -46.92485 -46.92197 -19.26754 -19.25685 -19.20867
 Alpha  occ. eigenvalues --  -19.19436 -19.19026 -19.19025 -19.18906 -19.18733
 Alpha  occ. eigenvalues --  -14.41757 -14.41714 -14.41605 -14.41024 -14.39198
 Alpha  occ. eigenvalues --  -14.39160 -14.39131 -14.39112 -10.37356 -10.35904
 Alpha  occ. eigenvalues --  -10.32420 -10.32340 -10.31751 -10.31717 -10.28993
 Alpha  occ. eigenvalues --  -10.28982 -10.28844 -10.28805 -10.28793 -10.28653
 Alpha  occ. eigenvalues --  -10.28517 -10.28508 -10.28459 -10.28179 -10.27769
 Alpha  occ. eigenvalues --  -10.27670 -10.27670 -10.27659 -10.27554 -10.27409
 Alpha  occ. eigenvalues --  -10.26960 -10.26722 -10.26345 -10.26282 -10.26095
 Alpha  occ. eigenvalues --  -10.26088 -10.26077 -10.26043 -10.25907 -10.25898
 Alpha  occ. eigenvalues --  -10.25843 -10.25818 -10.25800 -10.25776 -10.25730
 Alpha  occ. eigenvalues --  -10.25720 -10.25492 -10.25401 -10.25350 -10.25333
 Alpha  occ. eigenvalues --  -10.25124 -10.25117 -10.25035 -10.24871 -10.24668
 Alpha  occ. eigenvalues --  -10.24644 -10.24622 -10.24483 -10.24476 -10.24273
 Alpha  occ. eigenvalues --  -10.24238 -10.24185 -10.23873 -10.23869 -10.23856
 Alpha  occ. eigenvalues --  -10.23706 -10.23523 -10.23468 -10.23377 -10.23211
 Alpha  occ. eigenvalues --  -10.23185 -10.23144 -10.22886 -10.22809 -10.22437
 Alpha  occ. eigenvalues --  -10.22398  -3.14673  -3.14385  -1.87497  -1.87199
 Alpha  occ. eigenvalues --   -1.87008  -1.86946  -1.86775  -1.86608  -1.10796
 Alpha  occ. eigenvalues --   -1.10603  -1.06829  -1.04699  -1.04109  -1.03882
 Alpha  occ. eigenvalues --   -1.03091  -1.00608  -1.00075  -0.99498  -0.99305
 Alpha  occ. eigenvalues --   -0.99006  -0.98761  -0.98112  -0.97606  -0.96901
 Alpha  occ. eigenvalues --   -0.87487  -0.86977  -0.83554  -0.83395  -0.83300
 Alpha  occ. eigenvalues --   -0.82977  -0.82518  -0.82445  -0.82156  -0.82030
 Alpha  occ. eigenvalues --   -0.81670  -0.81568  -0.80718  -0.79450  -0.78968
 Alpha  occ. eigenvalues --   -0.78622  -0.78567  -0.78024  -0.76938  -0.76924
 Alpha  occ. eigenvalues --   -0.76879  -0.75989  -0.75482  -0.75481  -0.75299
 Alpha  occ. eigenvalues --   -0.74588  -0.72646  -0.72450  -0.71784  -0.71637
 Alpha  occ. eigenvalues --   -0.71391  -0.70814  -0.70711  -0.70535  -0.69831
 Alpha  occ. eigenvalues --   -0.69573  -0.67996  -0.67425  -0.66712  -0.65973
 Alpha  occ. eigenvalues --   -0.64005  -0.63632  -0.63511  -0.63143  -0.62627
 Alpha  occ. eigenvalues --   -0.62553  -0.61522  -0.61351  -0.60372  -0.60201
 Alpha  occ. eigenvalues --   -0.60028  -0.59665  -0.59527  -0.59221  -0.59137
 Alpha  occ. eigenvalues --   -0.58752  -0.57379  -0.56833  -0.54873  -0.54730
 Alpha  occ. eigenvalues --   -0.54702  -0.54393  -0.53850  -0.53637  -0.53598
 Alpha  occ. eigenvalues --   -0.53065  -0.52855  -0.52426  -0.52398  -0.51870
 Alpha  occ. eigenvalues --   -0.50967  -0.50830  -0.50790  -0.49901  -0.49854
 Alpha  occ. eigenvalues --   -0.49569  -0.49487  -0.49318  -0.48680  -0.48594
 Alpha  occ. eigenvalues --   -0.48241  -0.47845  -0.47803  -0.47753  -0.47731
 Alpha  occ. eigenvalues --   -0.47557  -0.47279  -0.47217  -0.47106  -0.46864
 Alpha  occ. eigenvalues --   -0.46744  -0.46599  -0.46421  -0.45974  -0.45735
 Alpha  occ. eigenvalues --   -0.45599  -0.45374  -0.45230  -0.45044  -0.44870
 Alpha  occ. eigenvalues --   -0.44807  -0.44581  -0.44451  -0.44253  -0.44137
 Alpha  occ. eigenvalues --   -0.44016  -0.43862  -0.43787  -0.43654  -0.43417
 Alpha  occ. eigenvalues --   -0.43401  -0.43357  -0.43155  -0.43109  -0.42855
 Alpha  occ. eigenvalues --   -0.42794  -0.42514  -0.42358  -0.42113  -0.41944
 Alpha  occ. eigenvalues --   -0.41802  -0.41581  -0.41413  -0.41195  -0.41134
 Alpha  occ. eigenvalues --   -0.41118  -0.40973  -0.40916  -0.40841  -0.40704
 Alpha  occ. eigenvalues --   -0.40594  -0.40254  -0.40111  -0.40082  -0.39751
 Alpha  occ. eigenvalues --   -0.39325  -0.39219  -0.39177  -0.39105  -0.38822
 Alpha  occ. eigenvalues --   -0.38758  -0.38750  -0.38501  -0.38378  -0.38259
 Alpha  occ. eigenvalues --   -0.38186  -0.38019  -0.37952  -0.37723  -0.37499
 Alpha  occ. eigenvalues --   -0.37350  -0.37141  -0.37109  -0.36942  -0.36764
 Alpha  occ. eigenvalues --   -0.36664  -0.36559  -0.36554  -0.36352  -0.36174
 Alpha  occ. eigenvalues --   -0.36135  -0.35990  -0.35924  -0.35720  -0.35450
 Alpha  occ. eigenvalues --   -0.35390  -0.35063  -0.34945  -0.34738  -0.34471
 Alpha  occ. eigenvalues --   -0.34002  -0.33420  -0.33192  -0.33100  -0.32601
 Alpha  occ. eigenvalues --   -0.32321  -0.32160  -0.31835  -0.31714  -0.31661
 Alpha  occ. eigenvalues --   -0.31101  -0.30569  -0.30028  -0.29806  -0.29727
 Alpha  occ. eigenvalues --   -0.29122  -0.28624  -0.27988  -0.27073  -0.26966
 Alpha  occ. eigenvalues --   -0.26520  -0.26239  -0.26102  -0.25960  -0.25685
 Alpha  occ. eigenvalues --   -0.25533  -0.25387  -0.25381  -0.21403  -0.20808
 Alpha  occ. eigenvalues --   -0.19054  -0.18788
 Alpha virt. eigenvalues --   -0.11446  -0.10997  -0.05761  -0.04763  -0.03920
 Alpha virt. eigenvalues --   -0.03819  -0.01994  -0.01911  -0.00984  -0.00955
 Alpha virt. eigenvalues --   -0.00451   0.00171   0.00631   0.01630   0.01835

 Mulliken charges:
               1
     1  Mg  12.000000
     2  C    6.000000
     3  C    6.000000
     4  C    6.000000
     5  C    6.000000
     6  N    7.000000
     7  C    6.000000
     8  C    6.000000
     9  C    6.000000
    10  C    6.000000
    11  C    6.000000
    12  C    6.000000
    13  C    6.000000
    14  H    1.000000
    15  N    7.000000
    16  C    6.000000
    17  C    6.000000
    18  C    6.000000
    19  C    6.000000
    20  C    6.000000
    21  C    6.000000
    22  O    8.000000
    23  C    6.000000
    24  N    7.000000
    25  C    6.000000
    26  C    6.000000
    27  C    6.000000
    28  C    6.000000
    29  C    6.000000
    30  C    6.000000
    31  C    6.000000
    32  N    7.000000
    33  C    6.000000
    34  C    6.000000
    35  C    6.000000
    36  C    6.000000
    37  C    6.000000
    38  C    6.000000
    39  O    8.000000
    40  C    6.000000
    41  C    6.000000
    42  O    8.000000
    43  O    8.000000
    44  C    6.000000
    45  H    1.000000
    46  H    1.000000
    47  H    1.000000
    48  H    1.000000
    49  H    1.000000
    50  H    1.000000
    51  H    1.000000
    52  H    1.000000
    53  H    1.000000
    54  H    1.000000
    55  H    1.000000
    56  H    1.000000
    57  H    1.000000
    58  H    1.000000
    59  H    1.000000
    60  H    1.000000
    61  H    1.000000
    62  H    1.000000
    63  H    1.000000
    64  H    1.000000
    65  H    1.000000
    66  H    1.000000
    67  H    1.000000
    68  H    1.000000
    69  H    1.000000
    70  H    1.000000
    71  H    1.000000
    72  H    1.000000
    73  H    1.000000
    74  H    1.000000
    75  H    1.000000
    76  H    1.000000
    77  H    1.000000
    78  H    1.000000
    79  H    1.000000
    80  Mg  12.000000
    81  C    6.000000
    82  C    6.000000
    83  C    6.000000
    84  C    6.000000
    85  N    7.000000
    86  C    6.000000
    87  C    6.000000
    88  C    6.000000
    89  C    6.000000
    90  C    6.000000
    91  C    6.000000
    92  C    6.000000
    93  H    1.000000
    94  N    7.000000
    95  C    6.000000
    96  C    6.000000
    97  C    6.000000
    98  C    6.000000
    99  C    6.000000
   100  C    6.000000
   101  O    8.000000
   102  C    6.000000
   103  N    7.000000
   104  C    6.000000
   105  C    6.000000
   106  C    6.000000
   107  C    6.000000
   108  C    6.000000
   109  C    6.000000
   110  C    6.000000
   111  N    7.000000
   112  C    6.000000
   113  C    6.000000
   114  C    6.000000
   115  C    6.000000
   116  C    6.000000
   117  C    6.000000
   118  O    8.000000
   119  C    6.000000
   120  C    6.000000
   121  O    8.000000
   122  O    8.000000
   123  C    6.000000
   124  H    1.000000
   125  H    1.000000
   126  H    1.000000
   127  H    1.000000
   128  H    1.000000
   129  H    1.000000
   130  H    1.000000
   131  H    1.000000
   132  H    1.000000
   133  H    1.000000
   134  H    1.000000
   135  H    1.000000
   136  H    1.000000
   137  H    1.000000
   138  H    1.000000
   139  H    1.000000
   140  H    1.000000
   141  H    1.000000
   142  H    1.000000
   143  H    1.000000
   144  H    1.000000
   145  H    1.000000
   146  H    1.000000
   147  H    1.000000
   148  H    1.000000
   149  H    1.000000
   150  H    1.000000
   151  H    1.000000
   152  H    1.000000
   153  H    1.000000
   154  H    1.000000
   155  H    1.000000
   156  H    1.000000
   157  H    1.000000
   158  H    1.000000
 Sum of Mulliken charges = 624.00000

 Dipole moment (field-independent basis, Debye):
    X=              0.0000    Y=              0.0000    Z=             -0.0000  Tot=              0.0000
 Quadrupole moment (field-independent basis, Debye-Ang):
   XX=             -0.0000   YY=              0.0000   ZZ=              0.0000
   XY=              0.0000   XZ=             -0.0000   YZ=              0.0000

 Normal termination of Gaussian 16 at Fri Oct 15 17:06:01 2021.
