 Gaussian 16, Revision A.03,
 Gaussian 16:  ES64L-G16RevA.03 25-Dec-2016

 --------------------------------------------------------
 #p PBE1PBE/Def2SVP td=(nstates=5) density=(transition=1)
 --------------------------------------------------------

 --------------------------------
 TDDFT excited states in gaussian
 --------------------------------
 Symbolic Z-matrix:
 Charge =  0 Multiplicity = 1

                         Standard orientation:
 ---------------------------------------------------------------------
 Center     Atomic      Atomic             Coordinates (Angstroms)
 Number     Number       Type             X           Y           Z
 ---------------------------------------------------------------------
      1         12           0       25.217577   -0.637844    0.198702
      2          6           0       24.289683    2.681229    0.795109
      3          6           0       26.321885    0.436598   -2.910007
      4          6           0       25.688585   -3.769938   -0.535742
      5          6           0       23.805829   -1.494712    3.331819
      6          7           0       24.928337    1.305267   -1.109547
      7          6           0       24.682650    2.505463   -0.574207
      8          6           0       24.910855    3.530984   -1.633867
      9          6           0       25.137243    2.722456   -2.934867
     10          6           0       25.521288    1.395491   -2.310785
     11          6           0       24.011793    2.603827   -3.964068
     12          6           0       26.128265    4.451366   -1.302701
     13          6           0       25.956968    6.001346   -1.406619
     14          1           0       24.942008    6.587302   -2.437110
     15          7           0       26.065809   -1.548220   -1.473266
     16          6           0       26.617822   -0.873702   -2.554224
     17          6           0       27.212031   -1.865324   -3.390394
     18          6           0       26.931745   -3.155670   -2.785422
     19          6           0       26.215965   -2.892327   -1.545989
     20          6           0       27.889576   -1.577390   -4.748012
     21          6           0       27.230188   -4.588870   -3.312105
     22          8           0       26.938073   -5.591279   -2.740914
     23          6           0       28.003533   -4.669920   -4.613548
     24          7           0       24.805864   -2.346848    1.275047
     25          6           0       25.041410   -3.552812    0.711531
     26          6           0       24.669034   -4.756793    1.620012
     27          6           0       24.318138   -3.984911    2.963883
     28          6           0       24.325866   -2.519164    2.546311
     29          6           0       23.455405   -5.628622    0.953939
     30          6           0       25.224607   -4.381361    4.171337
     31          6           0       26.398634   -3.478197    4.504358
     32          7           0       24.258997    0.342467    1.825831
     33          6           0       23.832900   -0.118038    3.042355
     34          6           0       23.313847    1.054318    3.830699
     35          6           0       23.485716    2.160951    2.968704
     36          6           0       24.029797    1.694806    1.726248
     37          6           0       22.592821    1.030550    5.151060
     38          6           0       23.299417    3.603632    2.834442
     39          8           0       22.818251    4.386959    3.658123
     40          6           0       23.957376    3.982162    1.510863
     41          6           0       22.942566    4.808773    0.774286
     42          8           0       21.976354    4.367306    0.179683
     43          8           0       23.216202    6.067469    1.075681
     44          6           0       22.183436    7.067734    0.855692
     45          1           0       26.537397    0.738728   -3.936550
     46          1           0       26.002351   -4.804943   -0.684556
     47          1           0       23.384447   -1.758374    4.304442
     48          1           0       24.026214    4.163455   -1.700845
     49          1           0       25.937518    3.234322   -3.469492
     50          1           0       23.093480    3.147986   -3.742687
     51          1           0       23.747321    1.556724   -4.114107
     52          1           0       24.419308    2.987560   -4.899104
     53          1           0       27.042046    4.168835   -1.825047
     54          1           0       26.276820    4.168174   -0.260759
     55          1           0       26.956523    6.346944   -1.673351
     56          1           0       25.690712    6.387125   -0.422885
     57          1           0       27.490881   -2.179255   -5.564712
     58          1           0       28.940611   -1.866543   -4.755550
     59          1           0       27.863467   -0.530424   -5.053021
     60          1           0       28.911824   -4.067054   -4.604069
     61          1           0       27.326164   -4.398747   -5.423420
     62          1           0       28.215925   -5.709375   -4.863524
     63          1           0       25.505376   -5.438195    1.775006
     64          1           0       23.326821   -4.225456    3.347719
     65          1           0       22.591017   -5.407267    1.580130
     66          1           0       23.578797   -6.705463    1.071335
     67          1           0       23.178491   -5.310236   -0.051708
     68          1           0       25.696946   -5.308289    3.845763
     69          1           0       24.650784   -4.588902    5.074298
     70          1           0       26.835111   -3.246379    3.532075
     71          1           0       27.008597   -4.142988    5.115547
     72          1           0       26.239928   -2.496125    4.949092
     73          1           0       22.339139    0.066254    5.591483
     74          1           0       21.646349    1.562005    5.050816
     75          1           0       23.201883    1.642863    5.815308
     76          1           0       24.790744    4.679626    1.597646
     77          1           0       21.184590    6.762843    0.545165
     78          1           0       22.577414    7.630267    0.008707
     79          1           0       22.332576    7.872278    1.575913
     80         12           0      -24.350367   -0.808576    0.104804
     81          6           0      -25.981978    2.352609    0.528578
     82          6           0      -22.781357    0.633610   -2.706224
     83          6           0      -23.340647   -3.770308   -0.850589
     84          6           0      -26.246121   -2.073969    2.628168
     85          7           0      -24.364636    1.273871   -0.903478
     86          6           0      -25.031439    2.358635   -0.440922
     87          6           0      -24.594373    3.574467   -1.241274
     88          6           0      -23.542030    3.108466   -2.286540
     89          6           0      -23.520908    1.605529   -1.947547
     90          6           0      -23.943101    3.470317   -3.826101
     91          6           0      -23.974848    4.719626   -0.330986
     92          6           0      -24.491893    6.138582   -0.570094
     93          1           0      -24.920599    6.617129   -2.015101
     94          7           0      -23.249484   -1.488143   -1.596951
     95          6           0      -22.709389   -0.761595   -2.552351
     96          6           0      -22.046639   -1.662155   -3.453019
     97          6           0      -22.032504   -2.969995   -2.905320
     98          6           0      -22.910961   -2.793517   -1.778687
     99          6           0      -21.208426   -1.178922   -4.635409
    100          6           0      -21.283950   -4.252234   -3.233825
    101          8           0      -21.484026   -5.303555   -2.653557
    102          6           0      -20.218903   -4.143800   -4.290167
    103          7           0      -25.030419   -2.679936    0.586911
    104          6           0      -24.278398   -3.784417    0.182332
    105          6           0      -24.539615   -5.048389    1.045838
    106          6           0      -25.344188   -4.383446    2.225613
    107          6           0      -25.562966   -2.931934    1.799028
    108          6           0      -25.290547   -6.117132    0.238466
    109          6           0      -24.542930   -4.356805    3.612175
    110          6           0      -24.950835   -5.306776    4.687896
    111          7           0      -25.704005   -0.042865    1.391148
    112          6           0      -26.425852   -0.704746    2.360783
    113          6           0      -27.428694    0.144083    2.998787
    114          6           0      -27.291701    1.397234    2.301631
    115          6           0      -26.339438    1.190496    1.275797
    116          6           0      -28.187179   -0.231694    4.220029
    117          6           0      -27.706613    2.791194    2.266116
    118          8           0      -28.513952    3.353918    3.027937
    119          6           0      -26.871932    3.497461    1.052899
    120          6           0      -27.888075    3.941303    0.111834
    121          8           0      -28.710612    3.205151   -0.387628
    122          8           0      -27.788107    5.252612   -0.136042
    123          6           0      -28.751206    5.973180   -1.026534
    124          1           0      -22.212353    1.047579   -3.541176
    125          1           0      -22.744401   -4.685582   -0.827667
    126          1           0      -26.769706   -2.502634    3.484918
    127          1           0      -25.472995    3.936771   -1.775019
    128          1           0      -22.593692    3.633952   -2.172923
    129          1           0      -24.647081    4.301915   -3.858494
    130          1           0      -24.366262    2.548497   -4.226046
    131          1           0      -23.044028    3.715126   -4.391407
    132          1           0      -22.886668    4.764223   -0.320838
    133          1           0      -24.227379    4.523056    0.710908
    134          1           0      -23.787270    6.888691   -0.210389
    135          1           0      -25.334539    6.203183    0.118302
    136          1           0      -20.139987   -1.114765   -4.428771
    137          1           0      -21.612720   -0.262944   -5.067313
    138          1           0      -21.357918   -1.912050   -5.427725
    139          1           0      -19.605423   -3.243664   -4.241117
    140          1           0      -20.585363   -4.185432   -5.314923
    141          1           0      -19.443928   -4.882398   -4.085087
    142          1           0      -23.568469   -5.437648    1.350320
    143          1           0      -26.270546   -4.943470    2.354091
    144          1           0      -25.357333   -5.912438   -0.829967
    145          1           0      -26.323827   -6.218111    0.568623
    146          1           0      -24.803669   -7.082237    0.382322
    147          1           0      -24.552481   -3.396536    4.127793
    148          1           0      -23.469636   -4.486429    3.478082
    149          1           0      -24.142618   -6.005808    4.899105
    150          1           0      -25.811099   -5.814222    4.250985
    151          1           0      -25.187536   -4.766763    5.604612
    152          1           0      -28.363373    0.632531    4.859575
    153          1           0      -27.643776   -1.061225    4.672083
    154          1           0      -29.153455   -0.608025    3.881421
    155          1           0      -26.306527    4.360980    1.400666
    156          1           0      -29.770879    5.735197   -0.723093
    157          1           0      -28.642437    5.694351   -2.074927
    158          1           0      -28.570277    7.045780   -1.090820
 ---------------------------------------------------------------------

 SCF Done:  E(RPBE1PBE) =  -4067.36971631     A.U. after   16 cycles

 Excitation energies and oscillator strengths:

 Excited State   1:      Singlet-A      1.8475 eV  671.09 nm  f=0.3879  <S**2>=0.000
     309 -> 316        0.16133
     312 -> 313        0.69525
     312 <- 313       -0.11633
 This state for optimization and/or second-order correction.
 Total Energy, E(TD-HF/TD-DFT) =  -4067.30182160
 Copying the excited state density for this state as the 1-particle RhoCI density.

 Excited State   2:      Singlet-A      1.8764 eV  660.75 nm  f=0.3886  <S**2>=0.000
     310 -> 315       -0.18226
     311 -> 314        0.69072
     311 <- 314       -0.10329

 Excited State   3:      Singlet-A      1.9925 eV  622.27 nm  f=0.0000  <S**2>=0.000
     311 -> 313        0.70711

 Excited State   4:      Singlet-A      1.9958 eV  621.24 nm  f=0.0000  <S**2>=0.000
     312 -> 314        0.70711

 Excited State   5:      Singlet-A      2.2073 eV  561.70 nm  f=0.0985  <S**2>=0.000
     309 -> 313        0.65550
     312 -> 316       -0.23060

 The electronic state is 1-A.
 Alpha  occ. eigenvalues --  -46.92198 -46.92028 -19.26829 -19.25834 -19.19773
 Alpha  occ. eigenvalues --  -19.19717 -19.19411 -19.19265 -19.19005 -19.18676
 Alpha  occ. eigenvalues --  -14.41408 -14.41368 -14.41267 -14.41002 -14.39085
 Alpha  occ. eigenvalues --  -14.38897 -14.38711 -14.38552 -10.36050 -10.35421
 Alpha  occ. eigenvalues --  -10.32883 -10.32648 -10.32416 -10.31812 -10.29710
 Alpha  occ. eigenvalues --  -10.29233 -10.29076 -10.28857 -10.28699 -10.28686
 Alpha  occ. eigenvalues --  -10.28524 -10.28247 -10.28126 -10.27963 -10.27636
 Alpha  occ. eigenvalues --  -10.27471 -10.27317 -10.27315 -10.26968 -10.26963
 Alpha  occ. eigenvalues --  -10.26917 -10.26849 -10.26776 -10.26678 -10.26332
 Alpha  occ. eigenvalues --  -10.26227 -10.26172 -10.26027 -10.26018 -10.25896
 Alpha  occ. eigenvalues --  -10.25889 -10.25812 -10.25774 -10.25682 -10.25635
 Alpha  occ. eigenvalues --  -10.25509 -10.25422 -10.25422 -10.24900 -10.24858
 Alpha  occ. eigenvalues --  -10.24733 -10.24696 -10.24610 -10.24344 -10.24337
 Alpha  occ. eigenvalues --  -10.24306 -10.24280 -10.24252 -10.24076 -10.23968
 Alpha  occ. eigenvalues --  -10.23933 -10.23905 -10.23794 -10.23775 -10.23555
 Alpha  occ. eigenvalues --  -10.23517 -10.23478 -10.23323 -10.23323 -10.23308
 Alpha  occ. eigenvalues --  -10.23284 -10.22963 -10.22920 -10.22654 -10.22477
 Alpha  occ. eigenvalues --  -10.22444  -3.14238  -3.14233  -1.87087  -1.87038
 Alpha  occ. eigenvalues --   -1.86648  -1.86613  -1.86466  -1.86421  -1.13045
 Alpha  occ. eigenvalues --   -1.11272  -1.06311  -1.05558  -1.04139  -1.03372
 Alpha  occ. eigenvalues --   -1.03171  -1.02129  -0.99619  -0.99343  -0.98416
 Alpha  occ. eigenvalues --   -0.98151  -0.97738  -0.97198  -0.96707  -0.96567
 Alpha  occ. eigenvalues --   -0.87589  -0.86493  -0.83039  -0.82932  -0.82881
 Alpha  occ. eigenvalues --   -0.82585  -0.82425  -0.82344  -0.81444  -0.81441
 Alpha  occ. eigenvalues --   -0.81272  -0.80754  -0.80451  -0.79877  -0.78766
 Alpha  occ. eigenvalues --   -0.78514  -0.78413  -0.78008  -0.76916  -0.76897
 Alpha  occ. eigenvalues --   -0.75990  -0.75761  -0.75599  -0.75131  -0.75028
 Alpha  occ. eigenvalues --   -0.74320  -0.72571  -0.72258  -0.71974  -0.71630
 Alpha  occ. eigenvalues --   -0.71352  -0.71171  -0.70616  -0.70558  -0.69523
 Alpha  occ. eigenvalues --   -0.69221  -0.67103  -0.66947  -0.66210  -0.65881
 Alpha  occ. eigenvalues --   -0.63888  -0.63331  -0.63167  -0.62399  -0.62232
 Alpha  occ. eigenvalues --   -0.62054  -0.61319  -0.60641  -0.59953  -0.59743
 Alpha  occ. eigenvalues --   -0.59583  -0.59467  -0.59215  -0.59195  -0.59017
 Alpha  occ. eigenvalues --   -0.58893  -0.57322  -0.57003  -0.55039  -0.54424
 Alpha  occ. eigenvalues --   -0.54214  -0.53783  -0.53734  -0.53428  -0.53124
 Alpha  occ. eigenvalues --   -0.53096  -0.52590  -0.52398  -0.51990  -0.51888
 Alpha  occ. eigenvalues --   -0.51413  -0.50676  -0.50600  -0.50180  -0.49750
 Alpha  occ. eigenvalues --   -0.49505  -0.49401  -0.49226  -0.48856  -0.48173
 Alpha  occ. eigenvalues --   -0.48116  -0.47967  -0.47856  -0.47563  -0.47473
 Alpha  occ. eigenvalues --   -0.47403  -0.47225  -0.47020  -0.46877  -0.46688
 Alpha  occ. eigenvalues --   -0.46538  -0.46298  -0.45933  -0.45899  -0.45788
 Alpha  occ. eigenvalues --   -0.45768  -0.45516  -0.45136  -0.45006  -0.44742
 Alpha  occ. eigenvalues --   -0.44677  -0.44519  -0.44303  -0.43983  -0.43803
 Alpha  occ. eigenvalues --   -0.43779  -0.43698  -0.43489  -0.43368  -0.43294
 Alpha  occ. eigenvalues --   -0.43200  -0.43092  -0.43071  -0.42842  -0.42795
 Alpha  occ. eigenvalues --   -0.42675  -0.42420  -0.42020  -0.41948  -0.41574
 Alpha  occ. eigenvalues --   -0.41440  -0.41279  -0.41159  -0.40915  -0.40872
 Alpha  occ. eigenvalues --   -0.40842  -0.40723  -0.40667  -0.40639  -0.40400
 Alpha  occ. eigenvalues --   -0.40285  -0.40030  -0.39957  -0.39880  -0.39707
 Alpha  occ. eigenvalues --   -0.39589  -0.39266  -0.39202  -0.39072  -0.38658
 Alpha  occ. eigenvalues --   -0.38500  -0.38426  -0.38153  -0.38148  -0.38061
 Alpha  occ. eigenvalues --   -0.37946  -0.37761  -0.37731  -0.37647  -0.37567
 Alpha  occ. eigenvalues --   -0.37370  -0.37238  -0.37043  -0.36701  -0.36564
 Alpha  occ. eigenvalues --   -0.36531  -0.36409  -0.36293  -0.36191  -0.36116
 Alpha  occ. eigenvalues --   -0.36014  -0.35909  -0.35581  -0.35444  -0.35190
 Alpha  occ. eigenvalues --   -0.35163  -0.34658  -0.34561  -0.34296  -0.34190
 Alpha  occ. eigenvalues --   -0.33343  -0.33293  -0.32915  -0.32198  -0.32153
 Alpha  occ. eigenvalues --   -0.31998  -0.31748  -0.31479  -0.31338  -0.31263
 Alpha  occ. eigenvalues --   -0.31210  -0.31195  -0.29650  -0.29469  -0.29120
 Alpha  occ. eigenvalues --   -0.28736  -0.28551  -0.28325  -0.26884  -0.26503
 Alpha  occ. eigenvalues --   -0.26459  -0.26036  -0.25835  -0.25566  -0.25429
 Alpha  occ. eigenvalues --   -0.25391  -0.25050  -0.24757  -0.20764  -0.20737
 Alpha  occ. eigenvalues --   -0.18727  -0.18602
 Alpha virt. eigenvalues --   -0.11140  -0.11002  -0.05029  -0.04710  -0.04048
 Alpha virt. eigenvalues --   -0.03964  -0.02328  -0.01636  -0.00998  -0.00009
 Alpha virt. eigenvalues --    0.00699   0.01063   0.01108   0.01199   0.01422

 Mulliken charges:
               1
     1  Mg  12.000010
     2  C    6.000018
     3  C    6.000042
     4  C    6.000019
     5  C    5.999976
     6  N    7.000039
     7  C    5.999940
     8  C    6.000007
     9  C    5.999992
    10  C    6.000014
    11  C    5.999989
    12  C    6.000021
    13  C    5.999998
    14  H    1.000017
    15  N    6.999986
    16  C    6.000028
    17  C    6.000017
    18  C    6.000013
    19  C    6.000067
    20  C    5.999994
    21  C    6.000050
    22  O    8.000050
    23  C    5.999978
    24  N    6.999984
    25  C    6.000055
    26  C    5.999970
    27  C    6.000015
    28  C    6.000001
    29  C    5.999983
    30  C    6.000010
    31  C    6.000015
    32  N    7.000009
    33  C    5.999956
    34  C    5.999933
    35  C    6.000030
    36  C    5.999935
    37  C    6.000010
    38  C    5.999959
    39  O    7.999907
    40  C    5.999988
    41  C    5.999978
    42  O    8.000024
    43  O    7.999993
    44  C    6.000018
    45  H    1.000012
    46  H    1.000008
    47  H    0.999990
    48  H    1.000013
    49  H    0.999992
    50  H    1.000053
    51  H    1.000013
    52  H    1.000006
    53  H    0.999950
    54  H    1.000000
    55  H    0.999964
    56  H    0.999998
    57  H    1.000052
    58  H    1.000016
    59  H    1.000042
    60  H    0.999994
    61  H    1.000042
    62  H    1.000038
    63  H    0.999987
    64  H    1.000015
    65  H    1.000053
    66  H    1.000014
    67  H    1.000019
    68  H    0.999971
    69  H    0.999996
    70  H    0.999980
    71  H    0.999965
    72  H    1.000007
    73  H    0.999956
    74  H    0.999978
    75  H    0.999931
    76  H    0.999952
    77  H    1.000017
    78  H    0.999975
    79  H    0.999966
    80  Mg  12.002083
    81  C    5.981071
    82  C    6.007636
    83  C    6.024726
    84  C    5.994435
    85  N    6.991801
    86  C    6.024004
    87  C    5.990595
    88  C    6.013076
    89  C    5.969241
    90  C    6.000642
    91  C    5.998965
    92  C    5.999248
    93  H    1.006718
    94  N    7.004213
    95  C    5.967053
    96  C    5.974156
    97  C    5.989024
    98  C    5.967565
    99  C    6.002898
   100  C    5.986270
   101  O    7.973588
   102  C    6.007278
   103  N    7.008616
   104  C    5.958448
   105  C    6.009981
   106  C    5.991931
   107  C    6.026043
   108  C    6.003074
   109  C    5.992119
   110  C    5.999773
   111  N    7.002717
   112  C    6.028879
   113  C    6.037764
   114  C    5.998718
   115  C    6.031573
   116  C    5.997491
   117  C    6.015412
   118  O    8.026781
   119  C    6.006308
   120  C    6.004933
   121  O    8.002492
   122  O    8.002017
   123  C    5.998057
   124  H    0.989435
   125  H    0.994633
   126  H    1.011365
   127  H    0.999599
   128  H    0.994710
   129  H    0.987419
   130  H    1.001557
   131  H    0.999753
   132  H    1.007934
   133  H    0.992416
   134  H    1.002046
   135  H    0.994020
   136  H    0.979486
   137  H    0.983534
   138  H    0.984016
   139  H    0.995181
   140  H    0.990722
   141  H    0.986230
   142  H    1.000397
   143  H    1.002828
   144  H    1.004623
   145  H    0.988802
   146  H    0.997532
   147  H    0.994954
   148  H    1.012747
   149  H    1.006723
   150  H    1.002499
   151  H    0.998121
   152  H    1.017089
   153  H    1.017374
   154  H    1.022508
   155  H    1.008708
   156  H    1.000583
   157  H    1.006387
   158  H    1.004656
 Sum of Mulliken charges = 624.00000

 Dipole moment (field-independent basis, Debye):
    X=             -6.6833    Y=              3.3330    Z=              7.4139  Tot=             10.5234
 Quadrupole moment (field-independent basis, Debye-Ang):
   XX=            330.7200   YY=             -4.0420   ZZ=             -2.7152
   XY=            -78.9836   XZ=           -181.6315   YZ=             -7.8687

 Normal termination of Gaussian 16 at Fri Oct 15 18:34:48 2021.
