 Gaussian 16, Revision A.03,
 Gaussian 16:  ES64L-G16RevA.03 25-Dec-2016

 --------------------------------------------------------
 #p PBE1PBE/Def2SVP td=(nstates=5) density=(transition=1)
 --------------------------------------------------------

 --------------------------------
 TDDFT excited states in gaussian
 --------------------------------
 Symbolic Z-matrix:
 Charge =  0 Multiplicity = 1

                         Standard orientation:
 ---------------------------------------------------------------------
 Center     Atomic      Atomic             Coordinates (Angstroms)
 Number     Number       Type             X           Y           Z
 ---------------------------------------------------------------------
      1         12           0       19.901174    0.428470    0.553008
      2          6           0       17.799886   -1.573650   -1.381993
      3          6           0       20.559211    2.316223   -2.107866
      4          6           0       22.796819    1.380055    2.100529
      5          6           0       19.220174   -1.607309    3.296749
      6          7           0       19.111299    0.471854   -1.498002
      7          6           0       18.276640   -0.412910   -2.029724
      8          6           0       17.880250    0.063586   -3.473876
      9          6           0       18.860569    1.237525   -3.709600
     10          6           0       19.588370    1.357890   -2.374044
     11          6           0       19.985215    0.938399   -4.820560
     12          6           0       16.360017    0.517606   -3.647331
     13          6           0       15.768632    0.037373   -4.928169
     14          1           0       15.063232    1.025115   -5.844694
     15          7           0       21.439263    1.695876    0.057882
     16          6           0       21.523671    2.418678   -1.102562
     17          6           0       22.568056    3.440163   -0.943291
     18          6           0       23.214720    3.154360    0.291480
     19          6           0       22.499337    1.991420    0.842478
     20          6           0       22.905537    4.495616   -2.044275
     21          6           0       24.463190    3.844050    0.919536
     22          8           0       24.951832    3.531412    1.999507
     23          6           0       25.083724    4.966405    0.176899
     24          7           0       20.867305   -0.043129    2.351178
     25          6           0       22.112824    0.416357    2.789676
     26          6           0       22.541309   -0.373366    4.054056
     27          6           0       21.147806   -0.795864    4.696299
     28          6           0       20.374135   -0.794628    3.347393
     29          6           0       23.528701   -1.520576    3.750230
     30          6           0       20.528756    0.154539    5.681439
     31          6           0       19.806344    1.385730    5.221107
     32          7           0       18.619446   -1.123222    1.016756
     33          6           0       18.465567   -1.888412    2.149651
     34          6           0       17.451371   -2.930540    1.974362
     35          6           0       17.210767   -2.923872    0.526966
     36          6           0       17.969763   -1.798707    0.018817
     37          6           0       17.028316   -3.893847    2.960824
     38          6           0       16.527179   -3.585151   -0.577901
     39          8           0       15.878268   -4.561264   -0.639143
     40          6           0       16.833263   -2.660929   -1.868737
     41          6           0       17.283414   -3.425521   -3.087885
     42          8           0       18.451107   -3.654689   -3.388963
     43          8           0       16.161371   -3.737631   -3.854864
     44          6           0       16.379580   -4.463861   -5.119015
     45          1           0       20.757172    3.138108   -2.799599
     46          1           0       23.744405    1.717016    2.526850
     47          1           0       18.983114   -2.142535    4.218193
     48          1           0       18.105248   -0.688065   -4.230923
     49          1           0       18.417964    2.179188   -4.034314
     50          1           0       19.591698    1.301216   -5.770308
     51          1           0       20.202134   -0.115504   -4.992811
     52          1           0       20.875204    1.510674   -4.556184
     53          1           0       16.259234    1.602988   -3.634453
     54          1           0       15.683791    0.210713   -2.849311
     55          1           0       14.972234   -0.627513   -4.594956
     56          1           0       16.401101   -0.546895   -5.595947
     57          1           0       23.669695    4.033792   -2.668851
     58          1           0       23.201117    5.450457   -1.608852
     59          1           0       22.132611    4.606344   -2.805561
     60          1           0       25.204966    4.938679   -0.905869
     61          1           0       26.082816    5.155993    0.568507
     62          1           0       24.647276    5.905212    0.519059
     63          1           0       23.004538    0.388458    4.680411
     64          1           0       21.192441   -1.773323    5.176262
     65          1           0       23.251273   -2.511749    4.109044
     66          1           0       24.567562   -1.272567    3.969008
     67          1           0       23.602901   -1.668441    2.673002
     68          1           0       21.226008    0.553572    6.417138
     69          1           0       19.807141   -0.409010    6.273040
     70          1           0       18.769428    1.050559    5.205409
     71          1           0       20.041452    1.727700    4.212960
     72          1           0       19.959658    2.184670    5.947285
     73          1           0       15.965580   -4.054815    2.778855
     74          1           0       17.156974   -3.428715    3.937853
     75          1           0       17.574433   -4.828004    2.833412
     76          1           0       15.898633   -2.164968   -2.130672
     77          1           0       16.975261   -5.344948   -4.878849
     78          1           0       16.958401   -3.860712   -5.818006
     79          1           0       15.522017   -4.795783   -5.704495
     80         12           0      -19.918797   -0.495625   -0.173831
     81          6           0      -19.495021    2.912245    0.250866
     82          6           0      -16.502675   -0.933590    0.145630
     83          6           0      -20.474954   -3.807521    0.168029
     84          6           0      -23.387735    0.138555   -0.129862
     85          7           0      -18.220882    0.826762    0.447988
     86          6           0      -18.307146    2.157061    0.360339
     87          6           0      -16.930817    2.805662    0.704899
     88          6           0      -15.935816    1.590023    0.394030
     89          6           0      -16.943304    0.387127    0.240221
     90          6           0      -14.988846    1.875249   -0.796517
     91          6           0      -16.871388    3.169849    2.170931
     92          6           0      -16.204668    4.498993    2.489477
     93          1           0      -15.296516    4.715581    3.758129
     94          7           0      -18.585744   -2.159198   -0.054464
     95          6           0      -17.255558   -2.159532    0.138838
     96          6           0      -16.824155   -3.519599    0.155357
     97          6           0      -17.944238   -4.388536   -0.015655
     98          6           0      -19.092791   -3.474066   -0.011749
     99          6           0      -15.384548   -3.879493    0.137345
    100          6           0      -17.866208   -5.872787    0.042041
    101          8           0      -16.783886   -6.426559    0.141216
    102          6           0      -19.109908   -6.743673   -0.089678
    103          7           0      -21.773395   -1.703683   -0.086873
    104          6           0      -21.662250   -3.044322    0.128979
    105          6           0      -22.993557   -3.637779    0.457663
    106          6           0      -23.927259   -2.339804    0.363731
    107          6           0      -23.030053   -1.196797   -0.041654
    108          6           0      -23.409050   -4.824866   -0.431320
    109          6           0      -24.794742   -2.009412    1.658047
    110          6           0      -26.319831   -1.777620    1.544061
    111          7           0      -21.189427    1.129003   -0.010052
    112          6           0      -22.542684    1.237869   -0.081413
    113          6           0      -22.905537    2.566959   -0.303652
    114          6           0      -21.740514    3.315684   -0.211171
    115          6           0      -20.741304    2.409249    0.040491
    116          6           0      -24.370964    3.066475   -0.467343
    117          6           0      -21.184143    4.585212   -0.276055
    118          8           0      -21.765331    5.661373   -0.361213
    119          6           0      -19.622344    4.463671    0.070513
    120          6           0      -18.804596    4.837191   -1.026612
    121          8           0      -18.525828    4.237184   -2.067466
    122          8           0      -18.301283    6.097014   -0.717123
    123          6           0      -17.414733    6.790376   -1.635888
    124          1           0      -15.420459   -1.066039    0.088537
    125          1           0      -20.808875   -4.842790    0.268492
    126          1           0      -24.473640    0.220038   -0.212572
    127          1           0      -16.815576    3.692752    0.082707
    128          1           0      -15.349131    1.265681    1.252896
    129          1           0      -15.232037    2.815604   -1.290790
    130          1           0      -15.047027    1.054447   -1.512071
    131          1           0      -13.969733    1.874815   -0.410540
    132          1           0      -16.440009    2.439729    2.856022
    133          1           0      -17.909406    3.127482    2.500769
    134          1           0      -16.991712    5.252271    2.458719
    135          1           0      -15.596136    4.645503    1.597123
    136          1           0      -15.202659   -4.079689   -0.918397
    137          1           0      -15.180638   -4.747181    0.765044
    138          1           0      -14.736447   -3.076160    0.487829
    139          1           0      -19.581419   -6.731965    0.893109
    140          1           0      -18.742018   -7.763045   -0.203882
    141          1           0      -19.754168   -6.379921   -0.890021
    142          1           0      -22.810822   -3.948287    1.485890
    143          1           0      -24.723614   -2.471484   -0.368809
    144          1           0      -23.300652   -5.713848    0.190897
    145          1           0      -22.820754   -4.897064   -1.346669
    146          1           0      -24.466967   -4.737474   -0.677663
    147          1           0      -24.396863   -1.101421    2.110969
    148          1           0      -24.761607   -2.803655    2.404147
    149          1           0      -26.324402   -0.700432    1.377992
    150          1           0      -26.807119   -1.987315    2.495377
    151          1           0      -26.864296   -2.130763    0.668405
    152          1           0      -24.852758    3.044454    0.509315
    153          1           0      -25.022579    2.448837   -1.085726
    154          1           0      -24.393620    4.090947   -0.839920
    155          1           0      -19.473024    5.061856    0.969522
    156          1           0      -17.594816    7.857065   -1.505893
    157          1           0      -17.463317    6.453819   -2.671830
    158          1           0      -16.396130    6.652700   -1.272853
 ---------------------------------------------------------------------

 SCF Done:  E(RPBE1PBE) =  -4067.36412937     A.U. after   16 cycles

 Excitation energies and oscillator strengths:

 Excited State   1:      Singlet-A      1.7559 eV  706.12 nm  f=0.0000  <S**2>=0.000
     312 -> 313        0.70711
 This state for optimization and/or second-order correction.
 Total Energy, E(TD-HF/TD-DFT) =  -4067.29960305
 Copying the excited state density for this state as the 1-particle RhoCI density.

 Excited State   2:      Singlet-A      1.8399 eV  673.86 nm  f=0.3569  <S**2>=0.000
     310 -> 316       -0.17102
     312 -> 314        0.69416
     312 <- 314       -0.11322

 Excited State   3:      Singlet-A      1.8606 eV  666.38 nm  f=0.3951  <S**2>=0.000
     309 -> 315       -0.17782
     311 -> 313        0.69199
     311 <- 313       -0.11021

 Excited State   4:      Singlet-A      2.1621 eV  573.45 nm  f=0.0000  <S**2>=0.000
     311 -> 314        0.70710

 Excited State   5:      Singlet-A      2.2365 eV  554.37 nm  f=0.0968  <S**2>=0.000
     309 -> 313        0.64819
     311 -> 315        0.26582

 The electronic state is 1-A.
 Alpha  occ. eigenvalues --  -46.93068 -46.91335 -19.25615 -19.25270 -19.20347
 Alpha  occ. eigenvalues --  -19.20228 -19.19760 -19.19518 -19.19462 -19.18605
 Alpha  occ. eigenvalues --  -14.41882 -14.41628 -14.41507 -14.41024 -14.39471
 Alpha  occ. eigenvalues --  -14.38926 -14.38909 -14.38883 -10.36612 -10.36523
 Alpha  occ. eigenvalues --  -10.32834 -10.32530 -10.32364 -10.31787 -10.29277
 Alpha  occ. eigenvalues --  -10.29153 -10.29047 -10.29012 -10.28961 -10.28874
 Alpha  occ. eigenvalues --  -10.28782 -10.28629 -10.28392 -10.28293 -10.27827
 Alpha  occ. eigenvalues --  -10.27652 -10.27487 -10.27355 -10.27225 -10.27127
 Alpha  occ. eigenvalues --  -10.27122 -10.26580 -10.26336 -10.26317 -10.26235
 Alpha  occ. eigenvalues --  -10.26208 -10.26151 -10.26124 -10.26090 -10.26007
 Alpha  occ. eigenvalues --  -10.25991 -10.25966 -10.25961 -10.25942 -10.25744
 Alpha  occ. eigenvalues --  -10.25739 -10.25666 -10.25518 -10.25479 -10.25462
 Alpha  occ. eigenvalues --  -10.25388 -10.25077 -10.25040 -10.24915 -10.24627
 Alpha  occ. eigenvalues --  -10.24466 -10.24460 -10.24374 -10.24361 -10.24314
 Alpha  occ. eigenvalues --  -10.23958 -10.23791 -10.23726 -10.23643 -10.23462
 Alpha  occ. eigenvalues --  -10.23435 -10.23360 -10.23353 -10.23315 -10.23168
 Alpha  occ. eigenvalues --  -10.23147 -10.23103 -10.23030 -10.22539 -10.22395
 Alpha  occ. eigenvalues --  -10.21955  -3.14977  -3.13613  -1.87830  -1.87345
 Alpha  occ. eigenvalues --   -1.87192  -1.86458  -1.85964  -1.85865  -1.10438
 Alpha  occ. eigenvalues --   -1.09824  -1.07623  -1.04945  -1.04798  -1.04755
 Alpha  occ. eigenvalues --   -1.02272  -1.02196  -1.00200  -0.99794  -0.98714
 Alpha  occ. eigenvalues --   -0.98487  -0.98215  -0.97576  -0.97314  -0.96798
 Alpha  occ. eigenvalues --   -0.88283  -0.86137  -0.83815  -0.83393  -0.83320
 Alpha  occ. eigenvalues --   -0.82852  -0.82695  -0.82369  -0.82250  -0.81433
 Alpha  occ. eigenvalues --   -0.81245  -0.81241  -0.80605  -0.80559  -0.79723
 Alpha  occ. eigenvalues --   -0.78907  -0.78455  -0.77855  -0.77335  -0.76817
 Alpha  occ. eigenvalues --   -0.76479  -0.76070  -0.75834  -0.75281  -0.75094
 Alpha  occ. eigenvalues --   -0.74717  -0.72575  -0.72529  -0.71937  -0.71558
 Alpha  occ. eigenvalues --   -0.71039  -0.70877  -0.70793  -0.70099  -0.69542
 Alpha  occ. eigenvalues --   -0.69228  -0.67941  -0.66879  -0.66686  -0.65920
 Alpha  occ. eigenvalues --   -0.64333  -0.63668  -0.63595  -0.62936  -0.62553
 Alpha  occ. eigenvalues --   -0.62100  -0.61777  -0.61147  -0.60562  -0.60335
 Alpha  occ. eigenvalues --   -0.60126  -0.60066  -0.59430  -0.59177  -0.58798
 Alpha  occ. eigenvalues --   -0.58553  -0.57245  -0.56361  -0.55060  -0.54752
 Alpha  occ. eigenvalues --   -0.54517  -0.54097  -0.53711  -0.53516  -0.53446
 Alpha  occ. eigenvalues --   -0.52832  -0.52757  -0.52624  -0.52306  -0.51621
 Alpha  occ. eigenvalues --   -0.50947  -0.50663  -0.50440  -0.50100  -0.50070
 Alpha  occ. eigenvalues --   -0.49820  -0.49374  -0.49326  -0.48925  -0.48597
 Alpha  occ. eigenvalues --   -0.48236  -0.48177  -0.47996  -0.47921  -0.47475
 Alpha  occ. eigenvalues --   -0.47171  -0.47058  -0.46910  -0.46727  -0.46726
 Alpha  occ. eigenvalues --   -0.46522  -0.46358  -0.46234  -0.46162  -0.46109
 Alpha  occ. eigenvalues --   -0.45882  -0.45858  -0.45749  -0.45012  -0.44986
 Alpha  occ. eigenvalues --   -0.44749  -0.44729  -0.44624  -0.44545  -0.44253
 Alpha  occ. eigenvalues --   -0.44163  -0.44136  -0.44083  -0.43829  -0.43717
 Alpha  occ. eigenvalues --   -0.43677  -0.43275  -0.43041  -0.42981  -0.42954
 Alpha  occ. eigenvalues --   -0.42655  -0.42444  -0.42211  -0.41653  -0.41603
 Alpha  occ. eigenvalues --   -0.41521  -0.41424  -0.41402  -0.41338  -0.41326
 Alpha  occ. eigenvalues --   -0.41001  -0.40839  -0.40794  -0.40688  -0.40534
 Alpha  occ. eigenvalues --   -0.40438  -0.40237  -0.40224  -0.40095  -0.39803
 Alpha  occ. eigenvalues --   -0.39798  -0.39692  -0.39497  -0.39469  -0.39306
 Alpha  occ. eigenvalues --   -0.39153  -0.38953  -0.38706  -0.38577  -0.38458
 Alpha  occ. eigenvalues --   -0.38271  -0.38181  -0.38090  -0.37976  -0.37793
 Alpha  occ. eigenvalues --   -0.37697  -0.37512  -0.37041  -0.36886  -0.36805
 Alpha  occ. eigenvalues --   -0.36748  -0.36682  -0.36410  -0.36384  -0.36316
 Alpha  occ. eigenvalues --   -0.36183  -0.36015  -0.35883  -0.35399  -0.35211
 Alpha  occ. eigenvalues --   -0.35169  -0.34655  -0.34041  -0.33619  -0.33269
 Alpha  occ. eigenvalues --   -0.33177  -0.32996  -0.32970  -0.32690  -0.32427
 Alpha  occ. eigenvalues --   -0.32250  -0.31931  -0.31623  -0.31437  -0.31157
 Alpha  occ. eigenvalues --   -0.30939  -0.30695  -0.29814  -0.29562  -0.29523
 Alpha  occ. eigenvalues --   -0.29242  -0.29046  -0.28362  -0.27445  -0.26798
 Alpha  occ. eigenvalues --   -0.26422  -0.26217  -0.26024  -0.25927  -0.25670
 Alpha  occ. eigenvalues --   -0.25501  -0.25149  -0.25093  -0.21511  -0.20908
 Alpha  occ. eigenvalues --   -0.19216  -0.18436
 Alpha virt. eigenvalues --   -0.11652  -0.10938  -0.05768  -0.04906  -0.04408
 Alpha virt. eigenvalues --   -0.03835  -0.02104  -0.01932  -0.00430  -0.00215
 Alpha virt. eigenvalues --   -0.00159   0.00155   0.00476   0.01371   0.01412

 Mulliken charges:
               1
     1  Mg  12.000000
     2  C    6.000000
     3  C    6.000000
     4  C    6.000000
     5  C    6.000000
     6  N    7.000000
     7  C    6.000000
     8  C    6.000000
     9  C    6.000000
    10  C    6.000000
    11  C    6.000000
    12  C    6.000000
    13  C    6.000000
    14  H    1.000000
    15  N    7.000000
    16  C    6.000000
    17  C    6.000000
    18  C    6.000000
    19  C    6.000000
    20  C    6.000000
    21  C    6.000000
    22  O    8.000000
    23  C    6.000000
    24  N    7.000000
    25  C    6.000000
    26  C    6.000000
    27  C    6.000000
    28  C    6.000000
    29  C    6.000000
    30  C    6.000000
    31  C    6.000000
    32  N    7.000000
    33  C    6.000000
    34  C    6.000000
    35  C    6.000000
    36  C    6.000000
    37  C    6.000000
    38  C    6.000000
    39  O    8.000000
    40  C    6.000000
    41  C    6.000000
    42  O    8.000000
    43  O    8.000000
    44  C    6.000000
    45  H    1.000000
    46  H    1.000000
    47  H    1.000000
    48  H    1.000000
    49  H    1.000000
    50  H    1.000000
    51  H    1.000000
    52  H    1.000000
    53  H    1.000000
    54  H    1.000000
    55  H    1.000000
    56  H    1.000000
    57  H    1.000000
    58  H    1.000000
    59  H    1.000000
    60  H    1.000000
    61  H    1.000000
    62  H    1.000000
    63  H    1.000000
    64  H    1.000000
    65  H    1.000000
    66  H    1.000000
    67  H    1.000000
    68  H    1.000000
    69  H    1.000000
    70  H    1.000000
    71  H    1.000000
    72  H    1.000000
    73  H    1.000000
    74  H    1.000000
    75  H    1.000000
    76  H    1.000000
    77  H    1.000000
    78  H    1.000000
    79  H    1.000000
    80  Mg  12.000000
    81  C    6.000000
    82  C    6.000000
    83  C    6.000000
    84  C    6.000000
    85  N    7.000000
    86  C    6.000000
    87  C    6.000000
    88  C    6.000000
    89  C    6.000000
    90  C    6.000000
    91  C    6.000000
    92  C    6.000000
    93  H    1.000000
    94  N    7.000000
    95  C    6.000000
    96  C    6.000000
    97  C    6.000000
    98  C    6.000000
    99  C    6.000000
   100  C    6.000000
   101  O    8.000000
   102  C    6.000000
   103  N    7.000000
   104  C    6.000000
   105  C    6.000000
   106  C    6.000000
   107  C    6.000000
   108  C    6.000000
   109  C    6.000000
   110  C    6.000000
   111  N    7.000000
   112  C    6.000000
   113  C    6.000000
   114  C    6.000000
   115  C    6.000000
   116  C    6.000000
   117  C    6.000000
   118  O    8.000000
   119  C    6.000000
   120  C    6.000000
   121  O    8.000000
   122  O    8.000000
   123  C    6.000000
   124  H    1.000000
   125  H    1.000000
   126  H    1.000000
   127  H    1.000000
   128  H    1.000000
   129  H    1.000000
   130  H    1.000000
   131  H    1.000000
   132  H    1.000000
   133  H    1.000000
   134  H    1.000000
   135  H    1.000000
   136  H    1.000000
   137  H    1.000000
   138  H    1.000000
   139  H    1.000000
   140  H    1.000000
   141  H    1.000000
   142  H    1.000000
   143  H    1.000000
   144  H    1.000000
   145  H    1.000000
   146  H    1.000000
   147  H    1.000000
   148  H    1.000000
   149  H    1.000000
   150  H    1.000000
   151  H    1.000000
   152  H    1.000000
   153  H    1.000000
   154  H    1.000000
   155  H    1.000000
   156  H    1.000000
   157  H    1.000000
   158  H    1.000000
 Sum of Mulliken charges = 624.00000

 Dipole moment (field-independent basis, Debye):
    X=              0.0000    Y=             -0.0000    Z=              0.0000  Tot=              0.0000
 Quadrupole moment (field-independent basis, Debye-Ang):
   XX=              0.0000   YY=              0.0000   ZZ=              0.0000
   XY=              0.0000   XZ=              0.0000   YZ=             -0.0000

 Normal termination of Gaussian 16 at Thu Oct 14 03:04:34 2021.
