 Gaussian 16, Revision A.03,
 Gaussian 16:  ES64L-G16RevA.03 25-Dec-2016

 --------------------------------------------------------
 #p PBE1PBE/Def2SVP td=(nstates=5) density=(transition=1)
 --------------------------------------------------------

 --------------------------------
 TDDFT excited states in gaussian
 --------------------------------
 Symbolic Z-matrix:
 Charge =  0 Multiplicity = 1

                         Standard orientation:
 ---------------------------------------------------------------------
 Center     Atomic      Atomic             Coordinates (Angstroms)
 Number     Number       Type             X           Y           Z
 ---------------------------------------------------------------------
      1         12           0       30.525760    0.191297   -0.395518
      2          6           0       28.026587   -1.309082    1.910238
      3          6           0       30.111649    2.965607    1.490120
      4          6           0       32.438235    1.449162   -2.588197
      5          6           0       29.958745   -2.645715   -2.470073
      6          7           0       29.181220    0.736786    1.431813
      7          6           0       28.426668   -0.070887    2.265772
      8          6           0       28.010311    0.587077    3.586283
      9          6           0       28.299034    2.072989    3.209387
     10          6           0       29.255961    1.963930    1.959823
     11          6           0       27.089795    2.900601    2.906557
     12          6           0       28.697931    0.067151    4.893097
     13          6           0       27.920996    0.123493    6.165857
     14          1           0       28.732302    0.468906    7.410561
     15          7           0       31.254675    2.000972   -0.527588
     16          6           0       31.027447    3.046656    0.391505
     17          6           0       31.906252    4.127055    0.047553
     18          6           0       32.695945    3.595110   -1.062441
     19          6           0       32.139956    2.334971   -1.401198
     20          6           0       32.056798    5.465166    0.861581
     21          6           0       33.860300    4.286125   -1.703607
     22          8           0       34.458076    3.802613   -2.695718
     23          6           0       34.431630    5.559248   -1.195339
     24          7           0       31.018000   -0.372934   -2.326675
     25          6           0       31.880469    0.324722   -3.068547
     26          6           0       32.217327   -0.339714   -4.441906
     27          6           0       31.756681   -1.808886   -4.114333
     28          6           0       30.801597   -1.610201   -2.905669
     29          6           0       31.389763    0.276197   -5.615616
     30          6           0       32.970264   -2.743133   -3.700679
     31          6           0       34.193318   -2.855565   -4.634966
     32          7           0       29.303736   -1.633474   -0.310152
     33          6           0       29.259447   -2.691932   -1.210394
     34          6           0       28.312623   -3.680579   -0.750153
     35          6           0       27.840278   -3.199442    0.477609
     36          6           0       28.397903   -1.906905    0.678559
     37          6           0       28.026829   -5.005322   -1.373619
     38          6           0       26.961204   -3.512430    1.596613
     39          8           0       26.274855   -4.481498    1.892903
     40          6           0       27.170321   -2.265727    2.603291
     41          6           0       25.833591   -1.802210    2.933467
     42          8           0       24.993605   -1.331140    2.150653
     43          8           0       25.484399   -2.361325    4.129281
     44          6           0       24.181688   -2.119967    4.661401
     45          1           0       30.041155    3.771655    2.223691
     46          1           0       33.094978    1.842235   -3.366827
     47          1           0       29.839204   -3.499101   -3.141388
     48          1           0       26.933070    0.451498    3.684904
     49          1           0       28.927102    2.543980    3.964982
     50          1           0       27.071325    3.051924    1.827251
     51          1           0       27.197865    3.886906    3.357575
     52          1           0       26.120825    2.496011    3.198309
     53          1           0       29.570001    0.698469    5.061083
     54          1           0       29.063836   -0.938402    4.687286
     55          1           0       27.527694   -0.887821    6.267120
     56          1           0       26.988699    0.679089    6.063747
     57          1           0       32.966937    5.555205    1.453835
     58          1           0       31.179045    5.655750    1.478518
     59          1           0       32.044102    6.202745    0.058176
     60          1           0       33.760737    6.370934   -1.477872
     61          1           0       35.394962    5.667436   -1.694469
     62          1           0       34.583801    5.423512   -0.125098
     63          1           0       33.288071   -0.192775   -4.587343
     64          1           0       31.192418   -2.312859   -4.898425
     65          1           0       32.103255    0.800410   -6.251897
     66          1           0       30.556658    0.916159   -5.326768
     67          1           0       31.034738   -0.621589   -6.123606
     68          1           0       32.606344   -3.767944   -3.630969
     69          1           0       33.240896   -2.451487   -2.686043
     70          1           0       35.036021   -2.532869   -4.023742
     71          1           0       34.000698   -2.115872   -5.412574
     72          1           0       34.359111   -3.873012   -4.988788
     73          1           0       28.833034   -5.141627   -2.094786
     74          1           0       27.067114   -4.897999   -1.879041
     75          1           0       27.928095   -5.822079   -0.658617
     76          1           0       27.696560   -2.603020    3.496082
     77          1           0       23.601541   -1.452236    4.024101
     78          1           0       24.354943   -1.609083    5.608627
     79          1           0       23.679078   -3.052052    4.915711
     80         12           0      -30.053336    0.697780    0.459752
     81          6           0      -28.555729   -2.493615    0.486977
     82          6           0      -27.003258    1.982073   -0.349432
     83          6           0      -31.627051    3.632822   -0.308627
     84          6           0      -33.168929   -1.000272    0.790981
     85          7           0      -28.006476   -0.200203   -0.036039
     86          6           0      -27.559037   -1.472532    0.177103
     87          6           0      -26.094134   -1.655629   -0.255813
     88          6           0      -25.652912   -0.116162   -0.122076
     89          6           0      -26.973399    0.611645   -0.169037
     90          6           0      -24.852838    0.246670    1.157676
     91          6           0      -25.904131   -2.184103   -1.748459
     92          6           0      -24.617092   -2.907007   -2.114583
     93          1           0      -23.564177   -2.285113   -3.056465
     94          7           0      -29.452743    2.647488   -0.219601
     95          6           0      -28.131495    2.964309   -0.346673
     96          6           0      -27.959244    4.337510   -0.528784
     97          6           0      -29.296063    4.887231   -0.498806
     98          6           0      -30.227705    3.731252   -0.369553
     99          6           0      -26.615515    5.039024   -0.685883
    100          6           0      -29.568655    6.369586   -0.618747
    101          8           0      -28.605717    7.169895   -0.741097
    102          6           0      -30.997462    7.005468   -0.488796
    103          7           0      -32.072648    1.170463    0.290887
    104          6           0      -32.481183    2.497704   -0.011345
    105          6           0      -33.946554    2.662262    0.281756
    106          6           0      -34.500367    1.220907    0.288632
    107          6           0      -33.207438    0.394223    0.548975
    108          6           0      -34.397102    3.330366    1.600480
    109          6           0      -35.147700    0.803530   -1.135040
    110          6           0      -36.590586    1.193021   -1.418978
    111          7           0      -30.691341   -1.331178    0.792679
    112          6           0      -31.969594   -1.854940    0.915004
    113          6           0      -31.949171   -3.232842    1.021480
    114          6           0      -30.586602   -3.559573    0.912555
    115          6           0      -29.869896   -2.361995    0.750038
    116          6           0      -33.152629   -4.102425    1.205888
    117          6           0      -29.688356   -4.586076    1.001261
    118          8           0      -29.856484   -5.750340    1.306253
    119          6           0      -28.375316   -3.970182    0.473983
    120          6           0      -28.182399   -4.578430   -0.883072
    121          8           0      -28.972796   -4.494769   -1.770961
    122          8           0      -26.993917   -5.309894   -0.919312
    123          6           0      -26.848272   -6.042988   -2.128581
    124          1           0      -26.022367    2.459460   -0.403176
    125          1           0      -32.168691    4.580874   -0.343091
    126          1           0      -34.143544   -1.431177    1.028579
    127          1           0      -25.503359   -2.189599    0.487723
    128          1           0      -24.987947    0.085042   -0.961521
    129          1           0      -23.822794    0.236834    0.800183
    130          1           0      -24.953188   -0.509145    1.936541
    131          1           0      -25.097087    1.247681    1.513610
    132          1           0      -25.931724   -1.351922   -2.451952
    133          1           0      -26.788285   -2.779308   -1.977754
    134          1           0      -24.960871   -3.847025   -2.548621
    135          1           0      -24.115779   -3.161368   -1.180865
    136          1           0      -26.469489    6.029918   -0.254568
    137          1           0      -26.549477    4.994975   -1.772738
    138          1           0      -25.841051    4.478665   -0.162099
    139          1           0      -31.391363    6.810240    0.508248
    140          1           0      -31.542353    6.511844   -1.293251
    141          1           0      -31.080806    8.059223   -0.754464
    142          1           0      -34.372218    3.180924   -0.576642
    143          1           0      -35.246456    1.067809    1.068470
    144          1           0      -34.902816    2.670486    2.305181
    145          1           0      -34.737467    4.352190    1.431483
    146          1           0      -33.460306    3.528418    2.121090
    147          1           0      -35.034080   -0.278855   -1.078230
    148          1           0      -34.548625    1.188154   -1.960650
    149          1           0      -36.637415    1.717130   -2.373174
    150          1           0      -36.946631    1.852808   -0.627281
    151          1           0      -37.226520    0.313538   -1.523249
    152          1           0      -33.067762   -4.890919    0.458669
    153          1           0      -34.085492   -3.582197    0.985077
    154          1           0      -33.192750   -4.568160    2.190713
    155          1           0      -27.570399   -4.271179    1.143628
    156          1           0      -27.251014   -7.047022   -1.997926
    157          1           0      -25.810741   -6.269332   -2.377271
    158          1           0      -27.355728   -5.567990   -2.966468
 ---------------------------------------------------------------------

 SCF Done:  E(RPBE1PBE) =  -4067.35063738     A.U. after   16 cycles

 Excitation energies and oscillator strengths:

 Excited State   1:      Singlet-A      1.8203 eV  681.10 nm  f=0.3617  <S**2>=0.000
     310 -> 316       -0.15122
     312 -> 313        0.70057
     312 <- 313       -0.12603
 This state for optimization and/or second-order correction.
 Total Energy, E(TD-HF/TD-DFT) =  -4067.28374085
 Copying the excited state density for this state as the 1-particle RhoCI density.

 Excited State   2:      Singlet-A      1.8620 eV  665.85 nm  f=0.3881  <S**2>=0.000
     309 -> 315       -0.18186
     311 -> 314        0.68866
     311 <- 314       -0.10551

 Excited State   3:      Singlet-A      1.9328 eV  641.48 nm  f=0.0000  <S**2>=0.000
     312 -> 314        0.70711

 Excited State   4:      Singlet-A      2.0144 eV  615.48 nm  f=0.0000  <S**2>=0.000
     311 -> 313        0.70711

 Excited State   5:      Singlet-A      2.1541 eV  575.57 nm  f=0.1184  <S**2>=0.000
     309 -> 314        0.65690
     311 -> 315        0.24318

 The electronic state is 1-A.
 Alpha  occ. eigenvalues --  -46.93690 -46.92332 -19.26008 -19.25378 -19.21076
 Alpha  occ. eigenvalues --  -19.20038 -19.19552 -19.18353 -19.18157 -19.17798
 Alpha  occ. eigenvalues --  -14.42498 -14.42334 -14.41671 -14.41090 -14.39439
 Alpha  occ. eigenvalues --  -14.39411 -14.39218 -14.38831 -10.36674 -10.36037
 Alpha  occ. eigenvalues --  -10.33050 -10.32226 -10.31232 -10.30455 -10.30107
 Alpha  occ. eigenvalues --  -10.30094 -10.29449 -10.29121 -10.28573 -10.28534
 Alpha  occ. eigenvalues --  -10.28442 -10.28377 -10.28354 -10.28321 -10.28283
 Alpha  occ. eigenvalues --  -10.28193 -10.27996 -10.27917 -10.27684 -10.27654
 Alpha  occ. eigenvalues --  -10.27044 -10.26860 -10.26716 -10.26579 -10.26394
 Alpha  occ. eigenvalues --  -10.26213 -10.26065 -10.26027 -10.26015 -10.25963
 Alpha  occ. eigenvalues --  -10.25833 -10.25827 -10.25771 -10.25735 -10.25693
 Alpha  occ. eigenvalues --  -10.25660 -10.25603 -10.25509 -10.25494 -10.25460
 Alpha  occ. eigenvalues --  -10.25457 -10.25251 -10.25249 -10.25210 -10.25126
 Alpha  occ. eigenvalues --  -10.25033 -10.25009 -10.24922 -10.24595 -10.24574
 Alpha  occ. eigenvalues --  -10.24169 -10.24053 -10.24051 -10.23988 -10.23661
 Alpha  occ. eigenvalues --  -10.23584 -10.23549 -10.23490 -10.23470 -10.23280
 Alpha  occ. eigenvalues --  -10.23186 -10.23154 -10.23101 -10.23083 -10.22874
 Alpha  occ. eigenvalues --  -10.21870  -3.15569  -3.14570  -1.88407  -1.87936
 Alpha  occ. eigenvalues --   -1.87787  -1.87379  -1.86940  -1.86816  -1.12353
 Alpha  occ. eigenvalues --   -1.11223  -1.04892  -1.04819  -1.04287  -1.02283
 Alpha  occ. eigenvalues --   -1.02054  -1.01714  -1.00329  -0.99672  -0.99341
 Alpha  occ. eigenvalues --   -0.98606  -0.98594  -0.98351  -0.97169  -0.96520
 Alpha  occ. eigenvalues --   -0.88714  -0.87978  -0.83753  -0.83218  -0.83134
 Alpha  occ. eigenvalues --   -0.83022  -0.82981  -0.82381  -0.81924  -0.81808
 Alpha  occ. eigenvalues --   -0.81418  -0.81165  -0.80545  -0.80213  -0.78991
 Alpha  occ. eigenvalues --   -0.78647  -0.78311  -0.77914  -0.77423  -0.77164
 Alpha  occ. eigenvalues --   -0.76372  -0.76149  -0.75477  -0.75109  -0.75006
 Alpha  occ. eigenvalues --   -0.74581  -0.72901  -0.72390  -0.71749  -0.71697
 Alpha  occ. eigenvalues --   -0.71609  -0.71212  -0.70554  -0.70271  -0.70042
 Alpha  occ. eigenvalues --   -0.69833  -0.68065  -0.67772  -0.66689  -0.65370
 Alpha  occ. eigenvalues --   -0.63909  -0.63654  -0.63044  -0.62910  -0.62787
 Alpha  occ. eigenvalues --   -0.62563  -0.61638  -0.61415  -0.60677  -0.60094
 Alpha  occ. eigenvalues --   -0.59790  -0.59596  -0.59506  -0.59280  -0.58981
 Alpha  occ. eigenvalues --   -0.58765  -0.57348  -0.56583  -0.55412  -0.55018
 Alpha  occ. eigenvalues --   -0.54717  -0.54354  -0.54136  -0.53976  -0.53771
 Alpha  occ. eigenvalues --   -0.53548  -0.53321  -0.52902  -0.52707  -0.52365
 Alpha  occ. eigenvalues --   -0.51121  -0.50405  -0.50182  -0.50147  -0.49851
 Alpha  occ. eigenvalues --   -0.49656  -0.49427  -0.49211  -0.48740  -0.48440
 Alpha  occ. eigenvalues --   -0.48244  -0.48153  -0.47847  -0.47804  -0.47332
 Alpha  occ. eigenvalues --   -0.47314  -0.47218  -0.47050  -0.47018  -0.46679
 Alpha  occ. eigenvalues --   -0.46459  -0.46420  -0.46046  -0.46020  -0.45778
 Alpha  occ. eigenvalues --   -0.45774  -0.45535  -0.45470  -0.45146  -0.44898
 Alpha  occ. eigenvalues --   -0.44711  -0.44552  -0.44471  -0.44407  -0.44356
 Alpha  occ. eigenvalues --   -0.44334  -0.44040  -0.43980  -0.43864  -0.43632
 Alpha  occ. eigenvalues --   -0.43541  -0.43448  -0.43092  -0.42993  -0.42808
 Alpha  occ. eigenvalues --   -0.42643  -0.42519  -0.42291  -0.42015  -0.41955
 Alpha  occ. eigenvalues --   -0.41882  -0.41694  -0.41275  -0.41261  -0.41123
 Alpha  occ. eigenvalues --   -0.41080  -0.41055  -0.40892  -0.40785  -0.40728
 Alpha  occ. eigenvalues --   -0.40538  -0.40094  -0.40054  -0.39926  -0.39838
 Alpha  occ. eigenvalues --   -0.39638  -0.39529  -0.39494  -0.39402  -0.39263
 Alpha  occ. eigenvalues --   -0.38793  -0.38652  -0.38621  -0.38496  -0.38155
 Alpha  occ. eigenvalues --   -0.38147  -0.37997  -0.37883  -0.37775  -0.37644
 Alpha  occ. eigenvalues --   -0.37520  -0.37409  -0.37287  -0.37079  -0.37040
 Alpha  occ. eigenvalues --   -0.36855  -0.36395  -0.36383  -0.36197  -0.36138
 Alpha  occ. eigenvalues --   -0.36001  -0.35833  -0.35707  -0.35524  -0.35378
 Alpha  occ. eigenvalues --   -0.35211  -0.34700  -0.34369  -0.34352  -0.34222
 Alpha  occ. eigenvalues --   -0.33558  -0.33481  -0.33113  -0.32819  -0.32770
 Alpha  occ. eigenvalues --   -0.32624  -0.32248  -0.32074  -0.31903  -0.31599
 Alpha  occ. eigenvalues --   -0.31499  -0.30682  -0.30381  -0.30247  -0.29837
 Alpha  occ. eigenvalues --   -0.29090  -0.29008  -0.28667  -0.27217  -0.27077
 Alpha  occ. eigenvalues --   -0.26273  -0.25749  -0.25692  -0.25499  -0.25333
 Alpha  occ. eigenvalues --   -0.25229  -0.24719  -0.24616  -0.21302  -0.21242
 Alpha  occ. eigenvalues --   -0.19623  -0.19308
 Alpha virt. eigenvalues --   -0.12000  -0.11984  -0.05976  -0.04426  -0.04267
 Alpha virt. eigenvalues --   -0.03931  -0.02238  -0.01854  -0.01389  -0.01022
 Alpha virt. eigenvalues --   -0.00469   0.00113   0.00760   0.00932   0.01257

 Mulliken charges:
               1
     1  Mg  11.998028
     2  C    5.969094
     3  C    5.978719
     4  C    6.033801
     5  C    6.012311
     6  N    6.972241
     7  C    6.030580
     8  C    5.987349
     9  C    6.001467
    10  C    5.987210
    11  C    6.003441
    12  C    5.998107
    13  C    6.001280
    14  H    1.003449
    15  N    7.003603
    16  C    5.970431
    17  C    5.980987
    18  C    5.986779
    19  C    5.971944
    20  C    5.999462
    21  C    5.989068
    22  O    7.965257
    23  C    6.004414
    24  N    7.024845
    25  C    5.966316
    26  C    6.004858
    27  C    5.995390
    28  C    6.017153
    29  C    5.999962
    30  C    5.995627
    31  C    6.000981
    32  N    6.998712
    33  C    6.026234
    34  C    6.032510
    35  C    5.996550
    36  C    6.038045
    37  C    5.998230
    38  C    6.013961
    39  O    8.023703
    40  C    6.006744
    41  C    6.006189
    42  O    8.003279
    43  O    8.000441
    44  C    5.997143
    45  H    0.979716
    46  H    1.001883
    47  H    1.016507
    48  H    0.998600
    49  H    0.999429
    50  H    0.999994
    51  H    0.998397
    52  H    0.984983
    53  H    1.010161
    54  H    0.993728
    55  H    0.994726
    56  H    1.001659
    57  H    0.982430
    58  H    0.987837
    59  H    0.985797
    60  H    0.992080
    61  H    0.986108
    62  H    0.995456
    63  H    1.005644
    64  H    1.002020
    65  H    1.004743
    66  H    1.003269
    67  H    0.993285
    68  H    0.998400
    69  H    1.006314
    70  H    1.007365
    71  H    1.005287
    72  H    1.002444
    73  H    1.012487
    74  H    1.020161
    75  H    1.018130
    76  H    1.005154
    77  H    1.003413
    78  H    1.005624
    79  H    1.000879
    80  Mg  11.999962
    81  C    5.999972
    82  C    5.999854
    83  C    5.999957
    84  C    5.999986
    85  N    6.999952
    86  C    5.999968
    87  C    5.999942
    88  C    5.999944
    89  C    6.000288
    90  C    6.000013
    91  C    5.999967
    92  C    5.999914
    93  H    0.999975
    94  N    6.999945
    95  C    6.000076
    96  C    6.000058
    97  C    6.000140
    98  C    6.000037
    99  C    6.000059
   100  C    5.999968
   101  O    8.000023
   102  C    5.999992
   103  N    7.000225
   104  C    6.000024
   105  C    5.999973
   106  C    6.000066
   107  C    5.999831
   108  C    5.999976
   109  C    6.000053
   110  C    5.999980
   111  N    6.999982
   112  C    5.999883
   113  C    5.999928
   114  C    5.999900
   115  C    6.000141
   116  C    5.999988
   117  C    6.000007
   118  O    7.999913
   119  C    6.000031
   120  C    5.999925
   121  O    8.000056
   122  O    7.999930
   123  C    6.000052
   124  H    1.000032
   125  H    1.000094
   126  H    1.000004
   127  H    0.999970
   128  H    0.999971
   129  H    0.999982
   130  H    1.000011
   131  H    0.999988
   132  H    0.999981
   133  H    1.000042
   134  H    1.000026
   135  H    1.000018
   136  H    1.000037
   137  H    1.000018
   138  H    1.000059
   139  H    1.000034
   140  H    1.000037
   141  H    1.000085
   142  H    1.000039
   143  H    1.000002
   144  H    1.000040
   145  H    1.000025
   146  H    1.000014
   147  H    0.999987
   148  H    0.999974
   149  H    1.000003
   150  H    0.999992
   151  H    1.000013
   152  H    0.999971
   153  H    0.999921
   154  H    0.999957
   155  H    0.999918
   156  H    0.999972
   157  H    0.999949
   158  H    0.999974
 Sum of Mulliken charges = 624.00000

 Dipole moment (field-independent basis, Debye):
    X=             -3.7989    Y=             -9.3881    Z=             -1.4938  Tot=             10.2371
 Quadrupole moment (field-independent basis, Debye-Ang):
   XX=           -229.2138   YY=             -5.1798   ZZ=              4.4088
   XY=           -287.4332   XZ=            -44.7350   YZ=              3.4713

 Normal termination of Gaussian 16 at Thu Oct 14 01:50:27 2021.
