 Gaussian 16, Revision A.03,
 Gaussian 16:  ES64L-G16RevA.03 25-Dec-2016

 --------------------------------------------------------
 #p PBE1PBE/Def2SVP td=(nstates=5) density=(transition=1)
 --------------------------------------------------------

 --------------------------------
 TDDFT excited states in gaussian
 --------------------------------
 Symbolic Z-matrix:
 Charge =  0 Multiplicity = 1

                         Standard orientation:
 ---------------------------------------------------------------------
 Center     Atomic      Atomic             Coordinates (Angstroms)
 Number     Number       Type             X           Y           Z
 ---------------------------------------------------------------------
      1         12           0       -9.741977   -0.860334    0.468114
      2          6           0       -9.184244    2.732843   -0.300992
      3          6           0       -7.693076   -0.277093    3.092185
      4          6           0      -10.055737   -3.989984    0.861143
      5          6           0      -11.113227   -1.101058   -2.808415
      6          7           0       -8.558955    0.999754    1.232977
      7          6           0       -8.647476    2.333065    0.870184
      8          6           0       -8.009143    3.309160    1.865067
      9          6           0       -7.157591    2.288619    2.681584
     10          6           0       -7.811224    0.894554    2.337556
     11          6           0       -5.691444    2.298265    2.382876
     12          6           0       -8.975691    4.215166    2.699240
     13          6           0       -8.489722    5.562756    3.117041
     14          1           0       -8.942138    6.019293    4.500409
     15          7           0       -9.004254   -2.025498    1.854419
     16          6           0       -8.199047   -1.608043    2.934785
     17          6           0       -8.054087   -2.722913    3.825805
     18          6           0       -8.891803   -3.760712    3.225911
     19          6           0       -9.333235   -3.264981    1.972429
     20          6           0       -7.309065   -2.683116    5.211159
     21          6           0       -9.194883   -5.091120    3.844356
     22          8           0       -9.871613   -5.964169    3.248347
     23          6           0       -8.770260   -5.466005    5.217219
     24          7           0      -10.316905   -2.389599   -0.805006
     25          6           0      -10.389862   -3.658335   -0.397656
     26          6           0      -10.970977   -4.635640   -1.469218
     27          6           0      -11.683227   -3.578785   -2.393189
     28          6           0      -10.965466   -2.253157   -2.018944
     29          6           0       -9.849252   -5.408415   -2.234954
     30          6           0      -13.235776   -3.461241   -2.089076
     31          6           0      -14.110284   -4.732584   -2.106930
     32          7           0      -10.131980    0.508421   -1.206648
     33          6           0      -10.752686    0.239868   -2.421281
     34          6           0      -10.795573    1.442239   -3.220145
     35          6           0      -10.231066    2.441881   -2.417617
     36          6           0       -9.756440    1.824233   -1.227987
     37          6           0      -11.450840    1.611252   -4.549578
     38          6           0       -9.913400    3.863037   -2.369600
     39          8           0      -10.115527    4.804991   -3.124466
     40          6           0       -9.290328    4.062567   -0.891977
     41          6           0       -8.039166    4.774296   -1.088821
     42          8           0       -7.042571    4.371959   -1.709468
     43          8           0       -8.278626    6.101252   -0.873500
     44          6           0       -7.222879    7.043342   -1.064095
     45          1           0       -7.149733    0.014692    3.993545
     46          1           0      -10.188093   -5.069522    0.956851
     47          1           0      -11.558224   -1.234885   -3.796995
     48          1           0       -7.337837    3.952201    1.295506
     49          1           0       -7.349133    2.398102    3.748613
     50          1           0       -5.479717    1.398733    1.804814
     51          1           0       -5.127245    2.211841    3.311372
     52          1           0       -5.300454    3.147963    1.823541
     53          1           0       -9.180569    3.683385    3.627961
     54          1           0       -9.914868    4.276720    2.150114
     55          1           0       -8.914464    6.228806    2.366262
     56          1           0       -7.427743    5.706051    2.917146
     57          1           0       -7.951984   -2.685602    6.090861
     58          1           0       -6.600906   -1.856241    5.257778
     59          1           0       -6.720684   -3.600088    5.160047
     60          1           0       -7.703438   -5.689954    5.195017
     61          1           0       -9.343818   -6.358964    5.467218
     62          1           0       -9.066439   -4.643298    5.867163
     63          1           0      -11.625698   -5.316888   -0.924721
     64          1           0      -11.557794   -3.727965   -3.465193
     65          1           0       -9.944195   -6.454820   -1.943841
     66          1           0       -8.834280   -5.038227   -2.094093
     67          1           0      -10.170038   -5.284389   -3.270247
     68          1           0      -13.688187   -2.828628   -2.852397
     69          1           0      -13.317057   -2.907387   -1.153969
     70          1           0      -14.545775   -4.780020   -1.108946
     71          1           0      -13.393493   -5.544603   -2.232465
     72          1           0      -14.901095   -4.687593   -2.855574
     73          1           0      -12.061069    0.714994   -4.663462
     74          1           0      -10.643602    1.627595   -5.281781
     75          1           0      -12.006187    2.542960   -4.657188
     76          1           0       -9.978836    4.647621   -0.282520
     77          1           0       -6.289733    6.554227   -1.344434
     78          1           0       -7.076981    7.503867   -0.086911
     79          1           0       -7.527748    7.850363   -1.728810
     80         12           0        9.730317   -0.697384    0.067388
     81          6           0        7.816550    2.233696   -0.443168
     82          6           0       12.207569    1.248959    0.988344
     83          6           0       11.669648   -3.313809   -0.502998
     84          6           0        7.113414   -2.403147   -1.626885
     85          7           0        9.833453    1.542033    0.392734
     86          6           0        8.987132    2.491651    0.224632
     87          6           0        9.494582    3.800495    0.864097
     88          6           0       11.094017    3.593885    0.889570
     89          6           0       11.088049    2.023780    0.670682
     90          6           0       11.924625    4.368979   -0.208386
     91          6           0        8.946063    3.949141    2.378005
     92          6           0        8.641104    5.360818    2.975746
     93          1           0        9.492154    6.555064    2.406234
     94          7           0       11.642972   -1.059051    0.419353
     95          6           0       12.513983   -0.081796    0.877022
     96          6           0       13.872291   -0.706406    1.053410
     97          6           0       13.683529   -2.089556    0.634922
     98          6           0       12.318820   -2.283194    0.137412
     99          6           0       15.060574    0.113155    1.520015
    100          6           0       14.707554   -3.202131    0.682859
    101          8           0       14.513388   -4.355741    0.275080
    102          6           0       16.024635   -2.926367    1.286792
    103          7           0        9.389629   -2.698527   -0.866156
    104          6           0       10.402917   -3.536235   -0.992175
    105          6           0        9.868097   -4.985120   -1.383524
    106          6           0        8.335009   -4.622171   -1.777218
    107          6           0        8.259213   -3.154912   -1.363608
    108          6           0       10.707661   -5.690685   -2.499274
    109          6           0        7.189920   -5.464536   -1.125111
    110          6           0        6.407949   -6.376613   -2.035095
    111          7           0        7.721665   -0.282483   -0.684086
    112          6           0        6.826735   -1.108403   -1.334735
    113          6           0        5.721888   -0.365904   -1.778786
    114          6           0        6.092622    0.959705   -1.483649
    115          6           0        7.313897    1.003583   -0.853832
    116          6           0        4.538163   -0.839898   -2.459467
    117          6           0        5.570238    2.269675   -1.540809
    118          8           0        4.473748    2.792719   -1.878917
    119          6           0        6.799576    3.189237   -1.109349
    120          6           0        6.335015    4.290717   -0.228856
    121          8           0        5.821895    4.202116    0.884689
    122          8           0        6.699589    5.519041   -0.865166
    123          6           0        6.330993    6.763674   -0.178575
    124          1           0       12.953091    1.921567    1.418579
    125          1           0       12.309433   -4.189224   -0.627455
    126          1           0        6.281127   -2.950427   -2.075848
    127          1           0        9.363488    4.587945    0.122367
    128          1           0       11.475079    4.009932    1.821569
    129          1           0       11.284833    4.776906   -0.990625
    130          1           0       12.612386    3.706585   -0.733754
    131          1           0       12.435041    5.173186    0.321429
    132          1           0        9.595702    3.425460    3.079485
    133          1           0        8.034993    3.356515    2.463085
    134          1           0        8.767784    5.416083    4.057426
    135          1           0        7.654380    5.645787    2.608576
    136          1           0       15.642557   -0.404397    2.283448
    137          1           0       14.780649    1.092503    1.908174
    138          1           0       15.641479    0.428881    0.653782
    139          1           0       16.529477   -2.107811    0.772984
    140          1           0       16.644387   -3.822150    1.245922
    141          1           0       16.013742   -2.674007    2.347123
    142          1           0        9.803237   -5.654797   -0.526031
    143          1           0        8.197467   -4.536963   -2.856150
    144          1           0       11.465977   -5.011924   -2.889995
    145          1           0        9.913111   -6.024646   -3.166859
    146          1           0       11.100836   -6.607461   -2.061824
    147          1           0        6.475189   -4.760951   -0.697656
    148          1           0        7.594962   -6.045468   -0.296281
    149          1           0        6.972242   -6.341957   -2.966071
    150          1           0        5.436098   -5.914265   -2.211687
    151          1           0        6.377957   -7.409995   -1.691887
    152          1           0        4.141951   -1.660858   -1.862450
    153          1           0        4.706679   -1.383339   -3.389230
    154          1           0        3.802308   -0.037573   -2.516381
    155          1           0        7.249303    3.598542   -2.014521
    156          1           0        6.576942    7.630504   -0.792496
    157          1           0        6.991810    6.892898    0.678786
    158          1           0        5.254550    6.774069   -0.010794
 ---------------------------------------------------------------------

 SCF Done:  E(RPBE1PBE) =  -4067.34144070     A.U. after   16 cycles

 Excitation energies and oscillator strengths:

 Excited State   1:      Singlet-A      1.8202 eV  681.16 nm  f=0.3638  <S**2>=0.000
     310 -> 317       -0.15141
     312 -> 313        0.70056
     312 <- 313       -0.12608
 This state for optimization and/or second-order correction.
 Total Energy, E(TD-HF/TD-DFT) =  -4067.27455018
 Copying the excited state density for this state as the 1-particle RhoCI density.

 Excited State   2:      Singlet-A      1.8434 eV  672.57 nm  f=0.0000  <S**2>=0.000
     311 -> 313        0.70709

 Excited State   3:      Singlet-A      1.9488 eV  636.21 nm  f=0.3567  <S**2>=0.000
     309 -> 315       -0.20425
     311 -> 314        0.68086

 Excited State   4:      Singlet-A      1.9824 eV  625.42 nm  f=0.0000  <S**2>=0.000
     312 -> 314        0.70706

 Excited State   5:      Singlet-A      2.1894 eV  566.29 nm  f=0.1810  <S**2>=0.000
     310 -> 313        0.67190
     312 -> 317        0.20085

 The electronic state is 1-A.
 Alpha  occ. eigenvalues --  -46.92778 -46.92168 -19.25149 -19.24615 -19.20404
 Alpha  occ. eigenvalues --  -19.19859 -19.19318 -19.19171 -19.18736 -19.17665
 Alpha  occ. eigenvalues --  -14.41645 -14.41498 -14.41137 -14.40929 -14.39652
 Alpha  occ. eigenvalues --  -14.39252 -14.39050 -14.38285 -10.36293 -10.35810
 Alpha  occ. eigenvalues --  -10.32869 -10.32196 -10.31640 -10.31101 -10.29234
 Alpha  occ. eigenvalues --  -10.28967 -10.28651 -10.28390 -10.28389 -10.28388
 Alpha  occ. eigenvalues --  -10.28330 -10.28309 -10.28287 -10.28198 -10.28157
 Alpha  occ. eigenvalues --  -10.28056 -10.28035 -10.27915 -10.27832 -10.27502
 Alpha  occ. eigenvalues --  -10.26860 -10.26705 -10.26545 -10.26513 -10.26486
 Alpha  occ. eigenvalues --  -10.26277 -10.26198 -10.26143 -10.26060 -10.26059
 Alpha  occ. eigenvalues --  -10.25896 -10.25882 -10.25859 -10.25568 -10.25553
 Alpha  occ. eigenvalues --  -10.25471 -10.25470 -10.25420 -10.25397 -10.25317
 Alpha  occ. eigenvalues --  -10.25287 -10.25138 -10.25101 -10.25083 -10.24966
 Alpha  occ. eigenvalues --  -10.24859 -10.24614 -10.24442 -10.24383 -10.23951
 Alpha  occ. eigenvalues --  -10.23931 -10.23872 -10.23857 -10.23615 -10.23429
 Alpha  occ. eigenvalues --  -10.23369 -10.23314 -10.23304 -10.23284 -10.23062
 Alpha  occ. eigenvalues --  -10.23016 -10.22976 -10.22875 -10.22824 -10.22757
 Alpha  occ. eigenvalues --  -10.22370  -3.14815  -3.14406  -1.87658  -1.87215
 Alpha  occ. eigenvalues --   -1.87197  -1.87024  -1.86776  -1.86652  -1.10993
 Alpha  occ. eigenvalues --   -1.08678  -1.04711  -1.04090  -1.02151  -1.02014
 Alpha  occ. eigenvalues --   -1.01534  -1.01481  -1.00426  -0.99845  -0.99512
 Alpha  occ. eigenvalues --   -0.98428  -0.98213  -0.98194  -0.97000  -0.96074
 Alpha  occ. eigenvalues --   -0.87796  -0.87354  -0.83819  -0.83548  -0.82989
 Alpha  occ. eigenvalues --   -0.82925  -0.82225  -0.82180  -0.81886  -0.81642
 Alpha  occ. eigenvalues --   -0.81637  -0.81107  -0.81007  -0.80383  -0.78795
 Alpha  occ. eigenvalues --   -0.78583  -0.78252  -0.78130  -0.77274  -0.76989
 Alpha  occ. eigenvalues --   -0.76229  -0.76217  -0.75777  -0.75299  -0.75011
 Alpha  occ. eigenvalues --   -0.74970  -0.73262  -0.72748  -0.72036  -0.71561
 Alpha  occ. eigenvalues --   -0.71446  -0.71268  -0.70357  -0.70216  -0.69669
 Alpha  occ. eigenvalues --   -0.69569  -0.67687  -0.67604  -0.66734  -0.65199
 Alpha  occ. eigenvalues --   -0.63496  -0.63395  -0.62931  -0.62875  -0.62379
 Alpha  occ. eigenvalues --   -0.62311  -0.61620  -0.61256  -0.60422  -0.60079
 Alpha  occ. eigenvalues --   -0.60023  -0.59899  -0.59446  -0.59330  -0.59149
 Alpha  occ. eigenvalues --   -0.58819  -0.56378  -0.55820  -0.55262  -0.55067
 Alpha  occ. eigenvalues --   -0.54716  -0.54185  -0.53893  -0.53787  -0.53139
 Alpha  occ. eigenvalues --   -0.53025  -0.52721  -0.52304  -0.52200  -0.51861
 Alpha  occ. eigenvalues --   -0.51479  -0.50332  -0.50225  -0.49990  -0.49962
 Alpha  occ. eigenvalues --   -0.49246  -0.49027  -0.48826  -0.48609  -0.48539
 Alpha  occ. eigenvalues --   -0.48090  -0.48038  -0.47726  -0.47661  -0.47526
 Alpha  occ. eigenvalues --   -0.47142  -0.47067  -0.47021  -0.46884  -0.46837
 Alpha  occ. eigenvalues --   -0.46651  -0.46293  -0.46099  -0.45862  -0.45711
 Alpha  occ. eigenvalues --   -0.45630  -0.45482  -0.45354  -0.45056  -0.44966
 Alpha  occ. eigenvalues --   -0.44753  -0.44469  -0.44357  -0.44235  -0.44230
 Alpha  occ. eigenvalues --   -0.44209  -0.43856  -0.43763  -0.43705  -0.43407
 Alpha  occ. eigenvalues --   -0.43286  -0.43252  -0.43025  -0.42819  -0.42645
 Alpha  occ. eigenvalues --   -0.42623  -0.42456  -0.42357  -0.42292  -0.42148
 Alpha  occ. eigenvalues --   -0.42011  -0.41819  -0.41652  -0.41522  -0.41063
 Alpha  occ. eigenvalues --   -0.41055  -0.40889  -0.40875  -0.40729  -0.40550
 Alpha  occ. eigenvalues --   -0.40283  -0.40130  -0.39919  -0.39763  -0.39712
 Alpha  occ. eigenvalues --   -0.39431  -0.39318  -0.39126  -0.38982  -0.38777
 Alpha  occ. eigenvalues --   -0.38719  -0.38621  -0.38395  -0.38339  -0.38126
 Alpha  occ. eigenvalues --   -0.37983  -0.37781  -0.37714  -0.37493  -0.37488
 Alpha  occ. eigenvalues --   -0.37351  -0.36894  -0.36760  -0.36662  -0.36479
 Alpha  occ. eigenvalues --   -0.36367  -0.36185  -0.35959  -0.35938  -0.35856
 Alpha  occ. eigenvalues --   -0.35630  -0.35568  -0.35505  -0.35390  -0.35256
 Alpha  occ. eigenvalues --   -0.35001  -0.34550  -0.34193  -0.34025  -0.33974
 Alpha  occ. eigenvalues --   -0.33481  -0.33426  -0.32924  -0.32865  -0.32599
 Alpha  occ. eigenvalues --   -0.32427  -0.32074  -0.31548  -0.31328  -0.31043
 Alpha  occ. eigenvalues --   -0.30684  -0.30449  -0.29778  -0.29666  -0.28941
 Alpha  occ. eigenvalues --   -0.28887  -0.28785  -0.28475  -0.27408  -0.27048
 Alpha  occ. eigenvalues --   -0.26091  -0.26036  -0.25937  -0.25597  -0.25332
 Alpha  occ. eigenvalues --   -0.25266  -0.24993  -0.24588  -0.21098  -0.21077
 Alpha  occ. eigenvalues --   -0.19298  -0.19142
 Alpha virt. eigenvalues --   -0.11835  -0.11158  -0.06055  -0.04410  -0.04260
 Alpha virt. eigenvalues --   -0.03765  -0.02128  -0.02080  -0.00867  -0.00541
 Alpha virt. eigenvalues --   -0.00253  -0.00026   0.01117   0.01164   0.01397

 Mulliken charges:
               1
     1  Mg  11.998108
     2  C    5.969269
     3  C    5.978357
     4  C    6.033909
     5  C    6.011956
     6  N    6.972365
     7  C    6.030249
     8  C    5.987246
     9  C    6.001487
    10  C    5.987447
    11  C    6.003403
    12  C    5.998096
    13  C    6.001262
    14  H    1.003511
    15  N    7.003731
    16  C    5.970618
    17  C    5.980816
    18  C    5.986824
    19  C    5.971834
    20  C    5.999471
    21  C    5.988894
    22  O    7.965509
    23  C    6.004415
    24  N    7.024777
    25  C    5.966527
    26  C    6.004879
    27  C    5.995323
    28  C    6.017093
    29  C    5.999975
    30  C    5.995617
    31  C    6.000984
    32  N    6.998546
    33  C    6.026364
    34  C    6.032384
    35  C    5.996715
    36  C    6.038117
    37  C    5.998244
    38  C    6.013965
    39  O    8.023690
    40  C    6.006828
    41  C    6.006110
    42  O    8.003334
    43  O    8.000425
    44  C    5.997185
    45  H    0.979646
    46  H    1.001895
    47  H    1.016489
    48  H    0.998672
    49  H    0.999418
    50  H    0.999996
    51  H    0.998393
    52  H    0.985042
    53  H    1.010190
    54  H    0.993755
    55  H    0.994733
    56  H    1.001653
    57  H    0.982394
    58  H    0.987839
    59  H    0.985757
    60  H    0.992062
    61  H    0.986097
    62  H    0.995451
    63  H    1.005632
    64  H    1.002063
    65  H    1.004740
    66  H    1.003249
    67  H    0.993289
    68  H    0.998450
    69  H    1.006317
    70  H    1.007361
    71  H    1.005280
    72  H    1.002445
    73  H    1.012503
    74  H    1.020153
    75  H    1.018137
    76  H    1.005160
    77  H    1.003389
    78  H    1.005611
    79  H    1.000879
    80  Mg  12.000332
    81  C    5.999959
    82  C    6.000023
    83  C    6.000186
    84  C    5.999941
    85  N    6.999908
    86  C    6.000216
    87  C    5.999901
    88  C    6.000129
    89  C    5.999788
    90  C    6.000051
    91  C    5.999907
    92  C    6.000137
    93  H    0.999535
    94  N    7.000118
    95  C    5.999812
    96  C    5.999822
    97  C    5.999925
    98  C    5.999817
    99  C    6.000067
   100  C    5.999939
   101  O    7.999838
   102  C    6.000067
   103  N    7.000044
   104  C    5.999744
   105  C    6.000155
   106  C    5.999894
   107  C    6.000341
   108  C    5.999933
   109  C    5.999827
   110  C    6.000069
   111  N    7.000045
   112  C    6.000444
   113  C    6.000490
   114  C    5.999845
   115  C    6.000213
   116  C    5.999820
   117  C    6.000274
   118  O    7.999776
   119  C    5.999800
   120  C    5.999932
   121  O    8.000525
   122  O    7.999830
   123  C    6.000068
   124  H    0.999866
   125  H    0.999922
   126  H    1.000159
   127  H    0.999758
   128  H    0.999979
   129  H    0.999702
   130  H    0.999891
   131  H    0.999864
   132  H    1.000209
   133  H    1.000363
   134  H    1.000218
   135  H    1.000039
   136  H    0.999904
   137  H    0.999892
   138  H    0.999689
   139  H    0.999816
   140  H    0.999845
   141  H    1.000032
   142  H    1.000205
   143  H    0.999692
   144  H    0.999822
   145  H    0.999867
   146  H    1.000049
   147  H    1.000507
   148  H    1.000367
   149  H    0.999582
   150  H    1.000159
   151  H    1.000246
   152  H    1.000911
   153  H    0.999656
   154  H    0.999946
   155  H    0.999669
   156  H    0.999587
   157  H    1.000134
   158  H    0.999965
 Sum of Mulliken charges = 624.00000

 Dipole moment (field-independent basis, Debye):
    X=             -3.7426    Y=              4.3167    Z=             -8.5309  Tot=             10.2673
 Quadrupole moment (field-independent basis, Debye-Ang):
   XX=             67.9471   YY=             -3.8410   ZZ=             -6.0623
   XY=            -38.0622   XZ=             80.2445   YZ=              9.6864

 Normal termination of Gaussian 16 at Thu Oct 14 01:07:51 2021.
