 Gaussian 16, Revision A.03,
 Gaussian 16:  ES64L-G16RevA.03 25-Dec-2016

 --------------------------------------------------------
 #p PBE1PBE/Def2SVP td=(nstates=5) density=(transition=1)
 --------------------------------------------------------

 --------------------------------
 TDDFT excited states in gaussian
 --------------------------------
 Symbolic Z-matrix:
 Charge =  0 Multiplicity = 1

                         Standard orientation:
 ---------------------------------------------------------------------
 Center     Atomic      Atomic             Coordinates (Angstroms)
 Number     Number       Type             X           Y           Z
 ---------------------------------------------------------------------
      1         12           0        5.521661   -0.552436   -0.226105
      2          6           0        3.464769    1.996590   -1.485759
      3          6           0        8.218071    1.390181   -0.503809
      4          6           0        7.265159   -3.046862    0.874656
      5          6           0        2.767506   -2.781945   -0.955894
      6          7           0        5.768634    1.433071   -1.025513
      7          6           0        4.839256    2.350908   -1.319862
      8          6           0        5.453600    3.651354   -1.769591
      9          6           0        6.992250    3.293049   -1.839838
     10          6           0        7.014801    1.984152   -1.074413
     11          6           0        7.669178    3.186918   -3.244850
     12          6           0        5.209680    4.803471   -0.666614
     13          6           0        4.684979    6.145512   -1.274367
     14          1           0        4.161386    7.159544   -0.119388
     15          7           0        7.370105   -0.708563    0.355332
     16          6           0        8.378995    0.227813    0.206669
     17          6           0        9.514857   -0.200851    0.975515
     18          6           0        9.292842   -1.551503    1.468538
     19          6           0        7.875146   -1.817146    1.011460
     20          6           0       10.784239    0.698078    1.006095
     21          6           0       10.095890   -2.567501    2.272763
     22          8           0        9.691021   -3.669771    2.684279
     23          6           0       11.444729   -2.062527    2.645527
     24          7           0        5.063412   -2.607164   -0.242938
     25          6           0        6.039740   -3.408007    0.296207
     26          6           0        5.655715   -4.884413    0.191699
     27          6           0        4.132598   -4.783781   -0.084685
     28          6           0        3.960676   -3.326183   -0.516605
     29          6           0        6.573927   -5.607760   -0.871693
     30          6           0        3.177172   -5.167651    1.123774
     31          6           0        1.756050   -5.628901    0.762857
     32          7           0        3.496920   -0.460098   -1.014866
     33          6           0        2.563571   -1.429028   -1.227083
     34          6           0        1.302825   -0.858048   -1.645175
     35          6           0        1.624370    0.511110   -1.683048
     36          6           0        2.974825    0.702580   -1.357749
     37          6           0       -0.065456   -1.496462   -1.977479
     38          6           0        1.054414    1.804525   -1.938390
     39          8           0       -0.072600    2.195785   -2.094416
     40          6           0        2.314348    2.815836   -1.976678
     41          6           0        1.780091    3.945088   -1.210886
     42          8           0        1.723947    4.100878    0.035158
     43          8           0        1.329845    4.809257   -2.136816
     44          6           0        0.691241    6.044241   -1.679592
     45          1           0        9.089464    2.048527   -0.505593
     46          1           0        7.824049   -3.875456    1.315026
     47          1           0        1.941172   -3.487168   -1.066744
     48          1           0        5.064555    4.048948   -2.707373
     49          1           0        7.660978    3.939895   -1.271639
     50          1           0        7.904392    2.137136   -3.420069
     51          1           0        8.588244    3.766376   -3.159163
     52          1           0        7.109463    3.512888   -4.120827
     53          1           0        6.055752    5.025875   -0.015311
     54          1           0        4.526979    4.377115    0.068481
     55          1           0        3.860274    5.957511   -1.961529
     56          1           0        5.433880    6.745263   -1.791057
     57          1           0       10.690888    1.379231    1.850797
     58          1           0       10.813021    1.442527    0.209491
     59          1           0       11.744836    0.205418    0.857449
     60          1           0       11.439090   -1.169943    3.270118
     61          1           0       11.907568   -1.916282    1.668807
     62          1           0       12.065532   -2.802747    3.151074
     63          1           0        5.871751   -5.305193    1.173813
     64          1           0        3.866473   -5.479601   -0.880317
     65          1           0        6.005172   -5.823104   -1.776174
     66          1           0        7.025724   -6.563927   -0.608911
     67          1           0        7.396908   -5.025059   -1.286058
     68          1           0        3.023858   -4.208247    1.618622
     69          1           0        3.545268   -5.895432    1.847242
     70          1           0        0.996211   -4.925906    1.106704
     71          1           0        1.409178   -6.602835    1.108765
     72          1           0        1.699817   -5.558492   -0.322507
     73          1           0        0.153043   -2.522016   -2.275139
     74          1           0       -0.567075   -0.954744   -2.780456
     75          1           0       -0.636083   -1.494728   -1.048840
     76          1           0        2.483068    3.150400   -3.000404
     77          1           0        1.347630    6.880704   -1.918919
     78          1           0        0.368335    5.981950   -0.640930
     79          1           0       -0.191336    6.217316   -2.295262
     80         12           0       -5.207207   -0.779707    0.283241
     81          6           0       -3.870174    2.506118    1.057634
     82          6           0       -8.160983    0.785624   -0.152462
     83          6           0       -6.375442   -3.687426   -0.335775
     84          6           0       -2.064080   -2.172680    1.130148
     85          7           0       -5.917861    1.517875    0.423372
     86          6           0       -5.185926    2.621735    0.652755
     87          6           0       -6.036140    3.884051    0.413444
     88          6           0       -7.471689    3.183199    0.494301
     89          6           0       -7.184822    1.774605    0.182642
     90          6           0       -8.376476    3.524752    1.666338
     91          6           0       -5.641307    4.496477   -0.941531
     92          6           0       -5.923384    6.025845   -1.019636
     93          1           0       -6.286412    6.914532    0.258393
     94          7           0       -7.050240   -1.409062   -0.240040
     95          6           0       -8.196251   -0.639012   -0.293142
     96          6           0       -9.317568   -1.523512   -0.595033
     97          6           0       -8.795862   -2.833891   -0.728978
     98          6           0       -7.347028   -2.666704   -0.422013
     99          6           0      -10.707671   -1.081587   -0.718578
    100          6           0       -9.535545   -4.210449   -1.146130
    101          8           0       -8.914512   -5.209816   -1.384844
    102          6           0      -11.020605   -4.234913   -1.550168
    103          7           0       -4.388849   -2.682785    0.653341
    104          6           0       -5.048407   -3.723043    0.150015
    105          6           0       -4.282994   -5.018583    0.181514
    106          6           0       -2.845340   -4.449377    0.260475
    107          6           0       -3.145653   -3.037270    0.871153
    108          6           0       -4.619364   -5.951719    1.436199
    109          6           0       -2.028173   -4.421886   -1.098846
    110          6           0       -2.311948   -5.487839   -2.196908
    111          7           0       -3.388087   -0.065007    1.053242
    112          6           0       -2.203509   -0.681399    1.289015
    113          6           0       -1.190742    0.231334    1.572442
    114          6           0       -1.819238    1.443331    1.538888
    115          6           0       -3.146431    1.262738    1.203027
    116          6           0        0.282977   -0.100345    1.790397
    117          6           0       -1.532272    2.877113    1.695900
    118          8           0       -0.570331    3.492418    2.130768
    119          6           0       -2.888746    3.605067    1.294431
    120          6           0       -3.220952    4.528331    2.365319
    121          8           0       -3.726611    4.249254    3.457079
    122          8           0       -2.637591    5.706543    2.061460
    123          6           0       -2.562472    6.601000    3.202682
    124          1           0       -9.140059    1.267680   -0.111950
    125          1           0       -6.818573   -4.668692   -0.514920
    126          1           0       -1.089964   -2.639965    1.287723
    127          1           0       -5.969770    4.577636    1.251771
    128          1           0       -8.033100    3.570131   -0.355015
    129          1           0       -9.258946    4.082510    1.354346
    130          1           0       -7.830928    4.112656    2.404235
    131          1           0       -8.706581    2.658963    2.240438
    132          1           0       -6.298743    4.062663   -1.695309
    133          1           0       -4.622404    4.267187   -1.253021
    134          1           0       -6.634746    6.265134   -1.810735
    135          1           0       -5.033992    6.386514   -1.536170
    136          1           0      -10.774738   -0.024915   -0.976644
    137          1           0      -11.154710   -1.279779    0.255728
    138          1           0      -11.274124   -1.605170   -1.489015
    139          1           0      -11.236039   -3.690078   -2.469291
    140          1           0      -11.551779   -3.926726   -0.649360
    141          1           0      -11.354166   -5.266219   -1.668196
    142          1           0       -4.586893   -5.499032   -0.748188
    143          1           0       -2.211955   -4.984746    0.967376
    144          1           0       -4.732643   -6.924517    0.958278
    145          1           0       -5.544304   -5.695061    1.953835
    146          1           0       -3.833261   -6.040572    2.185061
    147          1           0       -0.964803   -4.416315   -0.863693
    148          1           0       -2.400533   -3.494161   -1.533694
    149          1           0       -3.127890   -5.161246   -2.841182
    150          1           0       -2.477433   -6.399621   -1.621941
    151          1           0       -1.432629   -5.697026   -2.805137
    152          1           0        0.450911   -0.997080    1.193466
    153          1           0        0.514005   -0.377105    2.818637
    154          1           0        0.877200    0.745108    1.444151
    155          1           0       -2.685849    4.139580    0.365553
    156          1           0       -2.073045    7.548339    2.978416
    157          1           0       -2.225256    6.165540    4.143444
    158          1           0       -3.559389    6.944450    3.481049
 ---------------------------------------------------------------------

 SCF Done:  E(RPBE1PBE) =  -4067.34461630     A.U. after   16 cycles

 Excitation energies and oscillator strengths:

 Excited State   1:      Singlet-A      1.6624 eV  745.80 nm  f=0.0014  <S**2>=0.000
     312 -> 313        0.70481
 This state for optimization and/or second-order correction.
 Total Energy, E(TD-HF/TD-DFT) =  -4067.28352284
 Copying the excited state density for this state as the 1-particle RhoCI density.

 Excited State   2:      Singlet-A      1.8539 eV  668.79 nm  f=0.6952  <S**2>=0.000
     309 -> 315       -0.17093
     311 -> 313        0.65007
     312 -> 314       -0.22903

 Excited State   3:      Singlet-A      1.9359 eV  640.43 nm  f=0.0327  <S**2>=0.000
     311 -> 313       -0.10011
     311 -> 314        0.61430
     312 -> 314       -0.32588

 Excited State   4:      Singlet-A      1.9540 eV  634.51 nm  f=0.1405  <S**2>=0.000
     310 -> 317       -0.14336
     311 -> 313        0.19801
     311 -> 314        0.34836
     312 -> 314        0.55873

 Excited State   5:      Singlet-A      2.0905 eV  593.08 nm  f=0.0021  <S**2>=0.000
     310 -> 313        0.70359

 The electronic state is 1-A.
 Alpha  occ. eigenvalues --  -46.92237 -46.90843 -19.25051 -19.25003 -19.20115
 Alpha  occ. eigenvalues --  -19.19686 -19.19140 -19.18404 -19.18233 -19.18095
 Alpha  occ. eigenvalues --  -14.41906 -14.41179 -14.40298 -14.40273 -14.38978
 Alpha  occ. eigenvalues --  -14.38958 -14.37956 -14.37843 -10.34963 -10.34579
 Alpha  occ. eigenvalues --  -10.33558 -10.32901 -10.31648 -10.31095 -10.29283
 Alpha  occ. eigenvalues --  -10.28815 -10.28379 -10.28085 -10.28053 -10.28002
 Alpha  occ. eigenvalues --  -10.27801 -10.27684 -10.27671 -10.27573 -10.27548
 Alpha  occ. eigenvalues --  -10.27462 -10.27310 -10.27202 -10.26944 -10.26899
 Alpha  occ. eigenvalues --  -10.26646 -10.26351 -10.26337 -10.26186 -10.26076
 Alpha  occ. eigenvalues --  -10.26014 -10.25998 -10.25640 -10.25515 -10.25473
 Alpha  occ. eigenvalues --  -10.25449 -10.25414 -10.25332 -10.25290 -10.25068
 Alpha  occ. eigenvalues --  -10.25051 -10.24990 -10.24915 -10.24902 -10.24767
 Alpha  occ. eigenvalues --  -10.24720 -10.24690 -10.24649 -10.24582 -10.24246
 Alpha  occ. eigenvalues --  -10.24144 -10.24079 -10.24039 -10.23976 -10.23916
 Alpha  occ. eigenvalues --  -10.23886 -10.23850 -10.23832 -10.23592 -10.23373
 Alpha  occ. eigenvalues --  -10.23344 -10.23224 -10.23200 -10.23137 -10.23033
 Alpha  occ. eigenvalues --  -10.22991 -10.22886 -10.22644 -10.22030 -10.21940
 Alpha  occ. eigenvalues --  -10.20967  -3.14319  -3.13257  -1.87160  -1.86712
 Alpha  occ. eigenvalues --   -1.86526  -1.86083  -1.85644  -1.85496  -1.10701
 Alpha  occ. eigenvalues --   -1.10229  -1.06779  -1.05375  -1.03899  -1.03239
 Alpha  occ. eigenvalues --   -1.00849  -1.00018  -0.99797  -0.99606  -0.99248
 Alpha  occ. eigenvalues --   -0.98849  -0.98652  -0.98156  -0.97749  -0.96899
 Alpha  occ. eigenvalues --   -0.86892  -0.86087  -0.83307  -0.82757  -0.82463
 Alpha  occ. eigenvalues --   -0.82401  -0.82326  -0.82186  -0.81667  -0.81182
 Alpha  occ. eigenvalues --   -0.81019  -0.80848  -0.80432  -0.79478  -0.78589
 Alpha  occ. eigenvalues --   -0.78117  -0.78010  -0.76985  -0.76649  -0.76303
 Alpha  occ. eigenvalues --   -0.76279  -0.75540  -0.75418  -0.74596  -0.74441
 Alpha  occ. eigenvalues --   -0.73961  -0.72293  -0.72229  -0.71575  -0.70979
 Alpha  occ. eigenvalues --   -0.70667  -0.70537  -0.69989  -0.69606  -0.69557
 Alpha  occ. eigenvalues --   -0.69152  -0.67081  -0.66695  -0.66433  -0.65595
 Alpha  occ. eigenvalues --   -0.63706  -0.63518  -0.63209  -0.62724  -0.62094
 Alpha  occ. eigenvalues --   -0.61549  -0.61451  -0.60616  -0.60265  -0.59980
 Alpha  occ. eigenvalues --   -0.59386  -0.59281  -0.59127  -0.58855  -0.58750
 Alpha  occ. eigenvalues --   -0.57782  -0.56018  -0.55892  -0.54755  -0.54646
 Alpha  occ. eigenvalues --   -0.54185  -0.53608  -0.53453  -0.53277  -0.53102
 Alpha  occ. eigenvalues --   -0.52604  -0.52502  -0.51794  -0.51440  -0.51211
 Alpha  occ. eigenvalues --   -0.50752  -0.50592  -0.50135  -0.49841  -0.49472
 Alpha  occ. eigenvalues --   -0.49249  -0.48984  -0.48679  -0.48373  -0.48034
 Alpha  occ. eigenvalues --   -0.47661  -0.47648  -0.47590  -0.47521  -0.47269
 Alpha  occ. eigenvalues --   -0.46999  -0.46909  -0.46824  -0.46584  -0.46324
 Alpha  occ. eigenvalues --   -0.46292  -0.45788  -0.45720  -0.45550  -0.45532
 Alpha  occ. eigenvalues --   -0.45345  -0.45105  -0.44917  -0.44806  -0.44685
 Alpha  occ. eigenvalues --   -0.44471  -0.44448  -0.44118  -0.43821  -0.43778
 Alpha  occ. eigenvalues --   -0.43565  -0.43287  -0.43253  -0.42964  -0.42880
 Alpha  occ. eigenvalues --   -0.42808  -0.42587  -0.42483  -0.42406  -0.42259
 Alpha  occ. eigenvalues --   -0.42176  -0.41941  -0.41849  -0.41786  -0.41613
 Alpha  occ. eigenvalues --   -0.41331  -0.41204  -0.41174  -0.40955  -0.40908
 Alpha  occ. eigenvalues --   -0.40452  -0.40383  -0.40326  -0.40104  -0.39964
 Alpha  occ. eigenvalues --   -0.39787  -0.39636  -0.39423  -0.39105  -0.38953
 Alpha  occ. eigenvalues --   -0.38839  -0.38652  -0.38554  -0.38498  -0.38294
 Alpha  occ. eigenvalues --   -0.38209  -0.38135  -0.38053  -0.37884  -0.37785
 Alpha  occ. eigenvalues --   -0.37603  -0.37566  -0.37519  -0.37500  -0.37458
 Alpha  occ. eigenvalues --   -0.37207  -0.37187  -0.36812  -0.36793  -0.36658
 Alpha  occ. eigenvalues --   -0.36524  -0.36455  -0.36393  -0.36177  -0.35763
 Alpha  occ. eigenvalues --   -0.35661  -0.35646  -0.35555  -0.35446  -0.35131
 Alpha  occ. eigenvalues --   -0.35023  -0.34421  -0.34340  -0.33763  -0.33756
 Alpha  occ. eigenvalues --   -0.33184  -0.32710  -0.32694  -0.32499  -0.32310
 Alpha  occ. eigenvalues --   -0.32102  -0.31886  -0.31210  -0.30285  -0.30277
 Alpha  occ. eigenvalues --   -0.30122  -0.29889  -0.29293  -0.29015  -0.28901
 Alpha  occ. eigenvalues --   -0.28057  -0.27421  -0.27316  -0.26783  -0.26489
 Alpha  occ. eigenvalues --   -0.26272  -0.26177  -0.25807  -0.25652  -0.25409
 Alpha  occ. eigenvalues --   -0.24993  -0.24558  -0.24355  -0.20972  -0.19861
 Alpha  occ. eigenvalues --   -0.18644  -0.18348
 Alpha virt. eigenvalues --   -0.10860  -0.10234  -0.05623  -0.04342  -0.04192
 Alpha virt. eigenvalues --   -0.03025  -0.01795  -0.01095   0.00053   0.00338
 Alpha virt. eigenvalues --    0.00565   0.01085   0.01113   0.01734   0.01971

 Mulliken charges:
               1
     1  Mg  11.999713
     2  C    5.999295
     3  C    6.000554
     4  C    5.999668
     5  C    5.999004
     6  N    6.999918
     7  C    6.000985
     8  C    5.999683
     9  C    6.000250
    10  C    5.998698
    11  C    6.000086
    12  C    5.999969
    13  C    6.000006
    14  H    0.999915
    15  N    7.000075
    16  C    5.998855
    17  C    5.999228
    18  C    5.999174
    19  C    5.999490
    20  C    6.000170
    21  C    5.999398
    22  O    7.998820
    23  C    6.000250
    24  N    6.999258
    25  C    5.999540
    26  C    6.000153
    27  C    5.999821
    28  C    6.001131
    29  C    6.000249
    30  C    6.000056
    31  C    5.999968
    32  N    7.000076
    33  C    6.000991
    34  C    6.001224
    35  C    5.999540
    36  C    6.001332
    37  C    6.000011
    38  C    5.999919
    39  O    8.000303
    40  C    6.000159
    41  C    6.000198
    42  O    7.999926
    43  O    8.000039
    44  C    5.999986
    45  H    0.999625
    46  H    0.999573
    47  H    0.999726
    48  H    0.999964
    49  H    0.999989
    50  H    1.000026
    51  H    0.999878
    52  H    0.999491
    53  H    1.000356
    54  H    0.999844
    55  H    0.999845
    56  H    1.000138
    57  H    0.999280
    58  H    0.999326
    59  H    0.999400
    60  H    0.999602
    61  H    0.999737
    62  H    0.999358
    63  H    0.999948
    64  H    0.999934
    65  H    0.999502
    66  H    0.999774
    67  H    1.000139
    68  H    0.999945
    69  H    1.000173
    70  H    0.999829
    71  H    1.000033
    72  H    0.999940
    73  H    1.000724
    74  H    1.000226
    75  H    0.999897
    76  H    1.000106
    77  H    1.000178
    78  H    0.999966
    79  H    0.999968
    80  Mg  12.000078
    81  C    5.998859
    82  C    5.998541
    83  C    6.001086
    84  C    6.001670
    85  N    6.998941
    86  C    6.001363
    87  C    5.999829
    88  C    5.999671
    89  C    6.001475
    90  C    5.999976
    91  C    5.999906
    92  C    5.999874
    93  H    1.000253
    94  N    6.999917
    95  C    6.001219
    96  C    5.999661
    97  C    6.000804
    98  C    5.999478
    99  C    5.999959
   100  C    6.000220
   101  O    8.000398
   102  C    5.999919
   103  N    7.000736
   104  C    5.999394
   105  C    6.000113
   106  C    6.000334
   107  C    5.998253
   108  C    5.999922
   109  C    5.999265
   110  C    6.000115
   111  N    6.999829
   112  C    5.999781
   113  C    6.000070
   114  C    5.999681
   115  C    6.001390
   116  C    6.000179
   117  C    5.999925
   118  O    8.000108
   119  C    6.000235
   120  C    5.999898
   121  O    8.000036
   122  O    8.000020
   123  C    5.999932
   124  H    0.999919
   125  H    1.000311
   126  H    1.000255
   127  H    1.000317
   128  H    1.000334
   129  H    1.000224
   130  H    1.000161
   131  H    1.000176
   132  H    1.000129
   133  H    1.000101
   134  H    1.000163
   135  H    1.000159
   136  H    1.000203
   137  H    1.000183
   138  H    1.000187
   139  H    1.000168
   140  H    1.000152
   141  H    1.000261
   142  H    0.999838
   143  H    0.999947
   144  H    1.000040
   145  H    0.999863
   146  H    1.000217
   147  H    1.000002
   148  H    0.999760
   149  H    0.999894
   150  H    1.000069
   151  H    1.000112
   152  H    0.999992
   153  H    1.000737
   154  H    1.000790
   155  H    1.000238
   156  H    1.000137
   157  H    1.000092
   158  H    1.000036
 Sum of Mulliken charges = 624.00000

 Dipole moment (field-independent basis, Debye):
    X=             -0.6622    Y=              0.0805    Z=             -0.0668  Tot=              0.6704
 Quadrupole moment (field-independent basis, Debye-Ang):
   XX=             -2.9786   YY=              0.1042   ZZ=              0.0033
   XY=              0.6848   XZ=             -0.5257   YZ=              0.2665

 Normal termination of Gaussian 16 at Thu Oct 14 19:46:29 2021.
