 Gaussian 16, Revision A.03,
 Gaussian 16:  ES64L-G16RevA.03 25-Dec-2016

 --------------------------------------------------------
 #p PBE1PBE/Def2SVP td=(nstates=5) density=(transition=1)
 --------------------------------------------------------

 --------------------------------
 TDDFT excited states in gaussian
 --------------------------------
 Symbolic Z-matrix:
 Charge =  0 Multiplicity = 1

                         Standard orientation:
 ---------------------------------------------------------------------
 Center     Atomic      Atomic             Coordinates (Angstroms)
 Number     Number       Type             X           Y           Z
 ---------------------------------------------------------------------
      1         12           0      -27.211057   -0.623046   -0.147678
      2          6           0      -25.439090    2.097419   -1.256274
      3          6           0      -28.969924    1.452521    1.939386
      4          6           0      -28.934738   -3.376468    1.067121
      5          6           0      -25.113426   -2.723349   -1.939054
      6          7           0      -27.190282    1.563532    0.355723
      7          6           0      -26.414986    2.458090   -0.325532
      8          6           0      -26.678273    3.816736    0.113253
      9          6           0      -27.642649    3.686317    1.281581
     10          6           0      -27.963819    2.128214    1.251022
     11          6           0      -27.181725    4.174264    2.698406
     12          6           0      -27.217121    4.709419   -1.056060
     13          6           0      -26.822790    6.226654   -1.034403
     14          1           0      -26.560858    6.866675    0.343059
     15          7           0      -28.827283   -0.872965    1.232294
     16          6           0      -29.410853    0.141113    1.972234
     17          6           0      -30.470647   -0.437794    2.822638
     18          6           0      -30.478401   -1.877264    2.570330
     19          6           0      -29.412404   -2.102893    1.578734
     20          6           0      -31.330683    0.355556    3.792820
     21          6           0      -31.456079   -2.900297    3.099820
     22          8           0      -31.362747   -4.079509    2.716166
     23          6           0      -32.523203   -2.616705    4.089709
     24          7           0      -27.011034   -2.758830   -0.329137
     25          6           0      -27.865871   -3.628918    0.216165
     26          6           0      -27.587232   -5.055193   -0.286650
     27          6           0      -26.499193   -4.861010   -1.477948
     28          6           0      -26.246263   -3.323620   -1.290255
     29          6           0      -27.125677   -5.987612    0.875474
     30          6           0      -27.015845   -5.163409   -2.911279
     31          6           0      -26.409285   -6.400392   -3.590502
     32          7           0      -25.540364   -0.417944   -1.318572
     33          6           0      -24.763114   -1.368060   -1.985049
     34          6           0      -23.673780   -0.701498   -2.732571
     35          6           0      -23.928961    0.657247   -2.431710
     36          6           0      -25.054079    0.772773   -1.572173
     37          6           0      -22.671551   -1.298701   -3.591866
     38          6           0      -23.509704    2.034452   -2.764397
     39          8           0      -22.672485    2.454784   -3.518139
     40          6           0      -24.453417    3.009975   -1.974816
     41          6           0      -23.617156    3.928987   -1.186238
     42          8           0      -23.004810    3.518014   -0.187408
     43          8           0      -23.694501    5.236369   -1.557639
     44          6           0      -23.063455    6.244153   -0.711289
     45          1           0      -29.512363    2.140599    2.591135
     46          1           0      -29.463746   -4.233855    1.488998
     47          1           0      -24.562448   -3.410086   -2.584863
     48          1           0      -25.738869    4.239759    0.470830
     49          1           0      -28.618327    4.109528    1.039916
     50          1           0      -26.204126    4.629306    2.860869
     51          1           0      -27.253498    3.328455    3.381749
     52          1           0      -27.878921    4.869924    3.166042
     53          1           0      -28.296127    4.582769   -1.145234
     54          1           0      -26.954448    4.240327   -2.004060
     55          1           0      -27.590213    6.818416   -1.534181
     56          1           0      -25.862907    6.422372   -1.511420
     57          1           0      -31.186924    1.432760    3.716143
     58          1           0      -31.087040    0.107545    4.826271
     59          1           0      -32.380844    0.274877    3.512762
     60          1           0      -33.100345   -3.535569    4.188633
     61          1           0      -33.176015   -1.791311    3.802700
     62          1           0      -32.072457   -2.264426    5.017675
     63          1           0      -28.493279   -5.393786   -0.789345
     64          1           0      -25.568183   -5.393562   -1.284076
     65          1           0      -27.667686   -6.932535    0.915810
     66          1           0      -27.270474   -5.503686    1.841753
     67          1           0      -26.054823   -6.104839    0.707559
     68          1           0      -26.860155   -4.340372   -3.607752
     69          1           0      -28.096754   -5.304088   -2.931929
     70          1           0      -26.110505   -7.121652   -2.829746
     71          1           0      -25.517584   -6.082762   -4.130029
     72          1           0      -27.138253   -6.739382   -4.325414
     73          1           0      -22.218796   -0.580575   -4.275181
     74          1           0      -23.052411   -2.129099   -4.186089
     75          1           0      -21.812159   -1.548862   -2.969629
     76          1           0      -24.978210    3.496880   -2.797476
     77          1           0      -21.975658    6.180360   -0.672885
     78          1           0      -23.513141    6.257648    0.281491
     79          1           0      -23.245598    7.233920   -1.129669
     80         12           0       27.350938   -0.619057    0.151130
     81          6           0       25.513238    2.237144    1.071970
     82          6           0       28.354430    1.109768   -2.694000
     83          6           0       28.798670   -3.440692   -0.833767
     84          6           0       25.556372   -2.501216    2.626507
     85          7           0       26.962421    1.399267   -0.711578
     86          6           0       26.267826    2.433354   -0.068402
     87          6           0       26.658767    3.759349   -0.694245
     88          6           0       27.328462    3.384310   -2.046858
     89          6           0       27.571423    1.864243   -1.803538
     90          6           0       26.540148    3.762183   -3.340115
     91          6           0       27.531995    4.683872    0.223100
     92          6           0       27.306410    6.241372   -0.017795
     93          1           0       26.333078    6.660216   -1.122875
     94          7           0       28.493580   -1.039253   -1.415909
     95          6           0       28.860184   -0.183759   -2.440546
     96          6           0       29.801340   -0.816728   -3.318784
     97          6           0       29.856998   -2.179708   -2.884300
     98          6           0       29.071035   -2.243123   -1.665018
     99          6           0       30.421815   -0.120016   -4.568106
    100          6           0       30.566224   -3.334167   -3.513246
    101          8           0       30.397121   -4.508187   -3.105745
    102          6           0       31.510675   -3.351272   -4.751091
    103          7           0       27.012342   -2.730480    0.608577
    104          6           0       27.828588   -3.688319    0.129857
    105          6           0       27.671173   -4.994082    0.948922
    106          6           0       26.627105   -4.713196    2.035564
    107          6           0       26.410950   -3.159445    1.763109
    108          6           0       27.461583   -6.185893    0.065395
    109          6           0       27.022184   -5.036853    3.492442
    110          6           0       28.272721   -4.291572    4.020547
    111          7           0       25.777834   -0.284922    1.560111
    112          6           0       25.312153   -1.082339    2.549581
    113          6           0       24.519620   -0.231120    3.435593
    114          6           0       24.559345    1.106219    2.950935
    115          6           0       25.311204    1.023531    1.753738
    116          6           0       23.875199   -0.668266    4.748424
    117          6           0       24.123649    2.448106    3.172172
    118          8           0       23.535420    3.013062    4.090420
    119          6           0       24.705104    3.279059    1.852000
    120          6           0       23.557238    4.003276    1.174096
    121          8           0       22.775755    3.463452    0.415754
    122          8           0       23.592918    5.350092    1.455667
    123          6           0       22.393915    6.150666    1.229777
    124          1           0       28.705862    1.783948   -3.477620
    125          1           0       29.376311   -4.311335   -1.150309
    126          1           0       25.154054   -3.111542    3.437373
    127          1           0       25.758937    4.338123   -0.902129
    128          1           0       28.294541    3.887653   -2.071488
    129          1           0       26.453389    2.801969   -3.847498
    130          1           0       27.146893    4.394238   -3.989666
    131          1           0       25.541972    4.192456   -3.259145
    132          1           0       28.594939    4.555482    0.021100
    133          1           0       27.358528    4.404894    1.261625
    134          1           0       28.249387    6.652312   -0.378718
    135          1           0       27.001322    6.673753    0.934821
    136          1           0       30.480821   -0.864721   -5.362791
    137          1           0       31.436952    0.233152   -4.389966
    138          1           0       29.966679    0.767787   -5.006889
    139          1           0       32.339513   -2.656649   -4.611716
    140          1           0       30.980956   -3.154865   -5.683213
    141          1           0       32.147862   -4.232387   -4.816883
    142          1           0       28.666494   -5.215626    1.331947
    143          1           0       25.709134   -5.165395    1.658482
    144          1           0       28.362840   -6.787312   -0.054940
    145          1           0       27.065996   -5.867765   -0.899315
    146          1           0       26.688503   -6.871036    0.415061
    147          1           0       27.255294   -6.101128    3.453754
    148          1           0       26.174648   -4.869621    4.157797
    149          1           0       27.921257   -3.718790    4.878501
    150          1           0       28.618442   -3.647251    3.212150
    151          1           0       29.123226   -4.938083    4.237360
    152          1           0       24.014091    0.060373    5.546602
    153          1           0       24.362283   -1.553347    5.156663
    154          1           0       22.836006   -0.927609    4.544286
    155          1           0       25.358476    4.037907    2.283286
    156          1           0       21.955919    5.794491    0.296990
    157          1           0       22.571546    7.220555    1.120205
    158          1           0       21.781434    6.012915    2.120874
 ---------------------------------------------------------------------

 SCF Done:  E(RPBE1PBE) =  -4067.42193341     A.U. after   16 cycles

 Excitation energies and oscillator strengths:

 Excited State   1:      Singlet-A      1.8004 eV  688.64 nm  f=0.0000  <S**2>=0.000
     312 -> 313        0.70711
 This state for optimization and/or second-order correction.
 Total Energy, E(TD-HF/TD-DFT) =  -4067.35576912
 Copying the excited state density for this state as the 1-particle RhoCI density.

 Excited State   2:      Singlet-A      1.8182 eV  681.90 nm  f=0.3858  <S**2>=0.000
     309 -> 316        0.16261
     311 -> 313        0.69668
     311 <- 313       -0.11885

 Excited State   3:      Singlet-A      1.8897 eV  656.10 nm  f=0.3725  <S**2>=0.000
     310 -> 315       -0.18006
     312 -> 314        0.68961
     312 <- 314       -0.10437

 Excited State   4:      Singlet-A      2.1681 eV  571.84 nm  f=0.0000  <S**2>=0.000
     311 -> 314        0.70711

 Excited State   5:      Singlet-A      2.1901 eV  566.10 nm  f=0.1402  <S**2>=0.000
     309 -> 313        0.66503
     311 -> 316       -0.22001

 The electronic state is 1-A.
 Alpha  occ. eigenvalues --  -46.92311 -46.92264 -19.26563 -19.24906 -19.19671
 Alpha  occ. eigenvalues --  -19.19510 -19.19444 -19.19245 -19.18549 -19.18511
 Alpha  occ. eigenvalues --  -14.41914 -14.41300 -14.41206 -14.41066 -14.39870
 Alpha  occ. eigenvalues --  -14.39168 -14.39122 -14.38882 -10.36536 -10.36096
 Alpha  occ. eigenvalues --  -10.32797 -10.32538 -10.32036 -10.32007 -10.29513
 Alpha  occ. eigenvalues --  -10.29079 -10.28726 -10.28619 -10.28607 -10.28524
 Alpha  occ. eigenvalues --  -10.28374 -10.28311 -10.28310 -10.28207 -10.28107
 Alpha  occ. eigenvalues --  -10.27998 -10.27811 -10.27716 -10.27691 -10.27659
 Alpha  occ. eigenvalues --  -10.26965 -10.26913 -10.26802 -10.26793 -10.26792
 Alpha  occ. eigenvalues --  -10.26361 -10.26063 -10.26050 -10.25919 -10.25900
 Alpha  occ. eigenvalues --  -10.25883 -10.25866 -10.25785 -10.25626 -10.25590
 Alpha  occ. eigenvalues --  -10.25550 -10.25327 -10.25320 -10.25233 -10.25206
 Alpha  occ. eigenvalues --  -10.25115 -10.25088 -10.25069 -10.24978 -10.24948
 Alpha  occ. eigenvalues --  -10.24761 -10.24677 -10.24609 -10.24398 -10.24393
 Alpha  occ. eigenvalues --  -10.24103 -10.23845 -10.23681 -10.23666 -10.23653
 Alpha  occ. eigenvalues --  -10.23521 -10.23498 -10.23481 -10.23325 -10.23142
 Alpha  occ. eigenvalues --  -10.23136 -10.23059 -10.23002 -10.22998 -10.22784
 Alpha  occ. eigenvalues --  -10.22370  -3.14459  -3.14271  -1.87269  -1.87134
 Alpha  occ. eigenvalues --   -1.86833  -1.86696  -1.86629  -1.86501  -1.11173
 Alpha  occ. eigenvalues --   -1.10196  -1.05695  -1.04262  -1.03583  -1.03025
 Alpha  occ. eigenvalues --   -1.02260  -1.01889  -0.99726  -0.98873  -0.98704
 Alpha  occ. eigenvalues --   -0.98051  -0.98043  -0.97872  -0.96867  -0.95582
 Alpha  occ. eigenvalues --   -0.86822  -0.86576  -0.83508  -0.83405  -0.82773
 Alpha  occ. eigenvalues --   -0.82565  -0.82396  -0.82001  -0.81710  -0.81495
 Alpha  occ. eigenvalues --   -0.81060  -0.80986  -0.80445  -0.79719  -0.78235
 Alpha  occ. eigenvalues --   -0.78048  -0.77818  -0.77654  -0.76566  -0.76441
 Alpha  occ. eigenvalues --   -0.75984  -0.75503  -0.75326  -0.74960  -0.74886
 Alpha  occ. eigenvalues --   -0.74116  -0.72851  -0.72741  -0.71840  -0.71599
 Alpha  occ. eigenvalues --   -0.71273  -0.71046  -0.70532  -0.70138  -0.69327
 Alpha  occ. eigenvalues --   -0.69229  -0.67050  -0.67021  -0.65966  -0.65491
 Alpha  occ. eigenvalues --   -0.64241  -0.63536  -0.63528  -0.62833  -0.62729
 Alpha  occ. eigenvalues --   -0.62454  -0.61900  -0.61348  -0.60246  -0.59837
 Alpha  occ. eigenvalues --   -0.59749  -0.59592  -0.59287  -0.58868  -0.58736
 Alpha  occ. eigenvalues --   -0.58604  -0.57300  -0.56227  -0.55394  -0.54380
 Alpha  occ. eigenvalues --   -0.54099  -0.54052  -0.53763  -0.53366  -0.53205
 Alpha  occ. eigenvalues --   -0.52892  -0.52735  -0.52022  -0.51851  -0.51446
 Alpha  occ. eigenvalues --   -0.50673  -0.50477  -0.50303  -0.50278  -0.49901
 Alpha  occ. eigenvalues --   -0.49355  -0.49316  -0.49255  -0.48505  -0.48475
 Alpha  occ. eigenvalues --   -0.48048  -0.47999  -0.47690  -0.47597  -0.47350
 Alpha  occ. eigenvalues --   -0.47297  -0.47139  -0.46921  -0.46689  -0.46593
 Alpha  occ. eigenvalues --   -0.46493  -0.46236  -0.46099  -0.45900  -0.45804
 Alpha  occ. eigenvalues --   -0.45716  -0.45639  -0.45316  -0.44850  -0.44506
 Alpha  occ. eigenvalues --   -0.44454  -0.44402  -0.44132  -0.43911  -0.43858
 Alpha  occ. eigenvalues --   -0.43835  -0.43701  -0.43537  -0.43424  -0.43195
 Alpha  occ. eigenvalues --   -0.43129  -0.43037  -0.42818  -0.42750  -0.42576
 Alpha  occ. eigenvalues --   -0.42463  -0.42323  -0.42105  -0.42075  -0.41844
 Alpha  occ. eigenvalues --   -0.41757  -0.41399  -0.41343  -0.41061  -0.40950
 Alpha  occ. eigenvalues --   -0.40940  -0.40637  -0.40575  -0.40440  -0.40257
 Alpha  occ. eigenvalues --   -0.40166  -0.39952  -0.39900  -0.39728  -0.39423
 Alpha  occ. eigenvalues --   -0.39305  -0.39267  -0.39121  -0.38979  -0.38850
 Alpha  occ. eigenvalues --   -0.38792  -0.38584  -0.38409  -0.38302  -0.38198
 Alpha  occ. eigenvalues --   -0.37975  -0.37968  -0.37815  -0.37661  -0.37505
 Alpha  occ. eigenvalues --   -0.37450  -0.37272  -0.36961  -0.36788  -0.36736
 Alpha  occ. eigenvalues --   -0.36587  -0.36488  -0.36331  -0.36284  -0.35968
 Alpha  occ. eigenvalues --   -0.35745  -0.35561  -0.35529  -0.35417  -0.35253
 Alpha  occ. eigenvalues --   -0.34998  -0.34846  -0.34585  -0.34499  -0.34115
 Alpha  occ. eigenvalues --   -0.33645  -0.33143  -0.32799  -0.32622  -0.32463
 Alpha  occ. eigenvalues --   -0.32177  -0.31902  -0.31709  -0.31644  -0.31356
 Alpha  occ. eigenvalues --   -0.31062  -0.30862  -0.29245  -0.29193  -0.28901
 Alpha  occ. eigenvalues --   -0.28898  -0.28478  -0.28412  -0.27060  -0.26676
 Alpha  occ. eigenvalues --   -0.26279  -0.25803  -0.25783  -0.25657  -0.25531
 Alpha  occ. eigenvalues --   -0.25252  -0.25109  -0.24949  -0.21051  -0.20796
 Alpha  occ. eigenvalues --   -0.18978  -0.18482
 Alpha virt. eigenvalues --   -0.11622  -0.10766  -0.05196  -0.05013  -0.04266
 Alpha virt. eigenvalues --   -0.03632  -0.02307  -0.01805  -0.01261  -0.00217
 Alpha virt. eigenvalues --    0.00365   0.00606   0.01079   0.01334   0.01842

 Mulliken charges:
               1
     1  Mg  12.000000
     2  C    6.000000
     3  C    6.000000
     4  C    6.000000
     5  C    6.000000
     6  N    7.000000
     7  C    6.000000
     8  C    6.000000
     9  C    6.000000
    10  C    6.000000
    11  C    6.000000
    12  C    6.000000
    13  C    6.000000
    14  H    1.000000
    15  N    7.000000
    16  C    6.000000
    17  C    6.000000
    18  C    6.000000
    19  C    6.000000
    20  C    6.000000
    21  C    6.000000
    22  O    8.000000
    23  C    6.000000
    24  N    7.000000
    25  C    6.000000
    26  C    6.000000
    27  C    6.000000
    28  C    6.000000
    29  C    6.000000
    30  C    6.000000
    31  C    6.000000
    32  N    7.000000
    33  C    6.000000
    34  C    6.000000
    35  C    6.000000
    36  C    6.000000
    37  C    6.000000
    38  C    6.000000
    39  O    8.000000
    40  C    6.000000
    41  C    6.000000
    42  O    8.000000
    43  O    8.000000
    44  C    6.000000
    45  H    1.000000
    46  H    1.000000
    47  H    1.000000
    48  H    1.000000
    49  H    1.000000
    50  H    1.000000
    51  H    1.000000
    52  H    1.000000
    53  H    1.000000
    54  H    1.000000
    55  H    1.000000
    56  H    1.000000
    57  H    1.000000
    58  H    1.000000
    59  H    1.000000
    60  H    1.000000
    61  H    1.000000
    62  H    1.000000
    63  H    1.000000
    64  H    1.000000
    65  H    1.000000
    66  H    1.000000
    67  H    1.000000
    68  H    1.000000
    69  H    1.000000
    70  H    1.000000
    71  H    1.000000
    72  H    1.000000
    73  H    1.000000
    74  H    1.000000
    75  H    1.000000
    76  H    1.000000
    77  H    1.000000
    78  H    1.000000
    79  H    1.000000
    80  Mg  12.000000
    81  C    6.000000
    82  C    6.000000
    83  C    6.000000
    84  C    6.000000
    85  N    7.000000
    86  C    6.000000
    87  C    6.000000
    88  C    6.000000
    89  C    6.000000
    90  C    6.000000
    91  C    6.000000
    92  C    6.000000
    93  H    1.000000
    94  N    7.000000
    95  C    6.000000
    96  C    6.000000
    97  C    6.000000
    98  C    6.000000
    99  C    6.000000
   100  C    6.000000
   101  O    8.000000
   102  C    6.000000
   103  N    7.000000
   104  C    6.000000
   105  C    6.000000
   106  C    6.000000
   107  C    6.000000
   108  C    6.000000
   109  C    6.000000
   110  C    6.000000
   111  N    7.000000
   112  C    6.000000
   113  C    6.000000
   114  C    6.000000
   115  C    6.000000
   116  C    6.000000
   117  C    6.000000
   118  O    8.000000
   119  C    6.000000
   120  C    6.000000
   121  O    8.000000
   122  O    8.000000
   123  C    6.000000
   124  H    1.000000
   125  H    1.000000
   126  H    1.000000
   127  H    1.000000
   128  H    1.000000
   129  H    1.000000
   130  H    1.000000
   131  H    1.000000
   132  H    1.000000
   133  H    1.000000
   134  H    1.000000
   135  H    1.000000
   136  H    1.000000
   137  H    1.000000
   138  H    1.000000
   139  H    1.000000
   140  H    1.000000
   141  H    1.000000
   142  H    1.000000
   143  H    1.000000
   144  H    1.000000
   145  H    1.000000
   146  H    1.000000
   147  H    1.000000
   148  H    1.000000
   149  H    1.000000
   150  H    1.000000
   151  H    1.000000
   152  H    1.000000
   153  H    1.000000
   154  H    1.000000
   155  H    1.000000
   156  H    1.000000
   157  H    1.000000
   158  H    1.000000
 Sum of Mulliken charges = 624.00000

 Dipole moment (field-independent basis, Debye):
    X=              0.0000    Y=              0.0000    Z=             -0.0000  Tot=              0.0000
 Quadrupole moment (field-independent basis, Debye-Ang):
   XX=             -0.0000   YY=              0.0000   ZZ=             -0.0000
   XY=             -0.0000   XZ=              0.0000   YZ=              0.0000

 Normal termination of Gaussian 16 at Fri Oct 15 01:43:19 2021.
