 Gaussian 16, Revision A.03,
 Gaussian 16:  ES64L-G16RevA.03 25-Dec-2016

 --------------------------------------------------------
 #p PBE1PBE/Def2SVP td=(nstates=5) density=(transition=1)
 --------------------------------------------------------

 --------------------------------
 TDDFT excited states in gaussian
 --------------------------------
 Symbolic Z-matrix:
 Charge =  0 Multiplicity = 1

                         Standard orientation:
 ---------------------------------------------------------------------
 Center     Atomic      Atomic             Coordinates (Angstroms)
 Number     Number       Type             X           Y           Z
 ---------------------------------------------------------------------
      1         12           0      -32.147146    0.104111    0.376606
      2          6           0      -29.774584   -1.927517   -1.054216
      3          6           0      -32.764917    1.474273   -2.848396
      4          6           0      -34.107133    2.524244    1.692311
      5          6           0      -31.325759   -0.952795    3.452141
      6          7           0      -31.345429   -0.199828   -1.716482
      7          6           0      -30.356190   -1.097180   -2.017357
      8          6           0      -30.107772   -1.156558   -3.526232
      9          6           0      -30.959672    0.103435   -4.017197
     10          6           0      -31.740243    0.494294   -2.796500
     11          6           0      -30.099219    1.251496   -4.661616
     12          6           0      -30.592056   -2.519514   -4.202691
     13          6           0      -29.768585   -3.254978   -5.232438
     14          1           0      -29.172178   -2.475311   -6.350016
     15          7           0      -33.345024    1.765867   -0.447793
     16          6           0      -33.595643    2.027369   -1.749523
     17          6           0      -34.615082    3.011535   -1.896525
     18          6           0      -35.059051    3.322323   -0.572536
     19          6           0      -34.098536    2.566280    0.285454
     20          6           0      -34.947268    3.498743   -3.269951
     21          6           0      -36.079556    4.356875   -0.129588
     22          8           0      -36.176366    4.730448    1.043506
     23          6           0      -37.016762    4.989761   -1.143161
     24          7           0      -32.546247    0.822506    2.341450
     25          6           0      -33.495705    1.754223    2.619752
     26          6           0      -33.760410    1.823141    4.122819
     27          6           0      -32.977643    0.563205    4.655374
     28          6           0      -32.239289    0.101922    3.414322
     29          6           0      -33.508843    3.132001    4.928297
     30          6           0      -33.835783   -0.557106    5.378499
     31          6           0      -34.381021   -1.731529    4.593775
     32          7           0      -30.780029   -1.083778    1.099418
     33          6           0      -30.600441   -1.577772    2.366539
     34          6           0      -29.529108   -2.500690    2.464996
     35          6           0      -29.195759   -2.715150    1.131297
     36          6           0      -29.998093   -1.849975    0.343692
     37          6           0      -28.898396   -3.245930    3.634081
     38          6           0      -28.358033   -3.403192    0.249850
     39          8           0      -27.465880   -4.187163    0.516688
     40          6           0      -28.652226   -2.924277   -1.280779
     41          6           0      -27.422106   -2.351920   -1.813753
     42          8           0      -26.859571   -1.316835   -1.404928
     43          8           0      -26.869714   -3.090973   -2.812009
     44          6           0      -25.487644   -2.812512   -3.218329
     45          1           0      -32.927603    1.754150   -3.890948
     46          1           0      -34.934943    3.091424    2.122519
     47          1           0      -31.293873   -1.567910    4.353033
     48          1           0      -29.031611   -1.113358   -3.698691
     49          1           0      -31.643348   -0.168175   -4.821684
     50          1           0      -30.452874    1.395702   -5.681938
     51          1           0      -29.067859    0.918637   -4.543708
     52          1           0      -30.249116    2.243025   -4.233335
     53          1           0      -31.529498   -2.203599   -4.660741
     54          1           0      -30.976309   -3.211609   -3.454132
     55          1           0      -30.320083   -4.119532   -5.601823
     56          1           0      -28.884868   -3.603007   -4.698848
     57          1           0      -36.036066    3.510015   -3.304052
     58          1           0      -34.624106    2.780822   -4.024187
     59          1           0      -34.552636    4.477755   -3.543933
     60          1           0      -37.430367    4.285597   -1.865696
     61          1           0      -36.566159    5.900672   -1.539620
     62          1           0      -37.870477    5.313499   -0.547023
     63          1           0      -34.845782    1.739778    4.182642
     64          1           0      -32.307616    0.800951    5.480741
     65          1           0      -32.643792    3.013377    5.580608
     66          1           0      -34.395561    3.284764    5.543289
     67          1           0      -33.370893    3.914091    4.182509
     68          1           0      -34.682961   -0.047354    5.835330
     69          1           0      -33.250529   -1.008416    6.180003
     70          1           0      -35.452984   -1.858948    4.746470
     71          1           0      -33.891194   -2.677855    4.827030
     72          1           0      -34.177115   -1.486343    3.551450
     73          1           0      -29.440118   -2.998255    4.547736
     74          1           0      -27.846859   -2.967901    3.709626
     75          1           0      -28.966923   -4.315654    3.438365
     76          1           0      -28.830559   -3.891711   -1.751110
     77          1           0      -24.986746   -3.654614   -3.696090
     78          1           0      -24.857058   -2.353801   -2.457312
     79          1           0      -25.579117   -2.131092   -4.064284
     80         12           0       32.037772    0.503010   -0.407012
     81          6           0       29.464644   -1.788536   -0.167721
     82          6           0       29.696754    3.014015   -0.152422
     83          6           0       34.605768    2.754854   -0.041228
     84          6           0       34.325845   -2.065556   -0.542577
     85          7           0       29.881342    0.602120    0.012050
     86          6           0       29.039286   -0.492292   -0.004912
     87          6           0       27.576687   -0.087299    0.158171
     88          6           0       27.648327    1.447813   -0.183039
     89          6           0       29.142406    1.706792   -0.055576
     90          6           0       26.978078    1.927338   -1.549440
     91          6           0       26.906980   -0.437759    1.525143
     92          6           0       25.522082   -1.044231    1.442591
     93          1           0       24.449294   -0.095577    1.954437
     94          7           0       32.097868    2.560701   -0.123630
     95          6           0       31.057722    3.400586   -0.074866
     96          6           0       31.510646    4.777850    0.015821
     97          6           0       32.893995    4.826345    0.060038
     98          6           0       33.281656    3.351142    0.017213
     99          6           0       30.497206    6.012035    0.149218
    100          6           0       33.795201    6.107047    0.071100
    101          8           0       33.237282    7.239279    0.129291
    102          6           0       35.273716    6.025824    0.066854
    103          7           0       34.240742    0.355964   -0.055026
    104          6           0       35.049787    1.388640   -0.113363
    105          6           0       36.489947    0.993726   -0.365192
    106          6           0       36.515366   -0.570149   -0.450207
    107          6           0       34.932112   -0.822710   -0.426027
    108          6           0       37.349941    1.790856   -1.397276
    109          6           0       37.251483   -1.409388    0.634078
    110          6           0       37.536311   -2.829474    0.190662
    111          7           0       31.929202   -1.559838   -0.352320
    112          6           0       32.962229   -2.513368   -0.504949
    113          6           0       32.353814   -3.813713   -0.578369
    114          6           0       30.956330   -3.603848   -0.485023
    115          6           0       30.802606   -2.231350   -0.310109
    116          6           0       33.043068   -5.116743   -0.955026
    117          6           0       29.753258   -4.275407   -0.512183
    118          8           0       29.414709   -5.427497   -0.523971
    119          6           0       28.681269   -3.120486   -0.151926
    120          6           0       28.376541   -3.352158    1.327269
    121          8           0       29.069091   -2.991725    2.259493
    122          8           0       27.186331   -4.059313    1.382925
    123          6           0       26.759988   -4.485944    2.711781
    124          1           0       29.002990    3.847981   -0.276210
    125          1           0       35.371884    3.525317    0.065022
    126          1           0       34.917512   -2.965929   -0.720586
    127          1           0       27.017182   -0.557227   -0.650151
    128          1           0       27.265395    1.977133    0.690236
    129          1           0       27.522802    2.850603   -1.746515
    130          1           0       25.947717    2.268917   -1.447468
    131          1           0       27.018726    1.232485   -2.388153
    132          1           0       26.864119    0.526142    2.032658
    133          1           0       27.517465   -0.973604    2.251679
    134          1           0       25.537033   -1.964134    2.027548
    135          1           0       25.236837   -1.296637    0.421113
    136          1           0       29.441316    5.743055    0.200450
    137          1           0       30.627069    6.705022   -0.682721
    138          1           0       30.596107    6.546276    1.093139
    139          1           0       35.606673    5.505079   -0.830402
    140          1           0       35.658784    5.658301    1.018129
    141          1           0       35.589587    7.042803   -0.162359
    142          1           0       37.158302    1.083081    0.491454
    143          1           0       36.709234   -0.930107   -1.460902
    144          1           0       36.782280    2.694785   -1.622393
    145          1           0       37.654336    1.204066   -2.264714
    146          1           0       38.301516    2.149534   -1.004636
    147          1           0       36.638382   -1.341911    1.532673
    148          1           0       38.152272   -0.834831    0.849623
    149          1           0       38.458249   -3.145869    0.679181
    150          1           0       37.677928   -2.964137   -0.882332
    151          1           0       36.772678   -3.489061    0.602945
    152          1           0       32.355494   -5.940620   -1.146471
    153          1           0       33.739835   -5.363201   -0.154903
    154          1           0       33.646952   -4.998911   -1.854842
    155          1           0       27.839645   -3.128851   -0.845215
    156          1           0       27.471911   -5.211354    3.105887
    157          1           0       25.743263   -4.877302    2.705272
    158          1           0       26.802346   -3.638220    3.395064
 ---------------------------------------------------------------------

 SCF Done:  E(RPBE1PBE) =  -4067.39757049     A.U. after   18 cycles

 Excitation energies and oscillator strengths:

 Excited State   1:      Singlet-A      1.8776 eV  660.35 nm  f=0.3881  <S**2>=0.000
     310 -> 316       -0.17173
     311 -> 313        0.69331
     311 <- 313       -0.11026
 This state for optimization and/or second-order correction.
 Total Energy, E(TD-HF/TD-DFT) =  -4067.32857158
 Copying the excited state density for this state as the 1-particle RhoCI density.

 Excited State   2:      Singlet-A      1.8858 eV  657.46 nm  f=0.3651  <S**2>=0.000
     309 -> 315        0.14501
     312 -> 314        0.69233

 Excited State   3:      Singlet-A      1.9763 eV  627.35 nm  f=0.0000  <S**2>=0.000
     312 -> 313        0.70711

 Excited State   4:      Singlet-A      2.1182 eV  585.32 nm  f=0.0000  <S**2>=0.000
     311 -> 314        0.70711

 Excited State   5:      Singlet-A      2.2058 eV  562.09 nm  f=0.1674  <S**2>=0.000
     310 -> 313        0.67021
     311 -> 316        0.21424

 The electronic state is 1-A.
 Alpha  occ. eigenvalues --  -46.92785 -46.92506 -19.25695 -19.25310 -19.20263
 Alpha  occ. eigenvalues --  -19.20066 -19.19050 -19.18923 -19.18747 -19.18464
 Alpha  occ. eigenvalues --  -14.41711 -14.41625 -14.41577 -14.41045 -14.39968
 Alpha  occ. eigenvalues --  -14.39180 -14.39153 -14.38409 -10.36290 -10.35917
 Alpha  occ. eigenvalues --  -10.33821 -10.32445 -10.31734 -10.30933 -10.30213
 Alpha  occ. eigenvalues --  -10.29675 -10.29002 -10.28852 -10.28824 -10.28531
 Alpha  occ. eigenvalues --  -10.28529 -10.28464 -10.28200 -10.28111 -10.27837
 Alpha  occ. eigenvalues --  -10.27789 -10.27692 -10.27691 -10.27681 -10.26856
 Alpha  occ. eigenvalues --  -10.26831 -10.26742 -10.26355 -10.26295 -10.26114
 Alpha  occ. eigenvalues --  -10.26061 -10.26042 -10.26008 -10.25931 -10.25912
 Alpha  occ. eigenvalues --  -10.25821 -10.25820 -10.25795 -10.25751 -10.25519
 Alpha  occ. eigenvalues --  -10.25395 -10.25369 -10.25356 -10.25315 -10.25255
 Alpha  occ. eigenvalues --  -10.25143 -10.25141 -10.25127 -10.24552 -10.24546
 Alpha  occ. eigenvalues --  -10.24525 -10.24518 -10.24496 -10.24485 -10.24445
 Alpha  occ. eigenvalues --  -10.24294 -10.24279 -10.24275 -10.23890 -10.23886
 Alpha  occ. eigenvalues --  -10.23827 -10.23618 -10.23552 -10.23405 -10.23333
 Alpha  occ. eigenvalues --  -10.23203 -10.23109 -10.22830 -10.22454 -10.22417
 Alpha  occ. eigenvalues --  -10.21431  -3.14806  -3.14694  -1.87630  -1.87518
 Alpha  occ. eigenvalues --   -1.87184  -1.87033  -1.87029  -1.86967  -1.10614
 Alpha  occ. eigenvalues --   -1.10357  -1.05026  -1.04715  -1.04134  -1.03475
 Alpha  occ. eigenvalues --   -1.02880  -1.00621  -1.00095  -0.99327  -0.99156
 Alpha  occ. eigenvalues --   -0.98782  -0.98368  -0.98133  -0.97890  -0.97202
 Alpha  occ. eigenvalues --   -0.86995  -0.86224  -0.83466  -0.83322  -0.82751
 Alpha  occ. eigenvalues --   -0.82537  -0.82459  -0.82174  -0.82167  -0.81695
 Alpha  occ. eigenvalues --   -0.81369  -0.80739  -0.80567  -0.80351  -0.78641
 Alpha  occ. eigenvalues --   -0.78584  -0.78041  -0.77925  -0.77224  -0.76938
 Alpha  occ. eigenvalues --   -0.76343  -0.76010  -0.75498  -0.75182  -0.74609
 Alpha  occ. eigenvalues --   -0.74591  -0.72670  -0.71974  -0.71804  -0.71408
 Alpha  occ. eigenvalues --   -0.71340  -0.70920  -0.70551  -0.69852  -0.69741
 Alpha  occ. eigenvalues --   -0.69473  -0.68016  -0.66932  -0.66106  -0.65994
 Alpha  occ. eigenvalues --   -0.64078  -0.64023  -0.63653  -0.63473  -0.62565
 Alpha  occ. eigenvalues --   -0.62472  -0.61602  -0.61539  -0.60041  -0.60015
 Alpha  occ. eigenvalues --   -0.59903  -0.59685  -0.59240  -0.59209  -0.58771
 Alpha  occ. eigenvalues --   -0.58701  -0.56847  -0.56388  -0.54727  -0.54412
 Alpha  occ. eigenvalues --   -0.54348  -0.54140  -0.53656  -0.53559  -0.52981
 Alpha  occ. eigenvalues --   -0.52873  -0.52518  -0.52443  -0.52058  -0.51890
 Alpha  occ. eigenvalues --   -0.50853  -0.50825  -0.50120  -0.49869  -0.49685
 Alpha  occ. eigenvalues --   -0.49591  -0.49335  -0.48711  -0.48610  -0.48332
 Alpha  occ. eigenvalues --   -0.48084  -0.48019  -0.47862  -0.47771  -0.47754
 Alpha  occ. eigenvalues --   -0.47237  -0.47206  -0.47126  -0.46761  -0.46622
 Alpha  occ. eigenvalues --   -0.46598  -0.46194  -0.45991  -0.45699  -0.45465
 Alpha  occ. eigenvalues --   -0.45391  -0.45217  -0.45067  -0.44823  -0.44739
 Alpha  occ. eigenvalues --   -0.44532  -0.44469  -0.44258  -0.44154  -0.43969
 Alpha  occ. eigenvalues --   -0.43877  -0.43736  -0.43675  -0.43420  -0.43376
 Alpha  occ. eigenvalues --   -0.43370  -0.43245  -0.43171  -0.42860  -0.42816
 Alpha  occ. eigenvalues --   -0.42531  -0.42250  -0.42138  -0.42009  -0.41822
 Alpha  occ. eigenvalues --   -0.41602  -0.41596  -0.41253  -0.41211  -0.41029
 Alpha  occ. eigenvalues --   -0.40937  -0.40811  -0.40725  -0.40615  -0.40591
 Alpha  occ. eigenvalues --   -0.40101  -0.40076  -0.40015  -0.39920  -0.39762
 Alpha  occ. eigenvalues --   -0.39566  -0.39432  -0.39235  -0.38869  -0.38841
 Alpha  occ. eigenvalues --   -0.38796  -0.38779  -0.38502  -0.38398  -0.38240
 Alpha  occ. eigenvalues --   -0.38207  -0.37974  -0.37847  -0.37742  -0.37493
 Alpha  occ. eigenvalues --   -0.37373  -0.37173  -0.37125  -0.37061  -0.36852
 Alpha  occ. eigenvalues --   -0.36781  -0.36577  -0.36447  -0.36367  -0.36188
 Alpha  occ. eigenvalues --   -0.36006  -0.35838  -0.35470  -0.35356  -0.35088
 Alpha  occ. eigenvalues --   -0.34964  -0.34888  -0.34754  -0.34479  -0.34181
 Alpha  occ. eigenvalues --   -0.33942  -0.33438  -0.33212  -0.33024  -0.32430
 Alpha  occ. eigenvalues --   -0.32327  -0.31673  -0.31538  -0.31408  -0.31117
 Alpha  occ. eigenvalues --   -0.30581  -0.30471  -0.29747  -0.29637  -0.29251
 Alpha  occ. eigenvalues --   -0.28691  -0.28644  -0.28003  -0.27209  -0.26987
 Alpha  occ. eigenvalues --   -0.26760  -0.26540  -0.26383  -0.26126  -0.25556
 Alpha  occ. eigenvalues --   -0.25398  -0.25297  -0.24924  -0.20858  -0.20829
 Alpha  occ. eigenvalues --   -0.19075  -0.18936
 Alpha virt. eigenvalues --   -0.11467  -0.11084  -0.05463  -0.04784  -0.03941
 Alpha virt. eigenvalues --   -0.03904  -0.02506  -0.01931  -0.00973  -0.00916
 Alpha virt. eigenvalues --    0.00157   0.00898   0.01273   0.01814   0.02072

 Mulliken charges:
               1
     1  Mg  11.998417
     2  C    6.020650
     3  C    5.995615
     4  C    5.974196
     5  C    5.994146
     6  N    7.007412
     7  C    5.971462
     8  C    6.009739
     9  C    5.987378
    10  C    6.030520
    11  C    5.996285
    12  C    6.004422
    13  C    6.000279
    14  H    0.993542
    15  N    6.996818
    16  C    6.036055
    17  C    6.018952
    18  C    6.018051
    19  C    6.032806
    20  C    5.995956
    21  C    6.012244
    22  O    8.031255
    23  C    5.993491
    24  N    6.985193
    25  C    6.036102
    26  C    5.990771
    27  C    6.009721
    28  C    5.979129
    29  C    6.000222
    30  C    6.002651
    31  C    6.004502
    32  N    7.000199
    33  C    5.972973
    34  C    5.970379
    35  C    5.999407
    36  C    5.973275
    37  C    6.000906
    38  C    5.984383
    39  O    7.970531
    40  C    5.991838
    41  C    5.996779
    42  O    7.994380
    43  O    7.997728
    44  C    6.003052
    45  H    1.013012
    46  H    1.001665
    47  H    0.987245
    48  H    1.002213
    49  H    1.002341
    50  H    1.003398
    51  H    1.014000
    52  H    0.997804
    53  H    0.988931
    54  H    1.004533
    55  H    0.998557
    56  H    1.005560
    57  H    1.015827
    58  H    1.015058
    59  H    1.020830
    60  H    1.006806
    61  H    1.009653
    62  H    1.014071
    63  H    0.996853
    64  H    0.997169
    65  H    1.008821
    66  H    1.001633
    67  H    0.994411
    68  H    0.988846
    69  H    1.000721
    70  H    0.990658
    71  H    1.002760
    72  H    0.998899
    73  H    0.984534
    74  H    0.983059
    75  H    0.983901
    76  H    0.994231
    77  H    0.996056
    78  H    0.999086
    79  H    0.993049
    80  Mg  12.000025
    81  C    5.999891
    82  C    6.000197
    83  C    6.000121
    84  C    5.999846
    85  N    6.999917
    86  C    6.000283
    87  C    5.999917
    88  C    6.000115
    89  C    5.999596
    90  C    5.999999
    91  C    5.999938
    92  C    5.999959
    93  H    1.000137
    94  N    7.000096
    95  C    5.999572
    96  C    5.999725
    97  C    5.999890
    98  C    5.999570
    99  C    6.000005
   100  C    5.999876
   101  O    7.999742
   102  C    6.000043
   103  N    6.999921
   104  C    5.999624
   105  C    6.000179
   106  C    5.999944
   107  C    6.000390
   108  C    6.000006
   109  C    5.999952
   110  C    5.999972
   111  N    6.999979
   112  C    6.000522
   113  C    6.000309
   114  C    6.000118
   115  C    6.000258
   116  C    6.000021
   117  C    6.000158
   118  O    8.000391
   119  C    6.000032
   120  C    6.000043
   121  O    8.000057
   122  O    8.000033
   123  C    5.999974
   124  H    0.999918
   125  H    0.999896
   126  H    1.000054
   127  H    0.999991
   128  H    1.000013
   129  H    1.000057
   130  H    0.999945
   131  H    0.999886
   132  H    1.000118
   133  H    0.999976
   134  H    0.999976
   135  H    1.000006
   136  H    0.999811
   137  H    0.999820
   138  H    0.999814
   139  H    0.999895
   140  H    0.999894
   141  H    0.999850
   142  H    0.999906
   143  H    0.999968
   144  H    1.000066
   145  H    0.999892
   146  H    0.999950
   147  H    1.000034
   148  H    1.000100
   149  H    1.000039
   150  H    1.000004
   151  H    0.999937
   152  H    1.000141
   153  H    1.000191
   154  H    1.000201
   155  H    1.000144
   156  H    1.000009
   157  H    1.000086
   158  H    1.000069
 Sum of Mulliken charges = 624.00000

 Dipole moment (field-independent basis, Debye):
    X=             -6.3842    Y=              7.0285    Z=             -4.3437  Tot=             10.4415
 Quadrupole moment (field-independent basis, Debye-Ang):
   XX=            406.2224   YY=              5.0147   ZZ=             -3.5745
   XY=           -235.7279   XZ=            139.3700   YZ=              0.0802

 Normal termination of Gaussian 16 at Fri Oct 15 18:41:07 2021.
