 Gaussian 16, Revision A.03,
 Gaussian 16:  ES64L-G16RevA.03 25-Dec-2016

 --------------------------------------------------------
 #p PBE1PBE/Def2SVP td=(nstates=5) density=(transition=1)
 --------------------------------------------------------

 --------------------------------
 TDDFT excited states in gaussian
 --------------------------------
 Symbolic Z-matrix:
 Charge =  0 Multiplicity = 1

                         Standard orientation:
 ---------------------------------------------------------------------
 Center     Atomic      Atomic             Coordinates (Angstroms)
 Number     Number       Type             X           Y           Z
 ---------------------------------------------------------------------
      1         12           0      -32.866030    0.193458   -0.363375
      2          6           0      -29.407313    0.174749   -0.037705
      3          6           0      -32.699065   -3.348943    0.121464
      4          6           0      -36.145625    0.108895   -0.157485
      5          6           0      -32.797415    3.697918   -0.095463
      6          7           0      -31.244534   -1.357211    0.117754
      7          6           0      -29.894462   -1.087533    0.098898
      8          6           0      -29.098199   -2.365034    0.378583
      9          6           0      -30.170341   -3.463893    0.139309
     10          6           0      -31.470992   -2.704959    0.164454
     11          6           0      -30.077145   -4.335164   -1.174454
     12          6           0      -28.489910   -2.399922    1.790241
     13          6           0      -27.569409   -3.527223    2.064139
     14          1           0      -26.537359   -3.342096    3.241295
     15          7           0      -34.270463   -1.406343   -0.045121
     16          6           0      -34.005201   -2.776807    0.101727
     17          6           0      -35.260805   -3.460328    0.240870
     18          6           0      -36.284939   -2.444564    0.299920
     19          6           0      -35.570007   -1.156648   -0.002607
     20          6           0      -35.367678   -4.994136    0.464270
     21          6           0      -37.762630   -2.771941    0.537084
     22          8           0      -38.176159   -3.919537    0.542410
     23          6           0      -38.717475   -1.661477    0.757601
     24          7           0      -34.262027    1.716224   -0.378721
     25          6           0      -35.561726    1.405185   -0.328611
     26          6           0      -36.420959    2.725109   -0.176050
     27          6           0      -35.382732    3.909476   -0.095055
     28          6           0      -34.007323    3.044601   -0.141753
     29          6           0      -37.572135    2.952872   -1.190727
     30          6           0      -35.538481    4.666199    1.241400
     31          6           0      -35.159717    6.151604    1.198903
     32          7           0      -31.438449    1.713691   -0.117521
     33          6           0      -31.531654    3.076859   -0.152345
     34          6           0      -30.174054    3.633990   -0.184030
     35          6           0      -29.345876    2.544947   -0.233894
     36          6           0      -30.117365    1.410170   -0.125583
     37          6           0      -29.810141    5.117998   -0.296459
     38          6           0      -27.971504    2.143833   -0.262877
     39          8           0      -26.945693    2.774586   -0.335282
     40          6           0      -27.955091    0.582642   -0.151266
     41          6           0      -27.381767    0.048635   -1.417198
     42          8           0      -27.697360    0.341139   -2.537151
     43          8           0      -26.482829   -0.984139   -1.099054
     44          6           0      -25.897630   -1.664420   -2.219189
     45          1           0      -32.538710   -4.427124    0.179251
     46          1           0      -37.229977    0.236746   -0.122730
     47          1           0      -32.737111    4.788288   -0.082737
     48          1           0      -28.362464   -2.436127   -0.421359
     49          1           0      -30.291020   -4.193628    0.939185
     50          1           0      -30.129575   -5.361460   -0.811665
     51          1           0      -29.368513   -4.024718   -1.942754
     52          1           0      -31.021801   -4.195947   -1.699933
     53          1           0      -29.200778   -2.531320    2.606476
     54          1           0      -27.976928   -1.460066    1.994548
     55          1           0      -27.032180   -3.722506    1.136049
     56          1           0      -28.158729   -4.425566    2.247116
     57          1           0      -35.607858   -4.956244    1.527282
     58          1           0      -34.429611   -5.548601    0.430917
     59          1           0      -36.074603   -5.632073   -0.066518
     60          1           0      -38.245273   -1.043201    1.521044
     61          1           0      -39.631209   -2.074367    1.185355
     62          1           0      -38.788118   -1.191548   -0.223665
     63          1           0      -36.930554    2.627482    0.782950
     64          1           0      -35.402546    4.602375   -0.935644
     65          1           0      -38.515706    2.775604   -0.673656
     66          1           0      -37.393661    2.325390   -2.063318
     67          1           0      -37.616771    4.006765   -1.465275
     68          1           0      -34.904365    4.123932    1.942326
     69          1           0      -36.525904    4.571757    1.693702
     70          1           0      -36.073287    6.643810    1.534165
     71          1           0      -34.794379    6.499651    0.232648
     72          1           0      -34.396370    6.368315    1.946290
     73          1           0      -29.012113    5.471725    0.355487
     74          1           0      -30.766246    5.597100   -0.084360
     75          1           0      -29.687128    5.314994   -1.361545
     76          1           0      -27.322035    0.345103    0.703755
     77          1           0      -24.849644   -1.365722   -2.245459
     78          1           0      -26.325345   -1.527281   -3.212633
     79          1           0      -25.982843   -2.733692   -2.027454
     80         12           0       32.398722    0.659637   -0.684053
     81          6           0       30.264131   -2.037994    0.190455
     82          6           0       30.141563    2.772777    0.930568
     83          6           0       34.871901    2.820666   -0.461597
     84          6           0       34.686078   -1.878611   -1.999068
     85          7           0       30.496417    0.319392    0.676565
     86          6           0       29.730492   -0.798551    0.624833
     87          6           0       28.359243   -0.495157    1.201448
     88          6           0       28.142238    0.984425    0.883692
     89          6           0       29.695619    1.420290    0.878188
     90          6           0       27.500076    1.357814   -0.453674
     91          6           0       28.318906   -0.920367    2.733899
     92          6           0       27.082672   -1.651964    3.082353
     93          1           0       26.405977   -1.311087    4.424312
     94          7           0       32.550684    2.577948    0.175818
     95          6           0       31.467129    3.306850    0.725914
     96          6           0       31.987097    4.604277    1.077320
     97          6           0       33.327396    4.727501    0.624281
     98          6           0       33.678723    3.359568    0.100642
     99          6           0       31.104082    5.632617    1.777130
    100          6           0       34.202245    5.906366    0.793017
    101          8           0       33.756419    6.895400    1.361506
    102          6           0       35.644765    6.017665    0.422481
    103          7           0       34.581476    0.409987   -1.104920
    104          6           0       35.266712    1.570647   -1.095764
    105          6           0       36.663575    1.382448   -1.714794
    106          6           0       36.583635   -0.108497   -2.371201
    107          6           0       35.197654   -0.569339   -1.850428
    108          6           0       37.126271    2.565516   -2.679073
    109          6           0       37.765511   -1.064123   -2.016185
    110          6           0       37.542531   -2.103395   -0.865078
    111          7           0       32.497426   -1.426000   -0.884612
    112          6           0       33.457763   -2.281203   -1.496365
    113          6           0       32.855042   -3.679867   -1.615700
    114          6           0       31.659994   -3.572299   -0.922505
    115          6           0       31.489961   -2.197959   -0.524490
    116          6           0       33.369819   -4.986073   -2.250568
    117          6           0       30.489501   -4.287951   -0.524526
    118          8           0       30.142232   -5.445778   -0.763131
    119          6           0       29.701584   -3.336664    0.303413
    120          6           0       29.879812   -3.892776    1.734695
    121          8           0       30.855604   -3.757319    2.469849
    122          8           0       28.724026   -4.667673    2.030279
    123          6           0       28.695070   -5.385814    3.239318
    124          1           0       29.435671    3.500744    1.336150
    125          1           0       35.569074    3.659998   -0.500296
    126          1           0       35.230447   -2.678309   -2.504263
    127          1           0       27.549239   -1.002580    0.677718
    128          1           0       27.565675    1.615768    1.558797
    129          1           0       26.952713    0.540478   -0.922316
    130          1           0       28.191822    1.908226   -1.091824
    131          1           0       26.736547    2.073994   -0.147797
    132          1           0       28.335493   -0.017605    3.344607
    133          1           0       29.224225   -1.415645    3.085057
    134          1           0       27.424026   -2.685845    3.045108
    135          1           0       26.347298   -1.471156    2.298510
    136          1           0       30.775755    6.432237    1.113405
    137          1           0       31.626844    5.997177    2.660181
    138          1           0       30.193487    5.160159    2.145792
    139          1           0       35.718087    6.002097   -0.665216
    140          1           0       36.302457    5.250613    0.833180
    141          1           0       36.029209    7.020441    0.604882
    142          1           0       37.309432    1.320258   -0.839209
    143          1           0       36.460952   -0.004924   -3.448783
    144          1           0       36.607015    3.493209   -2.438929
    145          1           0       37.138173    2.397700   -3.756665
    146          1           0       38.207162    2.576721   -2.530405
    147          1           0       38.684980   -0.522939   -1.794516
    148          1           0       37.886111   -1.627068   -2.941422
    149          1           0       38.578866   -2.110815   -0.526544
    150          1           0       37.243961   -3.115942   -1.137445
    151          1           0       36.889683   -1.639206   -0.125592
    152          1           0       32.681559   -5.347357   -3.013887
    153          1           0       33.197416   -5.622959   -1.383478
    154          1           0       34.426111   -4.845735   -2.478994
    155          1           0       28.648929   -3.401005    0.027720
    156          1           0       27.787642   -5.969179    3.400277
    157          1           0       28.772506   -4.661205    4.048920
    158          1           0       29.558072   -6.050451    3.190430
 ---------------------------------------------------------------------

 SCF Done:  E(RPBE1PBE) =  -4067.33436666     A.U. after   15 cycles

 Excitation energies and oscillator strengths:

 Excited State   1:      Singlet-A      1.8406 eV  673.62 nm  f=0.3455  <S**2>=0.000
     310 -> 315        0.18912
     312 -> 314        0.68697
 This state for optimization and/or second-order correction.
 Total Energy, E(TD-HF/TD-DFT) =  -4067.26672666
 Copying the excited state density for this state as the 1-particle RhoCI density.

 Excited State   2:      Singlet-A      1.9036 eV  651.33 nm  f=0.3828  <S**2>=0.000
     309 -> 316       -0.17026
     311 -> 313        0.69345
     311 <- 313       -0.10646

 Excited State   3:      Singlet-A      1.9125 eV  648.29 nm  f=0.0000  <S**2>=0.000
     312 -> 313        0.70711

 Excited State   4:      Singlet-A      2.1767 eV  569.61 nm  f=0.0000  <S**2>=0.000
     311 -> 314        0.70711

 Excited State   5:      Singlet-A      2.1946 eV  564.95 nm  f=0.0643  <S**2>=0.000
     310 -> 314        0.63435
     312 -> 315       -0.29981

 The electronic state is 1-A.
 Alpha  occ. eigenvalues --  -46.94682 -46.93044 -19.25674 -19.25359 -19.21581
 Alpha  occ. eigenvalues --  -19.20749 -19.19079 -19.18958 -19.18715 -19.17829
 Alpha  occ. eigenvalues --  -14.42227 -14.41875 -14.41795 -14.41506 -14.39861
 Alpha  occ. eigenvalues --  -14.39736 -14.39452 -14.38902 -10.37643 -10.36578
 Alpha  occ. eigenvalues --  -10.31810 -10.31623 -10.31491 -10.31291 -10.29897
 Alpha  occ. eigenvalues --  -10.29628 -10.29229 -10.29206 -10.29069 -10.28993
 Alpha  occ. eigenvalues --  -10.28932 -10.28699 -10.28613 -10.28602 -10.28540
 Alpha  occ. eigenvalues --  -10.28499 -10.28456 -10.28235 -10.27877 -10.27304
 Alpha  occ. eigenvalues --  -10.27064 -10.27000 -10.26904 -10.26642 -10.26366
 Alpha  occ. eigenvalues --  -10.26334 -10.26225 -10.26190 -10.26156 -10.26093
 Alpha  occ. eigenvalues --  -10.26075 -10.25985 -10.25912 -10.25897 -10.25756
 Alpha  occ. eigenvalues --  -10.25669 -10.25479 -10.25476 -10.25457 -10.25342
 Alpha  occ. eigenvalues --  -10.25309 -10.25261 -10.25244 -10.25194 -10.25186
 Alpha  occ. eigenvalues --  -10.25167 -10.24887 -10.24736 -10.24684 -10.24541
 Alpha  occ. eigenvalues --  -10.24295 -10.24239 -10.23994 -10.23970 -10.23932
 Alpha  occ. eigenvalues --  -10.23852 -10.23815 -10.23746 -10.23722 -10.23253
 Alpha  occ. eigenvalues --  -10.23125 -10.23106 -10.23096 -10.22768 -10.22642
 Alpha  occ. eigenvalues --  -10.21937  -3.16470  -3.15049  -1.89247  -1.88894
 Alpha  occ. eigenvalues --   -1.88645  -1.87895  -1.87427  -1.87257  -1.11427
 Alpha  occ. eigenvalues --   -1.10543  -1.05284  -1.04672  -1.04265  -1.04127
 Alpha  occ. eigenvalues --   -1.03726  -1.03441  -0.99298  -0.98797  -0.98443
 Alpha  occ. eigenvalues --   -0.98299  -0.98056  -0.97471  -0.97460  -0.95973
 Alpha  occ. eigenvalues --   -0.88746  -0.87764  -0.83662  -0.83486  -0.83432
 Alpha  occ. eigenvalues --   -0.83116  -0.83008  -0.82456  -0.82083  -0.81546
 Alpha  occ. eigenvalues --   -0.81169  -0.80879  -0.80199  -0.79901  -0.79424
 Alpha  occ. eigenvalues --   -0.79059  -0.78359  -0.77938  -0.77339  -0.76971
 Alpha  occ. eigenvalues --   -0.76774  -0.75863  -0.75688  -0.75237  -0.75137
 Alpha  occ. eigenvalues --   -0.74616  -0.72353  -0.72101  -0.71713  -0.71577
 Alpha  occ. eigenvalues --   -0.71276  -0.71190  -0.70551  -0.70330  -0.69840
 Alpha  occ. eigenvalues --   -0.69571  -0.67791  -0.67172  -0.66493  -0.66313
 Alpha  occ. eigenvalues --   -0.64264  -0.63784  -0.63428  -0.63162  -0.62314
 Alpha  occ. eigenvalues --   -0.61688  -0.61241  -0.61062  -0.60505  -0.60123
 Alpha  occ. eigenvalues --   -0.59830  -0.59440  -0.59433  -0.59204  -0.59124
 Alpha  occ. eigenvalues --   -0.59093  -0.57318  -0.56759  -0.54712  -0.54556
 Alpha  occ. eigenvalues --   -0.54475  -0.54318  -0.53906  -0.53876  -0.53344
 Alpha  occ. eigenvalues --   -0.53286  -0.53119  -0.52909  -0.52250  -0.51581
 Alpha  occ. eigenvalues --   -0.51113  -0.50645  -0.50567  -0.50418  -0.50228
 Alpha  occ. eigenvalues --   -0.49944  -0.49492  -0.49423  -0.49142  -0.48972
 Alpha  occ. eigenvalues --   -0.48612  -0.48282  -0.48159  -0.47947  -0.47833
 Alpha  occ. eigenvalues --   -0.47640  -0.47534  -0.47339  -0.47309  -0.46732
 Alpha  occ. eigenvalues --   -0.46572  -0.46471  -0.46321  -0.46198  -0.46139
 Alpha  occ. eigenvalues --   -0.45978  -0.45806  -0.45471  -0.45333  -0.45161
 Alpha  occ. eigenvalues --   -0.44982  -0.44882  -0.44778  -0.44529  -0.44498
 Alpha  occ. eigenvalues --   -0.44015  -0.43972  -0.43797  -0.43769  -0.43603
 Alpha  occ. eigenvalues --   -0.43365  -0.43148  -0.42918  -0.42882  -0.42779
 Alpha  occ. eigenvalues --   -0.42510  -0.42251  -0.42202  -0.42036  -0.41927
 Alpha  occ. eigenvalues --   -0.41838  -0.41773  -0.41620  -0.41136  -0.41113
 Alpha  occ. eigenvalues --   -0.40879  -0.40796  -0.40628  -0.40595  -0.40575
 Alpha  occ. eigenvalues --   -0.40532  -0.40180  -0.40136  -0.40073  -0.39898
 Alpha  occ. eigenvalues --   -0.39870  -0.39374  -0.39294  -0.39223  -0.39049
 Alpha  occ. eigenvalues --   -0.38915  -0.38658  -0.38546  -0.38399  -0.38318
 Alpha  occ. eigenvalues --   -0.38201  -0.38131  -0.38031  -0.37817  -0.37805
 Alpha  occ. eigenvalues --   -0.37644  -0.37267  -0.37254  -0.37172  -0.36999
 Alpha  occ. eigenvalues --   -0.36837  -0.36689  -0.36411  -0.36405  -0.36148
 Alpha  occ. eigenvalues --   -0.35855  -0.35763  -0.35477  -0.35353  -0.35233
 Alpha  occ. eigenvalues --   -0.34946  -0.34755  -0.34663  -0.34067  -0.33744
 Alpha  occ. eigenvalues --   -0.33507  -0.33281  -0.33053  -0.32895  -0.32693
 Alpha  occ. eigenvalues --   -0.32621  -0.31966  -0.31587  -0.31521  -0.31306
 Alpha  occ. eigenvalues --   -0.31146  -0.30790  -0.30157  -0.30030  -0.29577
 Alpha  occ. eigenvalues --   -0.29437  -0.29262  -0.28962  -0.27404  -0.26751
 Alpha  occ. eigenvalues --   -0.26246  -0.26035  -0.25865  -0.25811  -0.25610
 Alpha  occ. eigenvalues --   -0.25233  -0.25131  -0.24846  -0.21565  -0.20993
 Alpha  occ. eigenvalues --   -0.19282  -0.18749
 Alpha virt. eigenvalues --   -0.11518  -0.11079  -0.05998  -0.05487  -0.04373
 Alpha virt. eigenvalues --   -0.03327  -0.03139  -0.02186  -0.01731  -0.00743
 Alpha virt. eigenvalues --    0.00107   0.00283   0.00663   0.00792   0.01680

 Mulliken charges:
               1
     1  Mg  12.000001
     2  C    5.999978
     3  C    6.000027
     4  C    6.000041
     5  C    5.999992
     6  N    7.000047
     7  C    5.999977
     8  C    5.999996
     9  C    5.999993
    10  C    5.999960
    11  C    6.000003
    12  C    6.000008
    13  C    6.000011
    14  H    0.999998
    15  N    7.000003
    16  C    5.999923
    17  C    5.999981
    18  C    6.000014
    19  C    5.999932
    20  C    5.999964
    21  C    5.999995
    22  O    7.999981
    23  C    5.999964
    24  N    7.000001
    25  C    5.999995
    26  C    6.000003
    27  C    6.000012
    28  C    6.000019
    29  C    5.999990
    30  C    5.999992
    31  C    5.999996
    32  N    6.999959
    33  C    6.000038
    34  C    6.000056
    35  C    6.000054
    36  C    6.000011
    37  C    6.000021
    38  C    5.999996
    39  O    8.000063
    40  C    5.999992
    41  C    6.000019
    42  O    7.999993
    43  O    7.999995
    44  C    6.000002
    45  H    0.999955
    46  H    0.999992
    47  H    1.000038
    48  H    0.999994
    49  H    0.999994
    50  H    0.999986
    51  H    0.999977
    52  H    1.000003
    53  H    1.000013
    54  H    0.999991
    55  H    0.999990
    56  H    1.000000
    57  H    0.999986
    58  H    0.999978
    59  H    0.999979
    60  H    0.999995
    61  H    0.999990
    62  H    0.999995
    63  H    1.000007
    64  H    1.000011
    65  H    1.000002
    66  H    0.999999
    67  H    1.000000
    68  H    1.000001
    69  H    1.000016
    70  H    1.000013
    71  H    0.999999
    72  H    1.000001
    73  H    1.000031
    74  H    1.000023
    75  H    1.000026
    76  H    1.000014
    77  H    1.000004
    78  H    1.000002
    79  H    0.999996
    80  Mg  11.998013
    81  C    5.982057
    82  C    6.012231
    83  C    6.013462
    84  C    5.985140
    85  N    6.996626
    86  C    6.024759
    87  C    5.996638
    88  C    6.001637
    89  C    5.972224
    90  C    6.001204
    91  C    5.995356
    92  C    5.999115
    93  H    1.006305
    94  N    7.009631
    95  C    5.958398
    96  C    5.981972
    97  C    5.987752
    98  C    5.968935
    99  C    6.004347
   100  C    5.990499
   101  O    7.978146
   102  C    6.002625
   103  N    6.996473
   104  C    5.970407
   105  C    6.010909
   106  C    5.987928
   107  C    6.034932
   108  C    6.003042
   109  C    6.000956
   110  C    5.992215
   111  N    6.997367
   112  C    6.042564
   113  C    6.027808
   114  C    6.000746
   115  C    6.026197
   116  C    6.001696
   117  C    6.019320
   118  O    8.030689
   119  C    5.997305
   120  C    6.002750
   121  O    8.005664
   122  O    8.001534
   123  C    5.997888
   124  H    0.991109
   125  H    0.996515
   126  H    1.009262
   127  H    0.998425
   128  H    0.999641
   129  H    0.986672
   130  H    1.002192
   131  H    0.998361
   132  H    1.011807
   133  H    0.997325
   134  H    0.994365
   135  H    1.002771
   136  H    0.981801
   137  H    0.985368
   138  H    0.983508
   139  H    0.989300
   140  H    0.989025
   141  H    0.988784
   142  H    0.999384
   143  H    1.004335
   144  H    1.008239
   145  H    0.994158
   146  H    0.995504
   147  H    1.009424
   148  H    1.000094
   149  H    1.008189
   150  H    0.996133
   151  H    1.001745
   152  H    1.015844
   153  H    1.011847
   154  H    1.014711
   155  H    1.009139
   156  H    1.004348
   157  H    1.005791
   158  H    0.999421
 Sum of Mulliken charges = 624.00000

 Dipole moment (field-independent basis, Debye):
    X=              0.0523    Y=             -9.6927    Z=             -2.2446  Tot=              9.9493
 Quadrupole moment (field-independent basis, Debye-Ang):
   XX=              3.2116   YY=            -10.1442   ZZ=              2.8630
   XY=           -314.9362   XZ=            -75.2524   YZ=             -0.4705

 Normal termination of Gaussian 16 at Fri Oct 15 16:05:25 2021.
