 Gaussian 16, Revision A.03,
 Gaussian 16:  ES64L-G16RevA.03 25-Dec-2016

 --------------------------------------------------------
 #p PBE1PBE/Def2SVP td=(nstates=5) density=(transition=1)
 --------------------------------------------------------

 --------------------------------
 TDDFT excited states in gaussian
 --------------------------------
 Symbolic Z-matrix:
 Charge =  0 Multiplicity = 1

                         Standard orientation:
 ---------------------------------------------------------------------
 Center     Atomic      Atomic             Coordinates (Angstroms)
 Number     Number       Type             X           Y           Z
 ---------------------------------------------------------------------
      1         12           0       24.984632   -0.007991    0.063931
      2          6           0       21.801868   -1.218432   -0.209405
      3          6           0       25.206640   -0.224845   -3.480968
      4          6           0       27.971748    1.550149    0.251692
      5          6           0       24.290467    0.995493    3.327103
      6          7           0       23.437969   -0.326814   -1.735239
      7          6           0       22.294645   -1.039790   -1.532277
      8          6           0       21.633932   -1.329872   -2.851466
      9          6           0       22.741964   -0.973385   -3.935315
     10          6           0       23.920691   -0.475232   -3.040532
     11          6           0       22.876921   -1.912937   -5.077485
     12          6           0       20.176704   -0.741022   -3.159887
     13          6           0       19.802330    0.578459   -2.552611
     14          1           0       19.184961    1.616244   -3.479515
     15          7           0       26.469901    0.353403   -1.379269
     16          6           0       26.397866    0.182225   -2.726958
     17          6           0       27.602035    0.590772   -3.387784
     18          6           0       28.489434    1.014899   -2.268880
     19          6           0       27.651180    0.980426   -1.050528
     20          6           0       27.916636    0.556329   -4.806874
     21          6           0       29.956381    1.417802   -2.314602
     22          8           0       30.504265    1.571510   -3.347993
     23          6           0       30.826859    1.759023   -1.137037
     24          7           0       25.908808    1.201883    1.506153
     25          6           0       27.199188    1.551839    1.393021
     26          6           0       27.647891    2.489610    2.632473
     27          6           0       26.593770    1.958357    3.721535
     28          6           0       25.534269    1.412082    2.794376
     29          6           0       29.106771    2.354281    3.077491
     30          6           0       26.184894    3.042417    4.735080
     31          6           0       26.176690    2.746620    6.239497
     32          7           0       23.338544    0.013009    1.292044
     33          6           0       23.178360    0.406506    2.614835
     34          6           0       21.921405    0.016486    3.124279
     35          6           0       21.324727   -0.683953    2.088943
     36          6           0       22.228168   -0.667932    0.967849
     37          6           0       21.382840    0.230558    4.505078
     38          6           0       20.244860   -1.455089    1.631651
     39          8           0       19.223042   -1.744061    2.251056
     40          6           0       20.401759   -1.690762    0.102370
     41          6           0       20.192137   -3.191294   -0.038245
     42          8           0       19.381557   -3.714671   -0.831849
     43          8           0       21.138158   -3.814626    0.740915
     44          6           0       21.389683   -5.274195    0.658025
     45          1           0       25.164642   -0.197943   -4.571767
     46          1           0       28.833474    2.220683    0.256795
     47          1           0       24.108591    1.251048    4.372736
     48          1           0       21.398058   -2.393970   -2.890189
     49          1           0       22.421499   -0.036555   -4.390198
     50          1           0       23.907116   -2.206868   -5.278145
     51          1           0       22.353342   -1.560224   -5.966070
     52          1           0       22.398139   -2.858446   -4.822595
     53          1           0       19.355354   -1.379814   -2.834978
     54          1           0       20.096864   -0.514359   -4.223526
     55          1           0       20.555493    1.007831   -1.892780
     56          1           0       18.935327    0.396009   -1.916841
     57          1           0       27.381731   -0.276054   -5.263099
     58          1           0       28.979079    0.455200   -5.025206
     59          1           0       27.559042    1.496555   -5.228188
     60          1           0       30.329574    1.074139   -0.449787
     61          1           0       30.713534    2.792166   -0.810086
     62          1           0       31.894563    1.560852   -1.232465
     63          1           0       27.362447    3.503740    2.351254
     64          1           0       26.860870    1.093802    4.328736
     65          1           0       29.100346    1.794308    4.013031
     66          1           0       29.605425    3.322453    3.042290
     67          1           0       29.711355    1.763466    2.390008
     68          1           0       25.180064    3.361801    4.457370
     69          1           0       26.782133    3.930965    4.529864
     70          1           0       26.673988    3.445807    6.911927
     71          1           0       26.485219    1.727102    6.474467
     72          1           0       25.109450    2.663515    6.442410
     73          1           0       20.742526   -0.570921    4.874283
     74          1           0       20.814748    1.161074    4.512110
     75          1           0       22.161408    0.293328    5.266460
     76          1           0       19.592628   -1.092950   -0.315415
     77          1           0       22.447879   -5.522212    0.738685
     78          1           0       21.011882   -5.628178   -0.301310
     79          1           0       20.930443   -5.959204    1.369641
     80         12           0      -24.892623    0.583103    0.271106
     81          6           0      -21.997028   -1.350612    0.584831
     82          6           0      -26.719581   -2.343732    0.322055
     83          6           0      -27.649966    2.328405   -0.729913
     84          6           0      -22.895269    3.326924   -0.418100
     85          7           0      -24.374972   -1.527572    0.523925
     86          6           0      -23.179079   -2.037286    0.845400
     87          6           0      -23.211348   -3.495454    1.326123
     88          6           0      -24.718301   -3.876393    1.060820
     89          6           0      -25.399604   -2.446153    0.679552
     90          6           0      -24.997094   -4.954436   -0.008662
     91          6           0      -22.757285   -3.700574    2.771488
     92          6           0      -22.189045   -5.106544    3.036869
     93          1           0      -22.155341   -6.131068    1.894015
     94          7           0      -26.922248    0.113112   -0.041678
     95          6           0      -27.509371   -1.165915    0.095244
     96          6           0      -28.933777   -1.040025   -0.139792
     97          6           0      -29.222843    0.323897   -0.518574
     98          6           0      -27.930124    0.998215   -0.409881
     99          6           0      -29.864046   -2.196897    0.101288
    100          6           0      -30.615013    1.044369   -0.810352
    101          8           0      -30.733045    2.233603   -0.980302
    102          6           0      -31.831028    0.146851   -0.886671
    103          7           0      -25.210527    2.496710   -0.550666
    104          6           0      -26.432886    3.022473   -0.851502
    105          6           0      -26.339302    4.523082   -1.314219
    106          6           0      -24.847586    4.797774   -1.131193
    107          6           0      -24.292864    3.459627   -0.680352
    108          6           0      -26.946247    5.002306   -2.694137
    109          6           0      -24.607308    5.914524   -0.088385
    110          6           0      -24.623172    5.550137    1.412740
    111          7           0      -22.848585    1.040153    0.241975
    112          6           0      -22.174528    2.196656   -0.053519
    113          6           0      -20.765777    2.016118    0.056739
    114          6           0      -20.620760    0.578736    0.311898
    115          6           0      -21.864205    0.082910    0.381774
    116          6           0      -19.650001    2.954907   -0.079511
    117          6           0      -19.679625   -0.527878    0.415102
    118          8           0      -18.445269   -0.518124    0.470633
    119          6           0      -20.503205   -1.835700    0.604641
    120          6           0      -20.201239   -2.814280   -0.434986
    121          8           0      -20.625851   -2.799923   -1.585525
    122          8           0      -19.187927   -3.632135   -0.001827
    123          6           0      -18.414618   -4.420175   -0.981145
    124          1           0      -27.210672   -3.319279    0.324723
    125          1           0      -28.545728    2.936620   -0.871609
    126          1           0      -22.265639    4.210811   -0.539297
    127          1           0      -22.656859   -4.151280    0.655286
    128          1           0      -25.269667   -4.118338    1.968720
    129          1           0      -25.619215   -5.640260    0.566140
    130          1           0      -24.070775   -5.435827   -0.321276
    131          1           0      -25.490266   -4.514386   -0.875487
    132          1           0      -23.555324   -3.496550    3.484335
    133          1           0      -21.974361   -2.984991    3.024054
    134          1           0      -22.845942   -5.436593    3.841905
    135          1           0      -21.208110   -5.065912    3.512539
    136          1           0      -29.217874   -3.061100    0.255709
    137          1           0      -30.509405   -2.320932   -0.768586
    138          1           0      -30.516962   -2.047594    0.962545
    139          1           0      -31.947826   -0.456409   -1.787557
    140          1           0      -32.710606    0.767126   -0.714365
    141          1           0      -31.685829   -0.496562   -0.018963
    142          1           0      -26.948311    5.006721   -0.550817
    143          1           0      -24.468852    5.092543   -2.109186
    144          1           0      -26.275822    5.611314   -3.299404
    145          1           0      -27.800709    5.643858   -2.481070
    146          1           0      -27.312193    4.118627   -3.217762
    147          1           0      -25.361469    6.671223   -0.301177
    148          1           0      -23.641441    6.340873   -0.360953
    149          1           0      -25.165672    6.369078    1.884419
    150          1           0      -23.630796    5.528422    1.862509
    151          1           0      -25.036160    4.566229    1.632338
    152          1           0      -18.931882    2.729002    0.707987
    153          1           0      -19.914290    4.011389   -0.032705
    154          1           0      -19.075303    2.720241   -0.975659
    155          1           0      -20.222790   -2.179912    1.600011
    156          1           0      -18.793915   -4.301756   -1.996735
    157          1           0      -18.518389   -5.472150   -0.714154
    158          1           0      -17.420112   -3.997374   -0.843092
 ---------------------------------------------------------------------

 SCF Done:  E(RPBE1PBE) =  -4067.34086455     A.U. after   16 cycles

 Excitation energies and oscillator strengths:

 Excited State   1:      Singlet-A      1.7837 eV  695.09 nm  f=0.0000  <S**2>=0.000
     312 -> 313        0.70711
 This state for optimization and/or second-order correction.
 Total Energy, E(TD-HF/TD-DFT) =  -4067.27531403
 Copying the excited state density for this state as the 1-particle RhoCI density.

 Excited State   2:      Singlet-A      1.7944 eV  690.96 nm  f=0.3738  <S**2>=0.000
     309 -> 315        0.16552
     311 -> 313        0.69590
     311 <- 313       -0.11768

 Excited State   3:      Singlet-A      1.8755 eV  661.09 nm  f=0.3910  <S**2>=0.000
     310 -> 316       -0.17457
     312 -> 314        0.69082
     312 <- 314       -0.10931

 Excited State   4:      Singlet-A      2.1270 eV  582.92 nm  f=0.0000  <S**2>=0.000
     311 -> 314        0.70711

 Excited State   5:      Singlet-A      2.1559 eV  575.10 nm  f=0.1300  <S**2>=0.000
     308 -> 313        0.10037
     309 -> 313        0.65390
     311 -> 315       -0.23179

 The electronic state is 1-A.
 Alpha  occ. eigenvalues --  -46.93341 -46.91647 -19.26756 -19.24534 -19.20491
 Alpha  occ. eigenvalues --  -19.20054 -19.19187 -19.18983 -19.18503 -19.17608
 Alpha  occ. eigenvalues --  -14.42104 -14.41682 -14.41496 -14.41453 -14.39820
 Alpha  occ. eigenvalues --  -14.39212 -14.39070 -14.37902 -10.37424 -10.35634
 Alpha  occ. eigenvalues --  -10.33251 -10.32267 -10.31241 -10.30904 -10.29928
 Alpha  occ. eigenvalues --  -10.29646 -10.29191 -10.28881 -10.28771 -10.28643
 Alpha  occ. eigenvalues --  -10.28581 -10.28579 -10.28430 -10.28422 -10.28371
 Alpha  occ. eigenvalues --  -10.28225 -10.28168 -10.27961 -10.27498 -10.26851
 Alpha  occ. eigenvalues --  -10.26761 -10.26581 -10.26360 -10.26227 -10.26222
 Alpha  occ. eigenvalues --  -10.26209 -10.26110 -10.25959 -10.25946 -10.25886
 Alpha  occ. eigenvalues --  -10.25854 -10.25799 -10.25768 -10.25759 -10.25574
 Alpha  occ. eigenvalues --  -10.25481 -10.25454 -10.25384 -10.25239 -10.25229
 Alpha  occ. eigenvalues --  -10.25213 -10.25131 -10.24999 -10.24787 -10.24739
 Alpha  occ. eigenvalues --  -10.24704 -10.24567 -10.24388 -10.24329 -10.24295
 Alpha  occ. eigenvalues --  -10.24122 -10.24035 -10.23969 -10.23825 -10.23636
 Alpha  occ. eigenvalues --  -10.23546 -10.23543 -10.23445 -10.23439 -10.23304
 Alpha  occ. eigenvalues --  -10.23228 -10.22968 -10.22862 -10.22696 -10.22614
 Alpha  occ. eigenvalues --  -10.22542  -3.15393  -3.13752  -1.88189  -1.87803
 Alpha  occ. eigenvalues --   -1.87590  -1.86593  -1.86122  -1.85981  -1.10314
 Alpha  occ. eigenvalues --   -1.09827  -1.06374  -1.06244  -1.03897  -1.03635
 Alpha  occ. eigenvalues --   -1.01969  -1.01438  -0.99742  -0.99024  -0.98929
 Alpha  occ. eigenvalues --   -0.97958  -0.97621  -0.97128  -0.96902  -0.95612
 Alpha  occ. eigenvalues --   -0.87925  -0.86452  -0.84101  -0.83436  -0.83027
 Alpha  occ. eigenvalues --   -0.82995  -0.82731  -0.82429  -0.82170  -0.81569
 Alpha  occ. eigenvalues --   -0.81380  -0.80697  -0.80393  -0.80349  -0.78860
 Alpha  occ. eigenvalues --   -0.78464  -0.78218  -0.77672  -0.77371  -0.76571
 Alpha  occ. eigenvalues --   -0.76417  -0.76073  -0.75306  -0.75304  -0.74865
 Alpha  occ. eigenvalues --   -0.74521  -0.72786  -0.72429  -0.72109  -0.71402
 Alpha  occ. eigenvalues --   -0.71377  -0.71118  -0.70947  -0.70193  -0.69864
 Alpha  occ. eigenvalues --   -0.69367  -0.68057  -0.66879  -0.66206  -0.65521
 Alpha  occ. eigenvalues --   -0.64364  -0.64145  -0.63820  -0.62832  -0.62710
 Alpha  occ. eigenvalues --   -0.62101  -0.61163  -0.60653  -0.60437  -0.60085
 Alpha  occ. eigenvalues --   -0.59238  -0.59228  -0.59103  -0.58927  -0.58828
 Alpha  occ. eigenvalues --   -0.58269  -0.58101  -0.55966  -0.54833  -0.54270
 Alpha  occ. eigenvalues --   -0.53997  -0.53648  -0.53583  -0.53513  -0.52829
 Alpha  occ. eigenvalues --   -0.52615  -0.52288  -0.51975  -0.51960  -0.51832
 Alpha  occ. eigenvalues --   -0.51133  -0.50390  -0.50358  -0.49971  -0.49864
 Alpha  occ. eigenvalues --   -0.49672  -0.49643  -0.49175  -0.48968  -0.48494
 Alpha  occ. eigenvalues --   -0.48232  -0.47947  -0.47801  -0.47720  -0.47438
 Alpha  occ. eigenvalues --   -0.47240  -0.47061  -0.46764  -0.46674  -0.46479
 Alpha  occ. eigenvalues --   -0.46387  -0.46383  -0.46371  -0.46236  -0.45994
 Alpha  occ. eigenvalues --   -0.45651  -0.45492  -0.45365  -0.45168  -0.45126
 Alpha  occ. eigenvalues --   -0.44747  -0.44624  -0.44308  -0.44189  -0.44132
 Alpha  occ. eigenvalues --   -0.44079  -0.43922  -0.43832  -0.43645  -0.43628
 Alpha  occ. eigenvalues --   -0.43591  -0.43148  -0.42944  -0.42880  -0.42746
 Alpha  occ. eigenvalues --   -0.42475  -0.42310  -0.42300  -0.41997  -0.41921
 Alpha  occ. eigenvalues --   -0.41826  -0.41766  -0.41664  -0.41409  -0.41174
 Alpha  occ. eigenvalues --   -0.40977  -0.40920  -0.40852  -0.40504  -0.40368
 Alpha  occ. eigenvalues --   -0.40281  -0.40137  -0.40129  -0.39981  -0.39763
 Alpha  occ. eigenvalues --   -0.39748  -0.39553  -0.39383  -0.39042  -0.38967
 Alpha  occ. eigenvalues --   -0.38789  -0.38623  -0.38430  -0.38319  -0.38219
 Alpha  occ. eigenvalues --   -0.37982  -0.37945  -0.37864  -0.37622  -0.37500
 Alpha  occ. eigenvalues --   -0.37457  -0.37445  -0.37228  -0.37091  -0.36889
 Alpha  occ. eigenvalues --   -0.36827  -0.36755  -0.36533  -0.36403  -0.36320
 Alpha  occ. eigenvalues --   -0.36193  -0.35917  -0.35712  -0.35527  -0.35466
 Alpha  occ. eigenvalues --   -0.35117  -0.35081  -0.34805  -0.33929  -0.33668
 Alpha  occ. eigenvalues --   -0.33464  -0.33307  -0.33041  -0.32783  -0.32669
 Alpha  occ. eigenvalues --   -0.32317  -0.31820  -0.31712  -0.31179  -0.31135
 Alpha  occ. eigenvalues --   -0.30655  -0.30582  -0.29799  -0.29531  -0.28969
 Alpha  occ. eigenvalues --   -0.28949  -0.28574  -0.28461  -0.27146  -0.26586
 Alpha  occ. eigenvalues --   -0.26319  -0.26319  -0.25711  -0.25259  -0.25167
 Alpha  occ. eigenvalues --   -0.24933  -0.24366  -0.23734  -0.21401  -0.20484
 Alpha  occ. eigenvalues --   -0.19346  -0.18868
 Alpha virt. eigenvalues --   -0.12043  -0.11261  -0.05472  -0.04853  -0.03877
 Alpha virt. eigenvalues --   -0.03607  -0.01904  -0.01881  -0.01780  -0.00152
 Alpha virt. eigenvalues --   -0.00036   0.00625   0.00720   0.01112   0.01727

 Mulliken charges:
               1
     1  Mg  12.000000
     2  C    6.000000
     3  C    6.000000
     4  C    6.000000
     5  C    6.000000
     6  N    7.000000
     7  C    6.000000
     8  C    6.000000
     9  C    6.000000
    10  C    6.000000
    11  C    6.000000
    12  C    6.000000
    13  C    6.000000
    14  H    1.000000
    15  N    7.000000
    16  C    6.000000
    17  C    6.000000
    18  C    6.000000
    19  C    6.000000
    20  C    6.000000
    21  C    6.000000
    22  O    8.000000
    23  C    6.000000
    24  N    7.000000
    25  C    6.000000
    26  C    6.000000
    27  C    6.000000
    28  C    6.000000
    29  C    6.000000
    30  C    6.000000
    31  C    6.000000
    32  N    7.000000
    33  C    6.000000
    34  C    6.000000
    35  C    6.000000
    36  C    6.000000
    37  C    6.000000
    38  C    6.000000
    39  O    8.000000
    40  C    6.000000
    41  C    6.000000
    42  O    8.000000
    43  O    8.000000
    44  C    6.000000
    45  H    1.000000
    46  H    1.000000
    47  H    1.000000
    48  H    1.000000
    49  H    1.000000
    50  H    1.000000
    51  H    1.000000
    52  H    1.000000
    53  H    1.000000
    54  H    1.000000
    55  H    1.000000
    56  H    1.000000
    57  H    1.000000
    58  H    1.000000
    59  H    1.000000
    60  H    1.000000
    61  H    1.000000
    62  H    1.000000
    63  H    1.000000
    64  H    1.000000
    65  H    1.000000
    66  H    1.000000
    67  H    1.000000
    68  H    1.000000
    69  H    1.000000
    70  H    1.000000
    71  H    1.000000
    72  H    1.000000
    73  H    1.000000
    74  H    1.000000
    75  H    1.000000
    76  H    1.000000
    77  H    1.000000
    78  H    1.000000
    79  H    1.000000
    80  Mg  12.000000
    81  C    6.000000
    82  C    6.000000
    83  C    6.000000
    84  C    6.000000
    85  N    7.000000
    86  C    6.000000
    87  C    6.000000
    88  C    6.000000
    89  C    6.000000
    90  C    6.000000
    91  C    6.000000
    92  C    6.000000
    93  H    1.000000
    94  N    7.000000
    95  C    6.000000
    96  C    6.000000
    97  C    6.000000
    98  C    6.000000
    99  C    6.000000
   100  C    6.000000
   101  O    8.000000
   102  C    6.000000
   103  N    7.000000
   104  C    6.000000
   105  C    6.000000
   106  C    6.000000
   107  C    6.000000
   108  C    6.000000
   109  C    6.000000
   110  C    6.000000
   111  N    7.000000
   112  C    6.000000
   113  C    6.000000
   114  C    6.000000
   115  C    6.000000
   116  C    6.000000
   117  C    6.000000
   118  O    8.000000
   119  C    6.000000
   120  C    6.000000
   121  O    8.000000
   122  O    8.000000
   123  C    6.000000
   124  H    1.000000
   125  H    1.000000
   126  H    1.000000
   127  H    1.000000
   128  H    1.000000
   129  H    1.000000
   130  H    1.000000
   131  H    1.000000
   132  H    1.000000
   133  H    1.000000
   134  H    1.000000
   135  H    1.000000
   136  H    1.000000
   137  H    1.000000
   138  H    1.000000
   139  H    1.000000
   140  H    1.000000
   141  H    1.000000
   142  H    1.000000
   143  H    1.000000
   144  H    1.000000
   145  H    1.000000
   146  H    1.000000
   147  H    1.000000
   148  H    1.000000
   149  H    1.000000
   150  H    1.000000
   151  H    1.000000
   152  H    1.000000
   153  H    1.000000
   154  H    1.000000
   155  H    1.000000
   156  H    1.000000
   157  H    1.000000
   158  H    1.000000
 Sum of Mulliken charges = 624.00000

 Dipole moment (field-independent basis, Debye):
    X=             -0.0000    Y=             -0.0000    Z=              0.0000  Tot=              0.0000
 Quadrupole moment (field-independent basis, Debye-Ang):
   XX=             -0.0000   YY=              0.0000   ZZ=             -0.0000
   XY=             -0.0000   XZ=              0.0000   YZ=              0.0000

 Normal termination of Gaussian 16 at Thu Oct 14 06:06:35 2021.
