 Gaussian 16, Revision A.03,
 Gaussian 16:  ES64L-G16RevA.03 25-Dec-2016

 --------------------------------------------------------
 #p PBE1PBE/Def2SVP td=(nstates=5) density=(transition=1)
 --------------------------------------------------------

 --------------------------------
 TDDFT excited states in gaussian
 --------------------------------
 Symbolic Z-matrix:
 Charge =  0 Multiplicity = 1

                         Standard orientation:
 ---------------------------------------------------------------------
 Center     Atomic      Atomic             Coordinates (Angstroms)
 Number     Number       Type             X           Y           Z
 ---------------------------------------------------------------------
      1         12           0      -27.343013   -0.737340   -0.018326
      2          6           0      -28.053991    2.573391    0.590921
      3          6           0      -24.680983    0.311170   -2.036446
      4          6           0      -26.632918   -3.956603   -0.743926
      5          6           0      -30.153173   -1.668804    1.640779
      6          7           0      -26.644299    1.267694   -0.852348
      7          6           0      -26.969783    2.484684   -0.240581
      8          6           0      -25.977006    3.603673   -0.612697
      9          6           0      -24.987912    2.814868   -1.547645
     10          6           0      -25.392529    1.358366   -1.471002
     11          6           0      -24.974131    3.336602   -2.978921
     12          6           0      -25.224775    4.381769    0.524307
     13          6           0      -25.594829    5.951381    0.716820
     14          1           0      -24.360180    6.839152    0.532423
     15          7           0      -25.965052   -1.683257   -1.273475
     16          6           0      -24.871959   -1.076051   -1.912531
     17          6           0      -23.927260   -2.076364   -2.420371
     18          6           0      -24.515238   -3.422315   -2.125170
     19          6           0      -25.736185   -3.091336   -1.287206
     20          6           0      -22.646946   -1.714676   -3.140467
     21          6           0      -24.068401   -4.765693   -2.463943
     22          8           0      -24.784989   -5.739684   -2.189869
     23          6           0      -22.776417   -5.045527   -3.211463
     24          7           0      -28.303056   -2.464452    0.324435
     25          6           0      -27.768536   -3.737324    0.051896
     26          6           0      -28.578437   -4.948748    0.667983
     27          6           0      -29.745171   -4.118925    1.415412
     28          6           0      -29.360180   -2.651899    1.118653
     29          6           0      -29.132389   -6.001344   -0.413878
     30          6           0      -29.800658   -4.447599    2.947000
     31          6           0      -31.145254   -4.527145    3.599454
     32          7           0      -28.885676    0.288437    0.851339
     33          6           0      -29.968448   -0.243404    1.557512
     34          6           0      -30.699377    0.783870    2.217410
     35          6           0      -29.895177    1.948259    1.930263
     36          6           0      -28.878250    1.566861    1.045866
     37          6           0      -31.880272    0.727379    3.092801
     38          6           0      -29.855630    3.369937    2.073659
     39          8           0      -30.521142    4.205179    2.695805
     40          6           0      -28.714225    3.846395    1.065115
     41          6           0      -29.332993    4.685682    0.005095
     42          8           0      -29.637164    4.381319   -1.080699
     43          8           0      -29.415104    6.010405    0.427713
     44          6           0      -29.433784    6.993152   -0.635771
     45          1           0      -23.800867    0.643481   -2.590957
     46          1           0      -26.473997   -5.032060   -0.846200
     47          1           0      -30.970140   -1.971563    2.299019
     48          1           0      -26.498287    4.339695   -1.223827
     49          1           0      -23.949916    2.948997   -1.241956
     50          1           0      -25.375181    2.565191   -3.635786
     51          1           0      -23.910829    3.476361   -3.169966
     52          1           0      -25.454132    4.302057   -3.137501
     53          1           0      -24.154932    4.303254    0.329379
     54          1           0      -25.430606    3.948239    1.503072
     55          1           0      -25.875498    5.990014    1.769506
     56          1           0      -26.385874    6.243254    0.026414
     57          1           0      -22.937204   -1.359952   -4.130192
     58          1           0      -22.046821   -2.618690   -3.231827
     59          1           0      -22.121555   -0.869623   -2.695028
     60          1           0      -22.877769   -6.060941   -3.595107
     61          1           0      -21.880434   -4.934096   -2.599916
     62          1           0      -22.617869   -4.517330   -4.151453
     63          1           0      -27.991196   -5.423265    1.453497
     64          1           0      -30.757272   -4.343322    1.077893
     65          1           0      -30.128742   -6.318097   -0.104874
     66          1           0      -28.617474   -6.959412   -0.473798
     67          1           0      -29.169067   -5.594624   -1.424684
     68          1           0      -29.178984   -3.796841    3.561711
     69          1           0      -29.427268   -5.446317    3.172555
     70          1           0      -31.169514   -3.674710    4.278138
     71          1           0      -31.367509   -5.319498    4.314218
     72          1           0      -31.927035   -4.438445    2.844390
     73          1           0      -31.899628   -0.248163    3.579422
     74          1           0      -32.721741    0.796626    2.403533
     75          1           0      -31.901293    1.627623    3.707276
     76          1           0      -27.973405    4.444200    1.595482
     77          1           0      -30.451489    6.939479   -1.020916
     78          1           0      -28.726801    6.629888   -1.381464
     79          1           0      -29.235008    7.996745   -0.258661
     80         12           0       28.194043    0.287698    0.243311
     81          6           0       24.840649   -0.333822   -0.476419
     82          6           0       27.654054   -0.774572    3.478210
     83          6           0       31.399562    0.844133    0.671482
     84          6           0       28.835187    0.337113   -3.344032
     85          7           0       26.328053   -0.431665    1.382268
     86          6           0       25.072172   -0.637810    0.884381
     87          6           0       24.141805   -1.084121    1.955812
     88          6           0       25.069470   -1.266143    3.222718
     89          6           0       26.482713   -0.792936    2.702488
     90          6           0       24.532815   -0.608274    4.518887
     91          6           0       23.390839   -2.390551    1.601236
     92          6           0       21.884675   -2.217548    1.789375
     93          1           0       21.146333   -3.262496    2.679284
     94          7           0       29.363183    0.092538    1.875322
     95          6           0       28.974663   -0.317359    3.149906
     96          6           0       30.164209   -0.180871    3.980439
     97          6           0       31.287991    0.333598    3.181339
     98          6           0       30.696288    0.524472    1.819455
     99          6           0       30.228491   -0.669840    5.340078
    100          6           0       32.659657    0.414050    3.710777
    101          8           0       32.969066    0.136097    4.850487
    102          6           0       33.850443    0.751648    2.883176
    103          7           0       29.803606    0.496341   -1.109366
    104          6           0       30.991828    1.005137   -0.649678
    105          6           0       31.954064    1.203994   -1.801710
    106          6           0       31.272161    0.574943   -2.958656
    107          6           0       29.923033    0.386337   -2.468902
    108          6           0       32.458619    2.690951   -2.007139
    109          6           0       31.827431   -0.849708   -3.302823
    110          6           0       31.749195   -1.263363   -4.699450
    111          7           0       27.093675    0.084265   -1.590364
    112          6           0       27.456537    0.191371   -2.939349
    113          6           0       26.272303    0.284254   -3.734230
    114          6           0       25.229728    0.045571   -2.846651
    115          6           0       25.786047   -0.114321   -1.527524
    116          6           0       26.273997    0.520930   -5.199419
    117          6           0       23.836297   -0.136949   -2.748502
    118          8           0       22.983140   -0.103045   -3.606992
    119          6           0       23.522435   -0.328079   -1.247847
    120          6           0       22.555661    0.697618   -0.825055
    121          8           0       22.838595    1.845766   -0.443341
    122          8           0       21.276548    0.251294   -1.066172
    123          6           0       20.131891    1.041425   -0.642826
    124          1           0       27.396226   -1.063495    4.498701
    125          1           0       32.481098    1.000524    0.657908
    126          1           0       29.070988    0.385128   -4.409204
    127          1           0       23.584764   -0.183678    2.216196
    128          1           0       25.183079   -2.304200    3.533661
    129          1           0       23.475016   -0.474654    4.289165
    130          1           0       25.046946    0.290259    4.860235
    131          1           0       24.609523   -1.310245    5.348863
    132          1           0       23.615614   -3.226052    2.263940
    133          1           0       23.658646   -2.623825    0.570880
    134          1           0       21.557466   -2.431066    0.771914
    135          1           0       21.711001   -1.177735    2.062420
    136          1           0       29.245198   -1.059805    5.603934
    137          1           0       30.417917    0.079464    6.109273
    138          1           0       30.941728   -1.493101    5.393669
    139          1           0       33.458298    1.629136    2.369006
    140          1           0       34.033154   -0.066602    2.186125
    141          1           0       34.708966    1.000342    3.507402
    142          1           0       32.832084    0.642518   -1.484581
    143          1           0       31.135807    1.174926   -3.858452
    144          1           0       32.169260    3.312870   -1.159827
    145          1           0       32.223612    3.126445   -2.978961
    146          1           0       33.539118    2.793779   -1.910810
    147          1           0       31.329504   -1.588445   -2.674661
    148          1           0       32.882401   -0.924365   -3.039540
    149          1           0       32.639439   -0.906155   -5.218246
    150          1           0       30.832744   -0.921904   -5.181856
    151          1           0       31.915129   -2.338657   -4.772607
    152          1           0       27.047972    1.234229   -5.482410
    153          1           0       25.308679    0.832408   -5.598794
    154          1           0       26.613058   -0.430235   -5.609922
    155          1           0       22.953089   -1.235487   -1.046016
    156          1           0       19.891158    1.957528   -1.182279
    157          1           0       20.212819    1.256035    0.422577
    158          1           0       19.278531    0.397286   -0.851599
 ---------------------------------------------------------------------

 SCF Done:  E(RPBE1PBE) =  -4067.33722047     A.U. after   16 cycles

 Excitation energies and oscillator strengths:

 Excited State   1:      Singlet-A      1.8151 eV  683.08 nm  f=0.3940  <S**2>=0.000
     309 -> 316        0.14964
     312 -> 313        0.69576
     312 <- 313       -0.11534
 This state for optimization and/or second-order correction.
 Total Energy, E(TD-HF/TD-DFT) =  -4067.27051764
 Copying the excited state density for this state as the 1-particle RhoCI density.

 Excited State   2:      Singlet-A      1.8373 eV  674.81 nm  f=0.3534  <S**2>=0.000
     310 -> 315       -0.18247
     311 -> 314        0.68984
     311 <- 314       -0.10422

 Excited State   3:      Singlet-A      1.9644 eV  631.17 nm  f=0.0000  <S**2>=0.000
     312 -> 314        0.70711

 Excited State   4:      Singlet-A      1.9821 eV  625.51 nm  f=0.0000  <S**2>=0.000
     311 -> 313        0.70711

 Excited State   5:      Singlet-A      2.1967 eV  564.41 nm  f=0.0974  <S**2>=0.000
     310 -> 314        0.64586
     311 -> 315        0.27301

 The electronic state is 1-A.
 Alpha  occ. eigenvalues --  -46.92337 -46.91369 -19.25537 -19.22901 -19.19812
 Alpha  occ. eigenvalues --  -19.19598 -19.18895 -19.18646 -19.18457 -19.17604
 Alpha  occ. eigenvalues --  -14.42054 -14.41849 -14.41567 -14.41467 -14.39937
 Alpha  occ. eigenvalues --  -14.39882 -14.38871 -14.38377 -10.36107 -10.35164
 Alpha  occ. eigenvalues --  -10.32239 -10.31561 -10.31371 -10.30819 -10.29437
 Alpha  occ. eigenvalues --  -10.29343 -10.29338 -10.29198 -10.28906 -10.28848
 Alpha  occ. eigenvalues --  -10.28737 -10.28723 -10.28645 -10.28554 -10.28467
 Alpha  occ. eigenvalues --  -10.28263 -10.28185 -10.27898 -10.27846 -10.27713
 Alpha  occ. eigenvalues --  -10.27344 -10.27108 -10.27065 -10.26851 -10.26515
 Alpha  occ. eigenvalues --  -10.26417 -10.26216 -10.26174 -10.26170 -10.26155
 Alpha  occ. eigenvalues --  -10.26116 -10.26068 -10.26041 -10.25766 -10.25703
 Alpha  occ. eigenvalues --  -10.25698 -10.25548 -10.25468 -10.25381 -10.25152
 Alpha  occ. eigenvalues --  -10.25140 -10.25087 -10.25066 -10.24945 -10.24913
 Alpha  occ. eigenvalues --  -10.24870 -10.24805 -10.24777 -10.24417 -10.24304
 Alpha  occ. eigenvalues --  -10.24207 -10.24117 -10.23961 -10.23950 -10.23887
 Alpha  occ. eigenvalues --  -10.23712 -10.23597 -10.23581 -10.23363 -10.23327
 Alpha  occ. eigenvalues --  -10.23001 -10.22823 -10.22533 -10.22530 -10.22488
 Alpha  occ. eigenvalues --  -10.22270  -3.14409  -3.13702  -1.87252  -1.86792
 Alpha  occ. eigenvalues --   -1.86622  -1.86514  -1.86088  -1.85944  -1.11599
 Alpha  occ. eigenvalues --   -1.10223  -1.04866  -1.04586  -1.04087  -1.03074
 Alpha  occ. eigenvalues --   -1.02648  -1.01515  -0.99609  -0.99507  -0.98487
 Alpha  occ. eigenvalues --   -0.98087  -0.97648  -0.96625  -0.96185  -0.95107
 Alpha  occ. eigenvalues --   -0.87096  -0.87041  -0.85127  -0.83874  -0.83472
 Alpha  occ. eigenvalues --   -0.83397  -0.82920  -0.82760  -0.82071  -0.81775
 Alpha  occ. eigenvalues --   -0.81623  -0.81577  -0.80801  -0.80570  -0.79545
 Alpha  occ. eigenvalues --   -0.78883  -0.78475  -0.77834  -0.77759  -0.76818
 Alpha  occ. eigenvalues --   -0.76672  -0.75954  -0.75753  -0.75250  -0.75175
 Alpha  occ. eigenvalues --   -0.74614  -0.73031  -0.72961  -0.72304  -0.71755
 Alpha  occ. eigenvalues --   -0.71431  -0.71020  -0.70642  -0.69759  -0.69629
 Alpha  occ. eigenvalues --   -0.69590  -0.67887  -0.67578  -0.66508  -0.66121
 Alpha  occ. eigenvalues --   -0.63820  -0.63627  -0.63492  -0.63133  -0.62433
 Alpha  occ. eigenvalues --   -0.62367  -0.61950  -0.61884  -0.60951  -0.60433
 Alpha  occ. eigenvalues --   -0.60132  -0.59829  -0.59810  -0.59460  -0.59294
 Alpha  occ. eigenvalues --   -0.58520  -0.56636  -0.55491  -0.55317  -0.54635
 Alpha  occ. eigenvalues --   -0.54094  -0.54030  -0.54005  -0.53654  -0.53622
 Alpha  occ. eigenvalues --   -0.53162  -0.52890  -0.52558  -0.52234  -0.51872
 Alpha  occ. eigenvalues --   -0.51057  -0.51008  -0.50410  -0.50108  -0.50057
 Alpha  occ. eigenvalues --   -0.49794  -0.49756  -0.49042  -0.48844  -0.48529
 Alpha  occ. eigenvalues --   -0.48320  -0.47923  -0.47776  -0.47584  -0.47481
 Alpha  occ. eigenvalues --   -0.47325  -0.47114  -0.46811  -0.46786  -0.46503
 Alpha  occ. eigenvalues --   -0.46420  -0.46354  -0.46296  -0.46219  -0.45989
 Alpha  occ. eigenvalues --   -0.45988  -0.45837  -0.45835  -0.45401  -0.45163
 Alpha  occ. eigenvalues --   -0.45032  -0.44790  -0.44670  -0.44487  -0.44412
 Alpha  occ. eigenvalues --   -0.44212  -0.44140  -0.44121  -0.43795  -0.43502
 Alpha  occ. eigenvalues --   -0.43487  -0.43280  -0.43260  -0.43241  -0.43123
 Alpha  occ. eigenvalues --   -0.42778  -0.42684  -0.42316  -0.41939  -0.41855
 Alpha  occ. eigenvalues --   -0.41741  -0.41662  -0.41556  -0.41515  -0.41292
 Alpha  occ. eigenvalues --   -0.41179  -0.41044  -0.40972  -0.40901  -0.40813
 Alpha  occ. eigenvalues --   -0.40518  -0.40162  -0.40101  -0.40072  -0.39811
 Alpha  occ. eigenvalues --   -0.39768  -0.39462  -0.39347  -0.39262  -0.39063
 Alpha  occ. eigenvalues --   -0.38893  -0.38539  -0.38444  -0.38358  -0.38238
 Alpha  occ. eigenvalues --   -0.38161  -0.38111  -0.37907  -0.37829  -0.37811
 Alpha  occ. eigenvalues --   -0.37776  -0.37434  -0.37252  -0.36976  -0.36822
 Alpha  occ. eigenvalues --   -0.36627  -0.36582  -0.36383  -0.36298  -0.36164
 Alpha  occ. eigenvalues --   -0.36074  -0.36061  -0.35929  -0.35604  -0.35535
 Alpha  occ. eigenvalues --   -0.35167  -0.35104  -0.34850  -0.34100  -0.34018
 Alpha  occ. eigenvalues --   -0.33714  -0.33542  -0.32808  -0.32717  -0.32697
 Alpha  occ. eigenvalues --   -0.32332  -0.32164  -0.32040  -0.31414  -0.31262
 Alpha  occ. eigenvalues --   -0.31183  -0.29848  -0.29681  -0.29547  -0.29193
 Alpha  occ. eigenvalues --   -0.28940  -0.28624  -0.28244  -0.27105  -0.27047
 Alpha  occ. eigenvalues --   -0.26070  -0.25713  -0.25539  -0.25504  -0.25263
 Alpha  occ. eigenvalues --   -0.25069  -0.24822  -0.24342  -0.21301  -0.21278
 Alpha  occ. eigenvalues --   -0.19239  -0.19088
 Alpha virt. eigenvalues --   -0.11716  -0.11631  -0.05984  -0.05801  -0.04270
 Alpha virt. eigenvalues --   -0.03964  -0.02203  -0.02064  -0.00566  -0.00208
 Alpha virt. eigenvalues --   -0.00065   0.00725   0.00805   0.01193   0.01205

 Mulliken charges:
               1
     1  Mg  12.002316
     2  C    5.990139
     3  C    6.010455
     4  C    6.015261
     5  C    5.993197
     6  N    6.995119
     7  C    6.024565
     8  C    5.988175
     9  C    6.008448
    10  C    5.975121
    11  C    6.001029
    12  C    5.998924
    13  C    5.996249
    14  H    1.008436
    15  N    7.000586
    16  C    5.966035
    17  C    5.971444
    18  C    5.987431
    19  C    5.971990
    20  C    6.001994
    21  C    5.988836
    22  O    7.969972
    23  C    6.006330
    24  N    7.001397
    25  C    5.967520
    26  C    6.013259
    27  C    5.987652
    28  C    6.030774
    29  C    6.002617
    30  C    5.994470
    31  C    6.000364
    32  N    7.000527
    33  C    6.035034
    34  C    6.027059
    35  C    6.004943
    36  C    6.024706
    37  C    5.999893
    38  C    6.016099
    39  O    8.032421
    40  C    5.999633
    41  C    6.000805
    42  O    8.008064
    43  O    7.999655
    44  C    5.997995
    45  H    0.991876
    46  H    0.993376
    47  H    1.009506
    48  H    1.002615
    49  H    1.000138
    50  H    1.002873
    51  H    1.000052
    52  H    0.987658
    53  H    1.009039
    54  H    0.997408
    55  H    0.997103
    56  H    0.997957
    57  H    0.980402
    58  H    0.986074
    59  H    0.980728
    60  H    0.986581
    61  H    0.990061
    62  H    0.992288
    63  H    0.997509
    64  H    1.003330
    65  H    0.989604
    66  H    1.001734
    67  H    1.001532
    68  H    1.000647
    69  H    1.011125
    70  H    0.995157
    71  H    1.004963
    72  H    1.000115
    73  H    1.017359
    74  H    1.017870
    75  H    1.012685
    76  H    1.010977
    77  H    1.002121
    78  H    1.006054
    79  H    1.004550
    80  Mg  11.999980
    81  C    5.999974
    82  C    6.000189
    83  C    6.000097
    84  C    5.999811
    85  N    6.999991
    86  C    6.000254
    87  C    5.999902
    88  C    6.000085
    89  C    5.999694
    90  C    6.000027
    91  C    5.999977
    92  C    5.999966
    93  H    1.000129
    94  N    7.000037
    95  C    5.999515
    96  C    5.999820
    97  C    5.999824
    98  C    5.999668
    99  C    6.000138
   100  C    5.999895
   101  O    7.999786
   102  C    6.000017
   103  N    6.999901
   104  C    5.999709
   105  C    6.000084
   106  C    5.999926
   107  C    6.000371
   108  C    6.000018
   109  C    5.999938
   110  C    5.999991
   111  N    7.000037
   112  C    6.000418
   113  C    6.000249
   114  C    6.000055
   115  C    6.000267
   116  C    5.999960
   117  C    6.000256
   118  O    8.000385
   119  C    5.999918
   120  C    6.000057
   121  O    8.000076
   122  O    8.000010
   123  C    5.999946
   124  H    0.999890
   125  H    0.999859
   126  H    1.000096
   127  H    1.000042
   128  H    0.999996
   129  H    0.999899
   130  H    1.000015
   131  H    1.000001
   132  H    1.000083
   133  H    0.999927
   134  H    0.999981
   135  H    1.000005
   136  H    0.999790
   137  H    0.999742
   138  H    0.999775
   139  H    0.999932
   140  H    0.999882
   141  H    0.999841
   142  H    0.999995
   143  H    0.999962
   144  H    1.000018
   145  H    0.999863
   146  H    0.999956
   147  H    1.000058
   148  H    1.000126
   149  H    1.000037
   150  H    0.999951
   151  H    1.000034
   152  H    1.000186
   153  H    1.000163
   154  H    1.000208
   155  H    1.000135
   156  H    1.000045
   157  H    1.000062
   158  H    1.000096
 Sum of Mulliken charges = 624.00000

 Dipole moment (field-independent basis, Debye):
    X=             -7.5760    Y=              5.3460    Z=              5.3400  Tot=             10.7000
 Quadrupole moment (field-independent basis, Debye-Ang):
   XX=            404.1414   YY=             -4.5739   ZZ=             -1.6559
   XY=           -140.2223   XZ=           -149.0751   YZ=             -5.1514

 Normal termination of Gaussian 16 at Fri Oct 15 13:40:41 2021.
