 Gaussian 16, Revision A.03,
 Gaussian 16:  ES64L-G16RevA.03 25-Dec-2016

 --------------------------------------------------------
 #p PBE1PBE/Def2SVP td=(nstates=5) density=(transition=1)
 --------------------------------------------------------

 --------------------------------
 TDDFT excited states in gaussian
 --------------------------------
 Symbolic Z-matrix:
 Charge =  0 Multiplicity = 1

                         Standard orientation:
 ---------------------------------------------------------------------
 Center     Atomic      Atomic             Coordinates (Angstroms)
 Number     Number       Type             X           Y           Z
 ---------------------------------------------------------------------
      1         12           0       25.043660   -0.057453   -0.110488
      2          6           0       21.522247   -0.108364    0.294216
      3          6           0       24.602280    2.194862   -2.612462
      4          6           0       28.376005    0.589497    0.080090
      5          6           0       25.300081   -1.941890    2.787078
      6          7           0       23.190776    0.989242   -0.870628
      7          6           0       21.854341    0.770839   -0.664904
      8          6           0       21.011025    1.564159   -1.592487
      9          6           0       22.047732    2.023944   -2.722319
     10          6           0       23.347354    1.745036   -2.047782
     11          6           0       21.845044    1.261610   -4.021838
     12          6           0       20.333803    2.666890   -0.763647
     13          6           0       18.752639    2.776625   -0.839744
     14          1           0       18.051264    4.111280   -1.234045
     15          7           0       26.368038    1.159476   -1.118287
     16          6           0       25.975532    1.960633   -2.199538
     17          6           0       27.163105    2.475466   -2.812372
     18          6           0       28.302268    2.061567   -2.042556
     19          6           0       27.706401    1.169084   -1.012529
     20          6           0       27.086338    3.305570   -4.087295
     21          6           0       29.761763    2.402154   -2.245365
     22          8           0       29.983834    3.054575   -3.306265
     23          6           0       30.961533    2.151571   -1.288508
     24          7           0       26.661273   -0.603521    1.247144
     25          6           0       27.950641   -0.233220    1.084916
     26          6           0       28.883205   -0.757820    2.208676
     27          6           0       27.897575   -1.669404    3.018133
     28          6           0       26.494332   -1.337046    2.322904
     29          6           0       30.056660   -1.499384    1.593836
     30          6           0       27.837458   -1.401678    4.491047
     31          6           0       28.398074   -2.513942    5.335146
     32          7           0       23.790736   -1.009756    1.168259
     33          6           0       23.984730   -1.806866    2.303489
     34          6           0       22.823999   -2.419465    2.707837
     35          6           0       21.823754   -1.811671    1.921887
     36          6           0       22.454109   -0.912942    1.064352
     37          6           0       22.780670   -3.576983    3.682837
     38          6           0       20.369137   -1.844323    1.614376
     39          8           0       19.513351   -2.527436    2.084978
     40          6           0       20.195245   -0.652282    0.598956
     41          6           0       19.214226   -1.112474   -0.457200
     42          8           0       18.036523   -0.759552   -0.519721
     43          8           0       19.857614   -1.962264   -1.389487
     44          6           0       18.983124   -2.333634   -2.501504
     45          1           0       24.473942    2.739567   -3.550432
     46          1           0       29.463290    0.689019    0.119513
     47          1           0       25.289415   -2.342430    3.802279
     48          1           0       20.239166    0.923099   -2.018557
     49          1           0       21.882782    3.082276   -2.922603
     50          1           0       21.580417    0.216055   -3.870157
     51          1           0       22.798699    1.227294   -4.549643
     52          1           0       21.141342    1.736700   -4.705316
     53          1           0       20.762752    3.615734   -1.085499
     54          1           0       20.615279    2.662442    0.289375
     55          1           0       18.501401    2.550954    0.196946
     56          1           0       18.331674    1.919003   -1.363182
     57          1           0       26.365104    4.116363   -3.984522
     58          1           0       26.725446    2.631434   -4.863989
     59          1           0       27.983263    3.847164   -4.390922
     60          1           0       31.079921    1.068933   -1.319547
     61          1           0       30.684205    2.488429   -0.289584
     62          1           0       31.859421    2.690334   -1.592382
     63          1           0       29.308625    0.025540    2.835435
     64          1           0       28.072425   -2.716059    2.770377
     65          1           0       30.497880   -0.849810    0.837684
     66          1           0       29.675548   -2.407635    1.125900
     67          1           0       30.828873   -1.911034    2.242605
     68          1           0       26.824078   -1.271990    4.870980
     69          1           0       28.326571   -0.494448    4.845190
     70          1           0       29.156024   -2.086242    5.990253
     71          1           0       28.932308   -3.261432    4.748670
     72          1           0       27.647276   -3.073619    5.893986
     73          1           0       21.807364   -4.048800    3.544261
     74          1           0       22.883103   -3.250720    4.717531
     75          1           0       23.617275   -4.212456    3.393233
     76          1           0       19.612504    0.057326    1.187435
     77          1           0       19.571211   -2.556160   -3.391963
     78          1           0       18.383141   -1.488080   -2.834895
     79          1           0       18.306447   -3.153260   -2.258232
     80         12           0      -24.905720    0.329472    0.348737
     81          6           0      -22.098804   -1.714767   -0.247254
     82          6           0      -26.899140   -2.121935   -0.895280
     83          6           0      -27.552756    2.378496    0.833140
     84          6           0      -22.756237    2.927270    1.179224
     85          7           0      -24.545868   -1.614646   -0.554166
     86          6           0      -23.328787   -2.300611   -0.590648
     87          6           0      -23.567806   -3.714245   -1.028921
     88          6           0      -24.973815   -3.631393   -1.669269
     89          6           0      -25.523622   -2.352850   -0.985874
     90          6           0      -25.051783   -3.471868   -3.220482
     91          6           0      -23.468079   -4.809843    0.098321
     92          6           0      -22.647355   -6.004524   -0.270399
     93          1           0      -23.240028   -7.381668    0.082018
     94          7           0      -26.897627    0.098155    0.113041
     95          6           0      -27.573053   -1.047211   -0.340262
     96          6           0      -28.965034   -0.837206   -0.292955
     97          6           0      -29.215264    0.516752    0.232887
     98          6           0      -27.893724    1.041928    0.425939
     99          6           0      -30.011973   -1.770174   -0.827569
    100          6           0      -30.548489    1.351687    0.465877
    101          8           0      -30.509902    2.463080    0.938123
    102          6           0      -31.914900    0.737236    0.197662
    103          7           0      -25.109859    2.403356    0.820747
    104          6           0      -26.325084    2.997967    0.939763
    105          6           0      -26.147766    4.551689    1.293128
    106          6           0      -24.612794    4.649577    1.701040
    107          6           0      -24.100279    3.232100    1.201351
    108          6           0      -26.512729    5.559948    0.168703
    109          6           0      -24.365858    4.875503    3.235194
    110          6           0      -23.491489    6.034229    3.472942
    111          7           0      -22.854804    0.599503    0.407149
    112          6           0      -22.119168    1.687897    0.873643
    113          6           0      -20.716342    1.374437    0.851740
    114          6           0      -20.665075    0.072751    0.396374
    115          6           0      -21.931873   -0.365228    0.170621
    116          6           0      -19.632932    2.361386    1.359392
    117          6           0      -19.775153   -1.016701    0.039076
    118          8           0      -18.565676   -1.001120   -0.025702
    119          6           0      -20.697553   -2.249101   -0.428713
    120          6           0      -20.354328   -2.602617   -1.818349
    121          8           0      -20.418739   -1.808254   -2.792998
    122          8           0      -19.928483   -3.898389   -1.839507
    123          6           0      -19.195368   -4.282091   -3.074956
    124          1           0      -27.471083   -2.935507   -1.346234
    125          1           0      -28.346887    3.109124    0.999450
    126          1           0      -22.093840    3.772794    1.373558
    127          1           0      -22.933522   -4.035752   -1.855893
    128          1           0      -25.599736   -4.498730   -1.458684
    129          1           0      -24.253062   -3.984115   -3.758496
    130          1           0      -25.040766   -2.401702   -3.428793
    131          1           0      -25.997530   -3.759066   -3.679317
    132          1           0      -24.501110   -5.067274    0.331374
    133          1           0      -23.093887   -4.390838    1.032863
    134          1           0      -21.722619   -5.793863    0.267035
    135          1           0      -22.531696   -6.047794   -1.353303
    136          1           0      -30.596029   -2.304564   -0.077976
    137          1           0      -29.524725   -2.576314   -1.374567
    138          1           0      -30.760933   -1.370911   -1.510964
    139          1           0      -32.638510    1.459884    0.572855
    140          1           0      -31.986358   -0.274778    0.597259
    141          1           0      -31.999569    0.476047   -0.857596
    142          1           0      -26.843021    4.833321    2.084121
    143          1           0      -24.153619    5.446335    1.113966
    144          1           0      -26.786934    5.133138   -0.796609
    145          1           0      -25.707385    6.259605   -0.056293
    146          1           0      -27.357074    6.143576    0.536493
    147          1           0      -23.840413    4.006405    3.632771
    148          1           0      -25.267237    5.067054    3.817003
    149          1           0      -24.113748    6.887298    3.744717
    150          1           0      -22.773972    6.324065    2.706121
    151          1           0      -22.799375    5.802814    4.282663
    152          1           0      -20.112065    3.128909    1.967675
    153          1           0      -19.003727    2.719783    0.543395
    154          1           0      -19.029001    1.762490    2.040058
    155          1           0      -20.566480   -3.117243    0.217733
    156          1           0      -18.769943   -5.279726   -2.967415
    157          1           0      -18.331518   -3.617681   -3.104863
    158          1           0      -19.886274   -4.139530   -3.906346
 ---------------------------------------------------------------------

 SCF Done:  E(RPBE1PBE) =  -4067.39631153     A.U. after   16 cycles

 Excitation energies and oscillator strengths:

 Excited State   1:      Singlet-A      1.8485 eV  670.72 nm  f=0.3442  <S**2>=0.000
     309 -> 315        0.16628
     311 -> 313        0.69424
     311 <- 313       -0.11258
 This state for optimization and/or second-order correction.
 Total Energy, E(TD-HF/TD-DFT) =  -4067.32837985
 Copying the excited state density for this state as the 1-particle RhoCI density.

 Excited State   2:      Singlet-A      1.8995 eV  652.73 nm  f=0.3770  <S**2>=0.000
     310 -> 316       -0.17453
     312 -> 314        0.69181
     312 <- 314       -0.10895

 Excited State   3:      Singlet-A      1.9305 eV  642.23 nm  f=0.0000  <S**2>=0.000
     312 -> 313        0.70711

 Excited State   4:      Singlet-A      2.0709 eV  598.69 nm  f=0.0000  <S**2>=0.000
     311 -> 314        0.70711

 Excited State   5:      Singlet-A      2.2337 eV  555.05 nm  f=0.1564  <S**2>=0.000
     309 -> 313        0.65765
     311 -> 315       -0.24159

 The electronic state is 1-A.
 Alpha  occ. eigenvalues --  -46.92408 -46.90598 -19.26298 -19.26280 -19.21255
 Alpha  occ. eigenvalues --  -19.20092 -19.19970 -19.19765 -19.19355 -19.18517
 Alpha  occ. eigenvalues --  -14.41921 -14.41679 -14.41481 -14.41051 -14.39702
 Alpha  occ. eigenvalues --  -14.38939 -14.38723 -14.38306 -10.37410 -10.36436
 Alpha  occ. eigenvalues --  -10.33374 -10.32831 -10.32671 -10.32283 -10.29678
 Alpha  occ. eigenvalues --  -10.29372 -10.28906 -10.28892 -10.28864 -10.28530
 Alpha  occ. eigenvalues --  -10.28296 -10.28287 -10.28278 -10.28276 -10.28257
 Alpha  occ. eigenvalues --  -10.28175 -10.28153 -10.27405 -10.27003 -10.26786
 Alpha  occ. eigenvalues --  -10.26646 -10.26407 -10.26322 -10.26183 -10.26179
 Alpha  occ. eigenvalues --  -10.26129 -10.26116 -10.26021 -10.26011 -10.25959
 Alpha  occ. eigenvalues --  -10.25833 -10.25814 -10.25761 -10.25712 -10.25568
 Alpha  occ. eigenvalues --  -10.25509 -10.25508 -10.25461 -10.25431 -10.25429
 Alpha  occ. eigenvalues --  -10.25312 -10.25295 -10.25035 -10.24666 -10.24641
 Alpha  occ. eigenvalues --  -10.24615 -10.24507 -10.24434 -10.24344 -10.24080
 Alpha  occ. eigenvalues --  -10.24072 -10.24051 -10.23956 -10.23917 -10.23763
 Alpha  occ. eigenvalues --  -10.23673 -10.23563 -10.23507 -10.23436 -10.23343
 Alpha  occ. eigenvalues --  -10.22896 -10.22800 -10.22794 -10.22617 -10.22179
 Alpha  occ. eigenvalues --  -10.22085  -3.14551  -3.12900  -1.87371  -1.86930
 Alpha  occ. eigenvalues --   -1.86779  -1.85748  -1.85263  -1.85150  -1.10517
 Alpha  occ. eigenvalues --   -1.10336  -1.06849  -1.06336  -1.05167  -1.02793
 Alpha  occ. eigenvalues --   -1.02309  -1.01118  -0.99876  -0.99505  -0.98946
 Alpha  occ. eigenvalues --   -0.98102  -0.97990  -0.97401  -0.97190  -0.95970
 Alpha  occ. eigenvalues --   -0.87690  -0.86978  -0.84197  -0.83632  -0.83444
 Alpha  occ. eigenvalues --   -0.83359  -0.82924  -0.82289  -0.82188  -0.81412
 Alpha  occ. eigenvalues --   -0.81360  -0.80641  -0.80235  -0.80210  -0.79099
 Alpha  occ. eigenvalues --   -0.78613  -0.78541  -0.78107  -0.77174  -0.76932
 Alpha  occ. eigenvalues --   -0.76210  -0.76097  -0.75491  -0.75014  -0.74994
 Alpha  occ. eigenvalues --   -0.74827  -0.72467  -0.72141  -0.71747  -0.71630
 Alpha  occ. eigenvalues --   -0.71182  -0.71091  -0.70797  -0.70035  -0.69866
 Alpha  occ. eigenvalues --   -0.69198  -0.67987  -0.67347  -0.66670  -0.65383
 Alpha  occ. eigenvalues --   -0.63778  -0.63376  -0.63039  -0.62472  -0.62118
 Alpha  occ. eigenvalues --   -0.61953  -0.61679  -0.60885  -0.60694  -0.60151
 Alpha  occ. eigenvalues --   -0.59940  -0.59936  -0.59589  -0.59499  -0.59075
 Alpha  occ. eigenvalues --   -0.58587  -0.57680  -0.56530  -0.55076  -0.54821
 Alpha  occ. eigenvalues --   -0.54625  -0.54595  -0.54209  -0.53837  -0.53642
 Alpha  occ. eigenvalues --   -0.52716  -0.52712  -0.52399  -0.52085  -0.51379
 Alpha  occ. eigenvalues --   -0.50831  -0.50673  -0.50337  -0.50259  -0.50209
 Alpha  occ. eigenvalues --   -0.50026  -0.49472  -0.49429  -0.48978  -0.48448
 Alpha  occ. eigenvalues --   -0.48398  -0.48227  -0.48041  -0.47971  -0.47807
 Alpha  occ. eigenvalues --   -0.47389  -0.47292  -0.47166  -0.46834  -0.46515
 Alpha  occ. eigenvalues --   -0.46431  -0.46430  -0.46200  -0.45847  -0.45754
 Alpha  occ. eigenvalues --   -0.45729  -0.45519  -0.45452  -0.45149  -0.44988
 Alpha  occ. eigenvalues --   -0.44833  -0.44671  -0.44656  -0.44495  -0.44341
 Alpha  occ. eigenvalues --   -0.44274  -0.44030  -0.43986  -0.43585  -0.43546
 Alpha  occ. eigenvalues --   -0.43346  -0.43295  -0.42999  -0.42646  -0.42646
 Alpha  occ. eigenvalues --   -0.42419  -0.42393  -0.41928  -0.41885  -0.41628
 Alpha  occ. eigenvalues --   -0.41417  -0.41324  -0.41317  -0.41168  -0.41156
 Alpha  occ. eigenvalues --   -0.40818  -0.40788  -0.40649  -0.40557  -0.40494
 Alpha  occ. eigenvalues --   -0.40475  -0.40204  -0.40086  -0.40078  -0.39942
 Alpha  occ. eigenvalues --   -0.39833  -0.39675  -0.39485  -0.39439  -0.39207
 Alpha  occ. eigenvalues --   -0.39127  -0.38942  -0.38675  -0.38482  -0.38255
 Alpha  occ. eigenvalues --   -0.38153  -0.38136  -0.37844  -0.37629  -0.37565
 Alpha  occ. eigenvalues --   -0.37441  -0.37317  -0.37262  -0.37208  -0.37015
 Alpha  occ. eigenvalues --   -0.36901  -0.36751  -0.36709  -0.36561  -0.36401
 Alpha  occ. eigenvalues --   -0.36208  -0.36097  -0.36007  -0.35843  -0.35327
 Alpha  occ. eigenvalues --   -0.35051  -0.34880  -0.34068  -0.34045  -0.33765
 Alpha  occ. eigenvalues --   -0.33758  -0.33333  -0.33195  -0.32827  -0.32823
 Alpha  occ. eigenvalues --   -0.32764  -0.32385  -0.32192  -0.31726  -0.31448
 Alpha  occ. eigenvalues --   -0.31383  -0.31043  -0.30294  -0.29851  -0.29471
 Alpha  occ. eigenvalues --   -0.29114  -0.28849  -0.28568  -0.27417  -0.26924
 Alpha  occ. eigenvalues --   -0.26459  -0.26155  -0.25878  -0.25666  -0.25615
 Alpha  occ. eigenvalues --   -0.25482  -0.25127  -0.25096  -0.21374  -0.20908
 Alpha  occ. eigenvalues --   -0.19271  -0.19103
 Alpha virt. eigenvalues --   -0.11740  -0.11395  -0.05363  -0.04820  -0.03978
 Alpha virt. eigenvalues --   -0.03533  -0.02109  -0.01669  -0.00951  -0.00462
 Alpha virt. eigenvalues --   -0.00169   0.00689   0.00726   0.01402   0.01461

 Mulliken charges:
               1
     1  Mg  12.001188
     2  C    5.977297
     3  C    5.993215
     4  C    6.033165
     5  C    6.018944
     6  N    6.973284
     7  C    6.026597
     8  C    5.990575
     9  C    6.015030
    10  C    5.976374
    11  C    6.004083
    12  C    5.995840
    13  C    6.000276
    14  H    1.004806
    15  N    7.006076
    16  C    5.966904
    17  C    5.979616
    18  C    5.992700
    19  C    5.959820
    20  C    6.002602
    21  C    5.988785
    22  O    7.980954
    23  C    5.997696
    24  N    7.017472
    25  C    5.963359
    26  C    6.009738
    27  C    5.994073
    28  C    6.018961
    29  C    6.002883
    30  C    5.994893
    31  C    5.998156
    32  N    7.000742
    33  C    6.022281
    34  C    6.027711
    35  C    6.003111
    36  C    6.032725
    37  C    6.000726
    38  C    6.019350
    39  O    8.024553
    40  C    6.002136
    41  C    6.003533
    42  O    8.006052
    43  O    7.998376
    44  C    5.997277
    45  H    0.985582
    46  H    0.998606
    47  H    1.014510
    48  H    0.997942
    49  H    0.995195
    50  H    0.986076
    51  H    1.004505
    52  H    0.990060
    53  H    1.009659
    54  H    0.996393
    55  H    0.995496
    56  H    0.998463
    57  H    0.984189
    58  H    0.983354
    59  H    0.986489
    60  H    0.990590
    61  H    0.990572
    62  H    0.990248
    63  H    1.000103
    64  H    1.001712
    65  H    1.008255
    66  H    0.995730
    67  H    0.994461
    68  H    0.995412
    69  H    1.010031
    70  H    1.006706
    71  H    1.004927
    72  H    0.998144
    73  H    1.013294
    74  H    1.018513
    75  H    1.014429
    76  H    1.004723
    77  H    1.006366
    78  H    1.005234
    79  H    1.000095
    80  Mg  12.000000
    81  C    6.000238
    82  C    5.999880
    83  C    5.999860
    84  C    6.000152
    85  N    7.000067
    86  C    5.999720
    87  C    6.000053
    88  C    5.999957
    89  C    6.000194
    90  C    6.000004
    91  C    6.000012
    92  C    6.000014
    93  H    0.999947
    94  N    7.000038
    95  C    6.000145
    96  C    6.000143
    97  C    6.000092
    98  C    6.000054
    99  C    5.999963
   100  C    6.000121
   101  O    8.000159
   102  C    6.000022
   103  N    6.999976
   104  C    6.000188
   105  C    5.999970
   106  C    6.000034
   107  C    5.999757
   108  C    5.999998
   109  C    6.000005
   110  C    6.000008
   111  N    6.999936
   112  C    5.999862
   113  C    5.999842
   114  C    6.000054
   115  C    5.999854
   116  C    5.999983
   117  C    5.999800
   118  O    7.999821
   119  C    5.999986
   120  C    5.999978
   121  O    7.999988
   122  O    7.999974
   123  C    5.999992
   124  H    1.000127
   125  H    1.000082
   126  H    0.999902
   127  H    0.999984
   128  H    1.000011
   129  H    1.000058
   130  H    1.000022
   131  H    1.000012
   132  H    0.999952
   133  H    1.000002
   134  H    0.999993
   135  H    0.999998
   136  H    1.000130
   137  H    1.000075
   138  H    1.000131
   139  H    1.000073
   140  H    1.000016
   141  H    1.000042
   142  H    0.999999
   143  H    0.999997
   144  H    1.000003
   145  H    1.000052
   146  H    1.000016
   147  H    0.999993
   148  H    0.999956
   149  H    0.999988
   150  H    1.000011
   151  H    0.999977
   152  H    0.999932
   153  H    0.999889
   154  H    0.999863
   155  H    0.999918
   156  H    0.999955
   157  H    0.999987
   158  H    1.000007
 Sum of Mulliken charges = 624.00000

 Dipole moment (field-independent basis, Debye):
    X=             -4.9546    Y=             -5.6186    Z=              6.4877  Tot=              9.9099
 Quadrupole moment (field-independent basis, Debye-Ang):
   XX=           -241.0781   YY=              0.0563   ZZ=             -0.1960
   XY=           -140.8079   XZ=            164.1931   YZ=              0.5970

 Normal termination of Gaussian 16 at Thu Oct 14 21:58:31 2021.
