 Gaussian 16, Revision A.03,
 Gaussian 16:  ES64L-G16RevA.03 25-Dec-2016

 --------------------------------------------------------
 #p PBE1PBE/Def2SVP td=(nstates=5) density=(transition=1)
 --------------------------------------------------------

 --------------------------------
 TDDFT excited states in gaussian
 --------------------------------
 Symbolic Z-matrix:
 Charge =  0 Multiplicity = 1

                         Standard orientation:
 ---------------------------------------------------------------------
 Center     Atomic      Atomic             Coordinates (Angstroms)
 Number     Number       Type             X           Y           Z
 ---------------------------------------------------------------------
      1         12           0       23.679893   -0.738099    0.036038
      2          6           0       21.617867    1.874039    1.112014
      3          6           0       26.185470    1.639066   -0.294364
      4          6           0       25.473340   -3.059661   -1.365807
      5          6           0       20.885247   -2.903438    0.248024
      6          7           0       23.765764    1.620222   -0.006460
      7          6           0       22.862970    2.386329    0.614396
      8          6           0       23.411797    3.772350    0.680624
      9          6           0       24.698319    3.737761   -0.180325
     10          6           0       24.946310    2.242568   -0.153770
     11          6           0       24.685880    4.323979   -1.593179
     12          6           0       23.707405    4.213368    2.149290
     13          6           0       23.177980    5.597344    2.646180
     14          1           0       23.018861    6.763599    1.621518
     15          7           0       25.663183   -0.748480   -0.604438
     16          6           0       26.551691    0.309398   -0.464401
     17          6           0       27.824715   -0.170753   -0.893871
     18          6           0       27.632774   -1.536369   -1.349717
     19          6           0       26.233820   -1.864058   -1.118557
     20          6           0       29.105544    0.688433   -0.973725
     21          6           0       28.637823   -2.510507   -2.029021
     22          8           0       28.370635   -3.614157   -2.385365
     23          6           0       30.059920   -2.004505   -2.170410
     24          7           0       23.212168   -2.684623   -0.454879
     25          6           0       24.129147   -3.439568   -1.100316
     26          6           0       23.643046   -4.878093   -1.428837
     27          6           0       22.256206   -4.880094   -0.653214
     28          6           0       22.084916   -3.427743   -0.224055
     29          6           0       23.561906   -5.104291   -3.047134
     30          6           0       22.163764   -5.964203    0.466146
     31          6           0       22.434689   -5.532873    1.896357
     32          7           0       21.631766   -0.630659    0.602666
     33          6           0       20.667842   -1.595486    0.718925
     34          6           0       19.420517   -0.948072    1.257773
     35          6           0       19.772389    0.410947    1.420456
     36          6           0       21.122910    0.592139    0.972937
     37          6           0       18.053224   -1.559298    1.401676
     38          6           0       19.287231    1.722250    1.843739
     39          8           0       18.163114    2.018163    2.258914
     40          6           0       20.503542    2.642722    1.806681
     41          6           0       20.069673    3.858842    1.039558
     42          8           0       19.969478    3.925269   -0.171870
     43          8           0       19.652290    4.726716    1.946540
     44          6           0       18.801602    5.822680    1.509819
     45          1           0       26.930266    2.399556   -0.536130
     46          1           0       26.107364   -3.896832   -1.664115
     47          1           0       20.028173   -3.575914    0.327258
     48          1           0       22.671082    4.458719    0.271562
     49          1           0       25.432190    4.340847    0.354456
     50          1           0       23.754881    4.790233   -1.916078
     51          1           0       24.940321    3.554491   -2.322583
     52          1           0       25.470586    5.079982   -1.610704
     53          1           0       24.757502    4.125042    2.427068
     54          1           0       23.188127    3.412193    2.675006
     55          1           0       23.914682    5.894117    3.393770
     56          1           0       22.212766    5.445986    3.128780
     57          1           0       29.583395    0.659439   -1.953018
     58          1           0       29.899696    0.308130   -0.331049
     59          1           0       28.966752    1.733566   -0.693933
     60          1           0       30.467930   -1.622428   -1.234422
     61          1           0       30.074176   -1.263658   -2.969909
     62          1           0       30.696604   -2.779213   -2.597642
     63          1           0       24.307309   -5.645100   -1.031024
     64          1           0       21.412595   -5.150360   -1.288177
     65          1           0       22.493371   -5.128220   -3.261470
     66          1           0       23.901973   -6.089922   -3.365691
     67          1           0       23.960240   -4.275190   -3.633051
     68          1           0       22.989161   -6.639387    0.239994
     69          1           0       21.235057   -6.532718    0.421681
     70          1           0       23.311548   -4.889443    1.814496
     71          1           0       22.633866   -6.493170    2.371448
     72          1           0       21.719558   -4.915135    2.438970
     73          1           0       17.888326   -2.567854    1.022443
     74          1           0       17.325673   -0.932526    0.885800
     75          1           0       17.815289   -1.470216    2.461185
     76          1           0       20.779664    3.074323    2.768953
     77          1           0       18.444188    5.860714    0.481283
     78          1           0       19.461509    6.685412    1.606050
     79          1           0       18.159817    6.106152    2.344091
     80         12           0      -23.406990   -0.653249    0.272145
     81          6           0      -22.719215    2.153531   -1.713735
     82          6           0      -23.149504    1.370351    3.045762
     83          6           0      -24.025277   -3.315854    2.121451
     84          6           0      -23.474692   -2.588746   -2.659061
     85          7           0      -23.066096    1.517355    0.554453
     86          6           0      -22.781196    2.512379   -0.380840
     87          6           0      -22.886747    3.973080    0.209813
     88          6           0      -22.867393    3.627144    1.686180
     89          6           0      -23.048345    2.056599    1.792906
     90          6           0      -21.448818    3.978671    2.330643
     91          6           0      -24.336117    4.464215   -0.233058
     92          6           0      -24.469918    5.969542   -0.733244
     93          1           0      -23.491758    6.840772    0.012563
     94          7           0      -23.414765   -0.940129    2.252949
     95          6           0      -23.289442   -0.037124    3.221444
     96          6           0      -23.437198   -0.608130    4.533998
     97          6           0      -23.871179   -1.929668    4.309547
     98          6           0      -23.727903   -2.144185    2.820317
     99          6           0      -23.254018    0.103433    5.824279
    100          6           0      -24.459698   -2.946938    5.265306
    101          8           0      -25.029947   -3.975324    4.883675
    102          6           0      -24.265438   -2.777850    6.774698
    103          7           0      -23.660005   -2.699212   -0.230020
    104          6           0      -23.981508   -3.565597    0.788050
    105          6           0      -24.352291   -4.914245    0.174831
    106          6           0      -24.295466   -4.664306   -1.410606
    107          6           0      -23.844387   -3.228980   -1.479204
    108          6           0      -23.434416   -6.040019    0.769614
    109          6           0      -25.559106   -4.965958   -2.200941
    110          6           0      -25.326965   -5.912030   -3.420461
    111          7           0      -23.128151   -0.302884   -1.759940
    112          6           0      -23.166848   -1.212931   -2.862642
    113          6           0      -22.878713   -0.532805   -4.074620
    114          6           0      -22.701762    0.794569   -3.649184
    115          6           0      -22.815610    0.848518   -2.244488
    116          6           0      -22.820419   -1.029826   -5.483169
    117          6           0      -22.433645    2.128816   -4.081461
    118          8           0      -22.199272    2.609518   -5.165315
    119          6           0      -22.548545    3.059909   -2.841446
    120          6           0      -21.370701    3.964627   -2.807898
    121          8           0      -20.206574    3.670684   -2.551305
    122          8           0      -21.823170    5.197165   -3.057931
    123          6           0      -20.858758    6.275273   -2.995089
    124          1           0      -23.231123    1.913343    3.989526
    125          1           0      -24.214673   -4.159261    2.790196
    126          1           0      -23.547397   -3.138823   -3.599654
    127          1           0      -22.109047    4.538402   -0.302767
    128          1           0      -23.690833    4.122402    2.199646
    129          1           0      -20.745766    4.375101    1.597805
    130          1           0      -21.035104    3.067790    2.762922
    131          1           0      -21.686728    4.701844    3.110798
    132          1           0      -25.078749    4.385420    0.560362
    133          1           0      -24.664818    3.771849   -1.008538
    134          1           0      -25.416070    6.399558   -0.404429
    135          1           0      -24.549017    6.024987   -1.819264
    136          1           0      -24.241752    0.173174    6.281964
    137          1           0      -22.888077    1.117781    5.671480
    138          1           0      -22.578122   -0.408436    6.508657
    139          1           0      -24.457775   -3.801002    7.096784
    140          1           0      -24.931219   -2.042342    7.227752
    141          1           0      -23.253488   -2.584536    7.130125
    142          1           0      -25.356131   -5.274854    0.399074
    143          1           0      -23.492369   -5.274771   -1.823689
    144          1           0      -24.104502   -6.862847    1.018941
    145          1           0      -22.833086   -5.718512    1.620046
    146          1           0      -22.854480   -6.531289   -0.012576
    147          1           0      -26.085089   -4.081889   -2.559940
    148          1           0      -26.147457   -5.587726   -1.524666
    149          1           0      -24.304890   -6.291115   -3.425306
    150          1           0      -25.349168   -5.366010   -4.363360
    151          1           0      -26.018361   -6.754812   -3.405708
    152          1           0      -23.880392   -1.153318   -5.706938
    153          1           0      -22.203891   -1.928338   -5.469478
    154          1           0      -22.434313   -0.281802   -6.174187
    155          1           0      -23.399820    3.695301   -3.089416
    156          1           0      -20.011409    6.054944   -3.644964
    157          1           0      -20.384202    6.454582   -2.029747
    158          1           0      -21.379158    7.165967   -3.347613
 ---------------------------------------------------------------------

 SCF Done:  E(RPBE1PBE) =  -4067.39981761     A.U. after   16 cycles

 Excitation energies and oscillator strengths:

 Excited State   1:      Singlet-A      1.8615 eV  666.05 nm  f=0.3643  <S**2>=0.000
     309 -> 315       -0.15520
     312 -> 313        0.69392
     312 <- 313       -0.10802
 This state for optimization and/or second-order correction.
 Total Energy, E(TD-HF/TD-DFT) =  -4067.33140962
 Copying the excited state density for this state as the 1-particle RhoCI density.

 Excited State   2:      Singlet-A      1.8764 eV  660.75 nm  f=0.3886  <S**2>=0.000
     310 -> 316       -0.18227
     311 -> 314        0.69071
     311 <- 314       -0.10328

 Excited State   3:      Singlet-A      2.0036 eV  618.81 nm  f=0.0000  <S**2>=0.000
     311 -> 313        0.70711

 Excited State   4:      Singlet-A      2.0179 eV  614.42 nm  f=0.0000  <S**2>=0.000
     312 -> 314        0.70711

 Excited State   5:      Singlet-A      2.2077 eV  561.59 nm  f=0.0945  <S**2>=0.000
     310 -> 314        0.65479
     311 -> 316        0.25273

 The electronic state is 1-A.
 Alpha  occ. eigenvalues --  -46.92165 -46.91148 -19.26793 -19.25957 -19.19889
 Alpha  occ. eigenvalues --  -19.19738 -19.19376 -19.19110 -19.18973 -19.17875
 Alpha  occ. eigenvalues --  -14.41757 -14.41375 -14.41116 -14.40969 -14.39688
 Alpha  occ. eigenvalues --  -14.38864 -14.38519 -14.38242 -10.36014 -10.35397
 Alpha  occ. eigenvalues --  -10.33120 -10.32382 -10.31781 -10.30499 -10.29421
 Alpha  occ. eigenvalues --  -10.29197 -10.28824 -10.28665 -10.28653 -10.28620
 Alpha  occ. eigenvalues --  -10.28422 -10.28375 -10.28202 -10.28093 -10.28066
 Alpha  occ. eigenvalues --  -10.27929 -10.27603 -10.27438 -10.27006 -10.26935
 Alpha  occ. eigenvalues --  -10.26930 -10.26815 -10.26742 -10.26542 -10.26343
 Alpha  occ. eigenvalues --  -10.26299 -10.26272 -10.26064 -10.25985 -10.25856
 Alpha  occ. eigenvalues --  -10.25740 -10.25389 -10.25383 -10.25374 -10.25349
 Alpha  occ. eigenvalues --  -10.25113 -10.25045 -10.25010 -10.24969 -10.24867
 Alpha  occ. eigenvalues --  -10.24824 -10.24811 -10.24701 -10.24411 -10.24393
 Alpha  occ. eigenvalues --  -10.24311 -10.24303 -10.24274 -10.24219 -10.23936
 Alpha  occ. eigenvalues --  -10.23921 -10.23895 -10.23761 -10.23740 -10.23711
 Alpha  occ. eigenvalues --  -10.23520 -10.23444 -10.23403 -10.23394 -10.23274
 Alpha  occ. eigenvalues --  -10.23168 -10.22925 -10.22886 -10.22623 -10.22446
 Alpha  occ. eigenvalues --  -10.21619  -3.14205  -3.13433  -1.87054  -1.86615
 Alpha  occ. eigenvalues --   -1.86388  -1.86286  -1.85788  -1.85688  -1.13009
 Alpha  occ. eigenvalues --   -1.11960  -1.06280  -1.04829  -1.04337  -1.04104
 Alpha  occ. eigenvalues --   -1.03336  -1.01966  -0.99585  -0.99436  -0.98729
 Alpha  occ. eigenvalues --   -0.98383  -0.97500  -0.97165  -0.96992  -0.96674
 Alpha  occ. eigenvalues --   -0.87555  -0.87150  -0.83822  -0.83007  -0.82848
 Alpha  occ. eigenvalues --   -0.82676  -0.82666  -0.82392  -0.82220  -0.81529
 Alpha  occ. eigenvalues --   -0.81410  -0.80927  -0.80417  -0.79844  -0.78733
 Alpha  occ. eigenvalues --   -0.78269  -0.77974  -0.77831  -0.76864  -0.76541
 Alpha  occ. eigenvalues --   -0.75968  -0.75728  -0.75530  -0.75099  -0.74664
 Alpha  occ. eigenvalues --   -0.74288  -0.73024  -0.72224  -0.71810  -0.71596
 Alpha  occ. eigenvalues --   -0.71320  -0.71107  -0.70583  -0.69929  -0.69489
 Alpha  occ. eigenvalues --   -0.69295  -0.67591  -0.67070  -0.66176  -0.65803
 Alpha  occ. eigenvalues --   -0.63856  -0.63458  -0.63298  -0.63232  -0.62366
 Alpha  occ. eigenvalues --   -0.62051  -0.61775  -0.60609  -0.59793  -0.59709
 Alpha  occ. eigenvalues --   -0.59705  -0.59549  -0.59434  -0.59162  -0.59080
 Alpha  occ. eigenvalues --   -0.58859  -0.57288  -0.57087  -0.55193  -0.54392
 Alpha  occ. eigenvalues --   -0.54181  -0.54176  -0.53750  -0.53697  -0.53207
 Alpha  occ. eigenvalues --   -0.53091  -0.52364  -0.52341  -0.51877  -0.51854
 Alpha  occ. eigenvalues --   -0.51378  -0.51157  -0.50566  -0.50202  -0.49853
 Alpha  occ. eigenvalues --   -0.49473  -0.49368  -0.49192  -0.49018  -0.48436
 Alpha  occ. eigenvalues --   -0.48139  -0.48028  -0.47823  -0.47441  -0.47429
 Alpha  occ. eigenvalues --   -0.47200  -0.47192  -0.47069  -0.46724  -0.46507
 Alpha  occ. eigenvalues --   -0.46396  -0.46266  -0.45954  -0.45901  -0.45733
 Alpha  occ. eigenvalues --   -0.45500  -0.45482  -0.45252  -0.45109  -0.44868
 Alpha  occ. eigenvalues --   -0.44643  -0.44553  -0.44271  -0.44236  -0.43950
 Alpha  occ. eigenvalues --   -0.43810  -0.43769  -0.43457  -0.43285  -0.43260
 Alpha  occ. eigenvalues --   -0.43059  -0.43041  -0.42851  -0.42808  -0.42642
 Alpha  occ. eigenvalues --   -0.42571  -0.42339  -0.42177  -0.41915  -0.41879
 Alpha  occ. eigenvalues --   -0.41540  -0.41517  -0.41324  -0.41126  -0.41040
 Alpha  occ. eigenvalues --   -0.40839  -0.40786  -0.40690  -0.40606  -0.40367
 Alpha  occ. eigenvalues --   -0.40251  -0.40048  -0.39921  -0.39883  -0.39674
 Alpha  occ. eigenvalues --   -0.39554  -0.39512  -0.39288  -0.39278  -0.39168
 Alpha  occ. eigenvalues --   -0.39054  -0.38537  -0.38466  -0.38186  -0.38117
 Alpha  occ. eigenvalues --   -0.38028  -0.37913  -0.37887  -0.37696  -0.37545
 Alpha  occ. eigenvalues --   -0.37533  -0.37421  -0.37245  -0.37011  -0.36772
 Alpha  occ. eigenvalues --   -0.36669  -0.36498  -0.36482  -0.36083  -0.35980
 Alpha  occ. eigenvalues --   -0.35978  -0.35648  -0.35548  -0.35363  -0.35130
 Alpha  occ. eigenvalues --   -0.34994  -0.34646  -0.34528  -0.34263  -0.33704
 Alpha  occ. eigenvalues --   -0.33279  -0.33261  -0.32639  -0.32401  -0.32165
 Alpha  occ. eigenvalues --   -0.32120  -0.31939  -0.31715  -0.31482  -0.31327
 Alpha  occ. eigenvalues --   -0.31303  -0.31176  -0.29461  -0.29435  -0.29086
 Alpha  occ. eigenvalues --   -0.29010  -0.28516  -0.28152  -0.27187  -0.26470
 Alpha  occ. eigenvalues --   -0.26452  -0.26373  -0.26002  -0.25396  -0.25359
 Alpha  occ. eigenvalues --   -0.25288  -0.24724  -0.24601  -0.21003  -0.20704
 Alpha  occ. eigenvalues --   -0.18694  -0.18669
 Alpha virt. eigenvalues --   -0.11050  -0.10968  -0.05308  -0.04995  -0.03931
 Alpha virt. eigenvalues --   -0.03525  -0.01608  -0.01603   0.00025   0.00560
 Alpha virt. eigenvalues --    0.01096   0.01234   0.01455   0.01516   0.01770

 Mulliken charges:
               1
     1  Mg  12.000003
     2  C    6.000031
     3  C    5.999932
     4  C    5.999987
     5  C    6.000069
     6  N    6.999991
     7  C    5.999915
     8  C    6.000028
     9  C    5.999960
    10  C    6.000129
    11  C    5.999998
    12  C    6.000010
    13  C    6.000006
    14  H    1.000003
    15  N    6.999970
    16  C    6.000136
    17  C    6.000048
    18  C    6.000051
    19  C    6.000086
    20  C    5.999998
    21  C    6.000059
    22  O    8.000090
    23  C    5.999982
    24  N    7.000021
    25  C    6.000100
    26  C    5.999957
    27  C    6.000038
    28  C    5.999890
    29  C    5.999978
    30  C    6.000009
    31  C    6.000022
    32  N    7.000005
    33  C    5.999865
    34  C    5.999903
    35  C    5.999996
    36  C    5.999919
    37  C    6.000001
    38  C    5.999931
    39  O    7.999886
    40  C    5.999994
    41  C    5.999981
    42  O    7.999998
    43  O    7.999983
    44  C    6.000018
    45  H    1.000039
    46  H    1.000031
    47  H    0.999977
    48  H    1.000007
    49  H    0.999999
    50  H    1.000064
    51  H    0.999998
    52  H    1.000006
    53  H    0.999940
    54  H    1.000008
    55  H    0.999967
    56  H    1.000006
    57  H    1.000070
    58  H    1.000048
    59  H    1.000058
    60  H    1.000008
    61  H    1.000041
    62  H    1.000053
    63  H    0.999995
    64  H    1.000016
    65  H    1.000062
    66  H    1.000020
    67  H    1.000005
    68  H    0.999963
    69  H    1.000001
    70  H    0.999965
    71  H    0.999964
    72  H    1.000014
    73  H    0.999936
    74  H    0.999960
    75  H    0.999905
    76  H    0.999939
    77  H    1.000017
    78  H    0.999972
    79  H    0.999969
    80  Mg  11.996938
    81  C    6.025578
    82  C    6.003247
    83  C    5.975001
    84  C    5.997670
    85  N    7.018028
    86  C    5.966989
    87  C    6.003612
    88  C    5.997381
    89  C    6.020316
    90  C    5.996584
    91  C    6.000637
    92  C    6.003140
    93  H    0.994031
    94  N    6.993359
    95  C    6.029580
    96  C    6.024701
    97  C    6.010105
    98  C    6.038087
    99  C    5.995735
   100  C    6.012619
   101  O    8.028963
   102  C    5.993897
   103  N    6.992761
   104  C    6.031034
   105  C    5.989272
   106  C    6.011692
   107  C    5.972275
   108  C    5.996622
   109  C    6.006956
   110  C    6.000303
   111  N    6.999380
   112  C    5.966376
   113  C    5.976163
   114  C    5.996790
   115  C    5.970362
   116  C    5.997719
   117  C    5.982477
   118  O    7.969082
   119  C    5.995575
   120  C    5.996849
   121  O    7.994593
   122  O    7.998947
   123  C    6.001788
   124  H    1.012452
   125  H    1.002091
   126  H    0.986131
   127  H    1.003674
   128  H    1.002301
   129  H    1.013748
   130  H    0.995538
   131  H    1.003500
   132  H    0.989480
   133  H    1.006870
   134  H    0.996827
   135  H    1.004261
   136  H    1.018234
   137  H    1.015384
   138  H    1.017745
   139  H    1.012990
   140  H    1.008241
   141  H    1.007720
   142  H    1.000763
   143  H    0.996893
   144  H    1.001880
   145  H    0.993450
   146  H    1.008699
   147  H    1.000507
   148  H    0.987818
   149  H    0.997929
   150  H    1.003183
   151  H    0.993917
   152  H    0.985096
   153  H    0.986224
   154  H    0.988098
   155  H    0.995729
   156  H    0.999362
   157  H    0.993421
   158  H    0.996628
 Sum of Mulliken charges = 624.00000

 Dipole moment (field-independent basis, Debye):
    X=             -0.7703    Y=             -0.9220    Z=             10.0886  Tot=             10.1599
 Quadrupole moment (field-independent basis, Debye-Ang):
   XX=             38.6397   YY=             -2.0146   ZZ=              7.4515
   XY=             21.0168   XZ=           -235.7530   YZ=             -6.3970

 Normal termination of Gaussian 16 at Fri Oct 15 19:35:59 2021.
