 Gaussian 16, Revision A.03,
 Gaussian 16:  ES64L-G16RevA.03 25-Dec-2016

 --------------------------------------------------------
 #p PBE1PBE/Def2SVP td=(nstates=5) density=(transition=1)
 --------------------------------------------------------

 --------------------------------
 TDDFT excited states in gaussian
 --------------------------------
 Symbolic Z-matrix:
 Charge =  0 Multiplicity = 1

                         Standard orientation:
 ---------------------------------------------------------------------
 Center     Atomic      Atomic             Coordinates (Angstroms)
 Number     Number       Type             X           Y           Z
 ---------------------------------------------------------------------
      1         12           0      -27.133054    0.582882    0.351963
      2          6           0      -25.348090   -2.243445    1.189706
      3          6           0      -29.147571   -1.419605   -1.555604
      4          6           0      -28.708150    3.377063   -0.704463
      5          6           0      -24.693377    2.567196    1.835069
      6          7           0      -27.082534   -1.621537   -0.194760
      7          6           0      -26.437437   -2.555961    0.390219
      8          6           0      -26.825877   -4.068725   -0.020926
      9          6           0      -27.871939   -3.725141   -1.153761
     10          6           0      -28.020140   -2.133365   -1.051019
     11          6           0      -27.395341   -4.080622   -2.658279
     12          6           0      -27.416713   -4.965397    1.151763
     13          6           0      -27.132603   -6.508702    1.105848
     14          1           0      -26.550683   -7.047140   -0.166189
     15          7           0      -28.711688    0.928732   -0.851780
     16          6           0      -29.522754   -0.064102   -1.529737
     17          6           0      -30.606021    0.643923   -2.203917
     18          6           0      -30.428297    2.042599   -2.060498
     19          6           0      -29.273863    2.170859   -1.142645
     20          6           0      -31.648592   -0.186603   -2.861580
     21          6           0      -31.267318    3.234296   -2.578347
     22          8           0      -30.972697    4.388617   -2.483695
     23          6           0      -32.490802    2.844311   -3.432203
     24          7           0      -26.745393    2.715247    0.416223
     25          6           0      -27.497782    3.652010   -0.068192
     26          6           0      -26.807479    5.043290    0.009626
     27          6           0      -25.580883    4.797124    0.920500
     28          6           0      -25.656515    3.263289    1.105946
     29          6           0      -26.449199    5.564392   -1.398416
     30          6           0      -25.636626    5.631645    2.236797
     31          6           0      -25.400675    7.140318    2.059564
     32          7           0      -25.347616    0.270365    1.337472
     33          6           0      -24.524282    1.184390    1.970656
     34          6           0      -23.496916    0.422184    2.630189
     35          6           0      -23.709786   -0.960180    2.346867
     36          6           0      -24.900781   -0.940769    1.571013
     37          6           0      -22.423427    0.975385    3.371161
     38          6           0      -23.312671   -2.313784    2.570203
     39          8           0      -22.283053   -2.743676    3.170752
     40          6           0      -24.314306   -3.182532    1.714730
     41          6           0      -23.529522   -3.914127    0.743304
     42          8           0      -23.132281   -3.447084   -0.323852
     43          8           0      -23.205452   -5.119754    1.311604
     44          6           0      -22.190659   -5.869520    0.541430
     45          1           0      -29.791145   -2.029110   -2.192671
     46          1           0      -29.282486    4.233781   -1.064997
     47          1           0      -23.993678    3.232561    2.346038
     48          1           0      -25.906933   -4.453108   -0.464255
     49          1           0      -28.799975   -4.270728   -0.984082
     50          1           0      -26.308772   -4.171441   -2.653262
     51          1           0      -27.696617   -3.282515   -3.336600
     52          1           0      -27.802637   -4.994697   -3.091573
     53          1           0      -28.493372   -4.824287    1.060737
     54          1           0      -27.314204   -4.569358    2.162669
     55          1           0      -28.007483   -7.123140    1.317989
     56          1           0      -26.365153   -6.748789    1.841759
     57          1           0      -31.336350   -0.470130   -3.867084
     58          1           0      -32.647631    0.242429   -2.783145
     59          1           0      -31.738465   -1.099659   -2.273542
     60          1           0      -33.330528    2.440395   -2.865824
     61          1           0      -32.051416    2.114837   -4.111826
     62          1           0      -32.889936    3.627493   -4.076044
     63          1           0      -27.558587    5.647332    0.518055
     64          1           0      -24.666536    5.004896    0.364761
     65          1           0      -26.324166    4.802164   -2.167802
     66          1           0      -25.503691    6.093023   -1.523990
     67          1           0      -27.269268    6.226888   -1.675191
     68          1           0      -24.846737    5.286991    2.902734
     69          1           0      -26.592573    5.468866    2.735711
     70          1           0      -25.333969    7.338807    0.989856
     71          1           0      -24.382303    7.374644    2.369944
     72          1           0      -26.051948    7.841709    2.580539
     73          1           0      -22.886707    1.749180    3.983421
     74          1           0      -21.639233    1.465112    2.794064
     75          1           0      -21.913516    0.167015    3.896225
     76          1           0      -24.714095   -3.882738    2.448673
     77          1           0      -21.271513   -5.286718    0.607813
     78          1           0      -22.538470   -6.112834   -0.461978
     79          1           0      -22.028614   -6.815598    1.058171
     80         12           0       27.092599    0.631697   -0.017509
     81          6           0       25.540761   -2.252018   -1.360090
     82          6           0       27.912498   -1.192573    2.700774
     83          6           0       28.390831    3.364388    1.233611
     84          6           0       25.482139    2.506943   -2.617070
     85          7           0       26.679874   -1.499649    0.683147
     86          6           0       26.256004   -2.504257   -0.170593
     87          6           0       26.558916   -3.799240    0.502516
     88          6           0       26.774733   -3.434029    1.971482
     89          6           0       27.179867   -1.945820    1.825879
     90          6           0       25.434267   -3.566725    2.787111
     91          6           0       27.803109   -4.656531   -0.088773
     92          6           0       27.689208   -6.202730   -0.256557
     93          1           0       27.167233   -7.004054    0.970994
     94          7           0       28.022331    1.001716    1.770152
     95          6           0       28.264472    0.133442    2.707459
     96          6           0       28.926130    0.831516    3.823340
     97          6           0       29.285955    2.131497    3.355024
     98          6           0       28.537320    2.233083    2.070161
     99          6           0       29.255831    0.292049    5.262673
    100          6           0       30.176247    3.218702    3.956049
    101          8           0       30.303593    4.363107    3.480362
    102          6           0       30.755693    2.988225    5.270424
    103          7           0       26.784738    2.720955   -0.561434
    104          6           0       27.567126    3.672295    0.087874
    105          6           0       27.474313    5.034508   -0.702069
    106          6           0       26.664698    4.657089   -1.967633
    107          6           0       26.310744    3.186267   -1.736764
    108          6           0       26.944474    6.186125    0.152695
    109          6           0       27.330946    4.982433   -3.328179
    110          6           0       26.427757    5.520802   -4.462271
    111          7           0       25.772892    0.268743   -1.649982
    112          6           0       25.168498    1.113180   -2.575903
    113          6           0       24.492553    0.305784   -3.559351
    114          6           0       24.565822   -1.006384   -3.089465
    115          6           0       25.370676   -1.013730   -1.916955
    116          6           0       23.900718    0.745264   -4.753864
    117          6           0       24.224967   -2.409117   -3.369028
    118          8           0       23.632749   -2.951207   -4.288700
    119          6           0       24.880609   -3.279728   -2.247621
    120          6           0       23.770941   -4.084597   -1.594885
    121          8           0       22.969626   -3.841174   -0.721246
    122          8           0       23.934497   -5.307408   -2.178960
    123          6           0       23.252784   -6.466532   -1.555114
    124          1           0       28.261375   -1.790127    3.546017
    125          1           0       29.008337    4.195610    1.580139
    126          1           0       25.175760    3.021409   -3.529753
    127          1           0       25.767572   -4.548757    0.475700
    128          1           0       27.646821   -3.924321    2.403436
    129          1           0       25.576455   -3.866297    3.824897
    130          1           0       24.786729   -4.365010    2.423605
    131          1           0       25.005358   -2.565250    2.783063
    132          1           0       28.710986   -4.392198    0.452433
    133          1           0       28.058770   -4.287575   -1.082750
    134          1           0       28.733433   -6.496934   -0.368169
    135          1           0       27.059630   -6.280138   -1.143009
    136          1           0       30.314540    0.145310    5.475256
    137          1           0       28.733525   -0.658990    5.370429
    138          1           0       29.003031    0.966518    6.080813
    139          1           0       31.320278    2.055658    5.289365
    140          1           0       29.980349    2.960826    6.036160
    141          1           0       31.531194    3.741114    5.407908
    142          1           0       28.480510    5.233705   -1.071142
    143          1           0       25.666936    5.093702   -1.928056
    144          1           0       25.857193    6.216292    0.074624
    145          1           0       27.254137    7.176735   -0.178796
    146          1           0       27.074183    5.934559    1.204789
    147          1           0       27.940608    4.172802   -3.729016
    148          1           0       28.117690    5.728343   -3.207514
    149          1           0       26.208547    4.640032   -5.066013
    150          1           0       27.077009    6.175559   -5.044423
    151          1           0       25.532513    5.980325   -4.044268
    152          1           0       23.123886    0.147512   -5.230116
    153          1           0       24.715826    0.946941   -5.449576
    154          1           0       23.396684    1.676378   -4.497404
    155          1           0       25.640731   -3.931534   -2.677881
    156          1           0       24.000161   -7.259411   -1.562024
    157          1           0       22.372460   -6.844636   -2.074271
    158          1           0       22.999034   -6.236195   -0.520722
 ---------------------------------------------------------------------

 SCF Done:  E(RPBE1PBE) =  -4067.38629752     A.U. after   16 cycles

 Excitation energies and oscillator strengths:

 Excited State   1:      Singlet-A      1.8848 eV  657.80 nm  f=0.3799  <S**2>=0.000
     309 -> 315        0.17658
     312 -> 314        0.68855
 This state for optimization and/or second-order correction.
 Total Energy, E(TD-HF/TD-DFT) =  -4067.31703076
 Copying the excited state density for this state as the 1-particle RhoCI density.

 Excited State   2:      Singlet-A      1.9096 eV  649.28 nm  f=0.3699  <S**2>=0.000
     310 -> 316        0.19445
     311 -> 313        0.68531

 Excited State   3:      Singlet-A      2.0294 eV  610.95 nm  f=0.0000  <S**2>=0.000
     312 -> 313        0.70711

 Excited State   4:      Singlet-A      2.1136 eV  586.60 nm  f=0.0000  <S**2>=0.000
     311 -> 314        0.70711

 Excited State   5:      Singlet-A      2.2083 eV  561.44 nm  f=0.1058  <S**2>=0.000
     310 -> 313        0.65636
     311 -> 316       -0.25139

 The electronic state is 1-A.
 Alpha  occ. eigenvalues --  -46.92730 -46.91796 -19.25440 -19.25044 -19.20239
 Alpha  occ. eigenvalues --  -19.20174 -19.19523 -19.19400 -19.18909 -19.18649
 Alpha  occ. eigenvalues --  -14.41583 -14.41292 -14.41059 -14.40908 -14.39416
 Alpha  occ. eigenvalues --  -14.39308 -14.38653 -14.38647 -10.36230 -10.35527
 Alpha  occ. eigenvalues --  -10.33228 -10.32550 -10.32029 -10.31980 -10.29439
 Alpha  occ. eigenvalues --  -10.29435 -10.28675 -10.28557 -10.28467 -10.28379
 Alpha  occ. eigenvalues --  -10.28378 -10.28184 -10.28157 -10.28102 -10.28098
 Alpha  occ. eigenvalues --  -10.27968 -10.27692 -10.27541 -10.27361 -10.27333
 Alpha  occ. eigenvalues --  -10.27060 -10.26869 -10.26819 -10.26739 -10.26721
 Alpha  occ. eigenvalues --  -10.26676 -10.25992 -10.25923 -10.25685 -10.25586
 Alpha  occ. eigenvalues --  -10.25540 -10.25425 -10.25375 -10.25363 -10.25361
 Alpha  occ. eigenvalues --  -10.25344 -10.25327 -10.25275 -10.25242 -10.25153
 Alpha  occ. eigenvalues --  -10.25036 -10.24982 -10.24953 -10.24859 -10.24769
 Alpha  occ. eigenvalues --  -10.24687 -10.24415 -10.24375 -10.24358 -10.24217
 Alpha  occ. eigenvalues --  -10.24202 -10.24017 -10.23764 -10.23569 -10.23410
 Alpha  occ. eigenvalues --  -10.23256 -10.23254 -10.23171 -10.23107 -10.23075
 Alpha  occ. eigenvalues --  -10.22961 -10.22828 -10.22687 -10.22565 -10.22384
 Alpha  occ. eigenvalues --  -10.22194  -3.14702  -3.13986  -1.87539  -1.87077
 Alpha  occ. eigenvalues --   -1.86915  -1.86820  -1.86365  -1.86213  -1.10876
 Alpha  occ. eigenvalues --   -1.10262  -1.07094  -1.04339  -1.03988  -1.02588
 Alpha  occ. eigenvalues --   -1.02017  -1.01577  -0.99994  -0.99773  -0.98964
 Alpha  occ. eigenvalues --   -0.98544  -0.98254  -0.97678  -0.96739  -0.95319
 Alpha  occ. eigenvalues --   -0.87137  -0.86932  -0.83591  -0.83168  -0.82762
 Alpha  occ. eigenvalues --   -0.82575  -0.82285  -0.82020  -0.81889  -0.81807
 Alpha  occ. eigenvalues --   -0.81323  -0.81293  -0.81156  -0.81084  -0.78499
 Alpha  occ. eigenvalues --   -0.78187  -0.77875  -0.77709  -0.76960  -0.76568
 Alpha  occ. eigenvalues --   -0.76557  -0.75830  -0.75801  -0.75347  -0.74963
 Alpha  occ. eigenvalues --   -0.74568  -0.72744  -0.72641  -0.71737  -0.71693
 Alpha  occ. eigenvalues --   -0.71332  -0.70655  -0.70155  -0.70028  -0.69454
 Alpha  occ. eigenvalues --   -0.69159  -0.66976  -0.66682  -0.66257  -0.65885
 Alpha  occ. eigenvalues --   -0.63732  -0.63211  -0.63123  -0.63102  -0.62653
 Alpha  occ. eigenvalues --   -0.62178  -0.61708  -0.61329  -0.60175  -0.59959
 Alpha  occ. eigenvalues --   -0.59827  -0.59786  -0.59423  -0.59283  -0.58887
 Alpha  occ. eigenvalues --   -0.58619  -0.56519  -0.56126  -0.54975  -0.54461
 Alpha  occ. eigenvalues --   -0.54120  -0.53955  -0.53813  -0.53670  -0.52934
 Alpha  occ. eigenvalues --   -0.52882  -0.52444  -0.52379  -0.52136  -0.52064
 Alpha  occ. eigenvalues --   -0.50736  -0.50525  -0.50425  -0.50155  -0.49753
 Alpha  occ. eigenvalues --   -0.49719  -0.49085  -0.49002  -0.48554  -0.48263
 Alpha  occ. eigenvalues --   -0.48114  -0.47843  -0.47795  -0.47633  -0.47616
 Alpha  occ. eigenvalues --   -0.47382  -0.47347  -0.47141  -0.46983  -0.46735
 Alpha  occ. eigenvalues --   -0.46659  -0.46462  -0.46244  -0.46120  -0.45934
 Alpha  occ. eigenvalues --   -0.45869  -0.45576  -0.45424  -0.45379  -0.45271
 Alpha  occ. eigenvalues --   -0.44948  -0.44795  -0.44596  -0.44133  -0.44075
 Alpha  occ. eigenvalues --   -0.43927  -0.43694  -0.43562  -0.43546  -0.43416
 Alpha  occ. eigenvalues --   -0.43129  -0.43075  -0.42851  -0.42777  -0.42453
 Alpha  occ. eigenvalues --   -0.42433  -0.42339  -0.42074  -0.41787  -0.41641
 Alpha  occ. eigenvalues --   -0.41445  -0.41349  -0.41259  -0.41128  -0.40995
 Alpha  occ. eigenvalues --   -0.40990  -0.40697  -0.40625  -0.40359  -0.40305
 Alpha  occ. eigenvalues --   -0.39888  -0.39752  -0.39670  -0.39634  -0.39473
 Alpha  occ. eigenvalues --   -0.39173  -0.39170  -0.39051  -0.38901  -0.38786
 Alpha  occ. eigenvalues --   -0.38628  -0.38477  -0.38363  -0.38183  -0.37867
 Alpha  occ. eigenvalues --   -0.37814  -0.37771  -0.37760  -0.37565  -0.37528
 Alpha  occ. eigenvalues --   -0.37478  -0.37164  -0.37097  -0.36995  -0.36666
 Alpha  occ. eigenvalues --   -0.36593  -0.36459  -0.36366  -0.36269  -0.36152
 Alpha  occ. eigenvalues --   -0.36053  -0.35744  -0.35464  -0.35409  -0.35128
 Alpha  occ. eigenvalues --   -0.35084  -0.34715  -0.34657  -0.34591  -0.34300
 Alpha  occ. eigenvalues --   -0.33690  -0.33154  -0.32921  -0.32657  -0.32593
 Alpha  occ. eigenvalues --   -0.32381  -0.31946  -0.31611  -0.31464  -0.31377
 Alpha  occ. eigenvalues --   -0.31375  -0.30940  -0.29575  -0.29544  -0.29115
 Alpha  occ. eigenvalues --   -0.29074  -0.28587  -0.28563  -0.26942  -0.26880
 Alpha  occ. eigenvalues --   -0.26472  -0.26229  -0.25902  -0.25755  -0.25368
 Alpha  occ. eigenvalues --   -0.25342  -0.24938  -0.24936  -0.20898  -0.20594
 Alpha  occ. eigenvalues --   -0.18816  -0.18614
 Alpha virt. eigenvalues --   -0.10910  -0.10802  -0.05548  -0.05119  -0.04249
 Alpha virt. eigenvalues --   -0.04201  -0.02255  -0.02137  -0.00872  -0.00098
 Alpha virt. eigenvalues --    0.00898   0.01134   0.01283   0.01529   0.01570

 Mulliken charges:
               1
     1  Mg  12.000001
     2  C    6.000065
     3  C    6.000026
     4  C    5.999984
     5  C    5.999971
     6  N    7.000041
     7  C    5.999891
     8  C    6.000017
     9  C    5.999982
    10  C    6.000057
    11  C    5.999980
    12  C    6.000021
    13  C    6.000005
    14  H    0.999959
    15  N    6.999990
    16  C    6.000071
    17  C    6.000069
    18  C    6.000027
    19  C    6.000078
    20  C    5.999985
    21  C    6.000079
    22  O    8.000096
    23  C    5.999989
    24  N    6.999969
    25  C    6.000087
    26  C    5.999990
    27  C    6.000037
    28  C    5.999947
    29  C    5.999995
    30  C    6.000015
    31  C    5.999994
    32  N    7.000007
    33  C    5.999927
    34  C    5.999901
    35  C    5.999999
    36  C    5.999924
    37  C    6.000007
    38  C    5.999918
    39  O    7.999881
    40  C    5.999989
    41  C    5.999974
    42  O    7.999955
    43  O    8.000007
    44  C    6.000016
    45  H    1.000016
    46  H    1.000042
    47  H    0.999981
    48  H    0.999991
    49  H    1.000021
    50  H    1.000026
    51  H    0.999979
    52  H    1.000019
    53  H    0.999976
    54  H    1.000032
    55  H    1.000002
    56  H    1.000011
    57  H    1.000059
    58  H    1.000070
    59  H    1.000062
    60  H    1.000052
    61  H    1.000003
    62  H    1.000066
    63  H    1.000007
    64  H    0.999970
    65  H    0.999974
    66  H    1.000028
    67  H    0.999997
    68  H    1.000023
    69  H    0.999991
    70  H    0.999969
    71  H    1.000002
    72  H    1.000008
    73  H    0.999962
    74  H    0.999889
    75  H    0.999946
    76  H    0.999978
    77  H    0.999980
    78  H    0.999964
    79  H    0.999977
    80  Mg  12.001951
    81  C    5.986677
    82  C    6.020493
    83  C    6.010038
    84  C    5.984324
    85  N    7.003170
    86  C    6.028815
    87  C    5.990560
    88  C    6.003720
    89  C    5.970351
    90  C    5.998497
    91  C    5.996420
    92  C    5.999086
    93  H    1.007534
    94  N    7.006328
    95  C    5.961656
    96  C    5.975104
    97  C    5.989672
    98  C    5.970440
    99  C    6.001891
   100  C    5.986203
   101  O    7.973877
   102  C    6.006085
   103  N    6.994760
   104  C    5.966558
   105  C    6.007887
   106  C    5.992860
   107  C    6.030152
   108  C    6.003606
   109  C    5.995493
   110  C    5.999840
   111  N    6.998095
   112  C    6.035241
   113  C    6.027755
   114  C    6.003472
   115  C    6.029087
   116  C    5.995662
   117  C    6.017696
   118  O    8.028840
   119  C    6.000752
   120  C    6.001767
   121  O    8.008669
   122  O    7.999659
   123  C    5.997312
   124  H    0.994052
   125  H    0.992673
   126  H    1.005883
   127  H    1.003343
   128  H    1.002761
   129  H    1.002725
   130  H    0.989392
   131  H    1.000559
   132  H    1.013684
   133  H    0.997109
   134  H    1.003709
   135  H    0.995250
   136  H    0.981028
   137  H    0.982656
   138  H    0.983534
   139  H    0.993751
   140  H    0.992369
   141  H    0.986207
   142  H    0.998262
   143  H    0.998726
   144  H    0.991199
   145  H    0.993345
   146  H    1.006575
   147  H    1.000098
   148  H    1.009385
   149  H    0.993244
   150  H    1.003489
   151  H    1.001739
   152  H    1.014671
   153  H    1.021250
   154  H    1.016722
   155  H    1.008587
   156  H    1.005047
   157  H    1.003544
   158  H    1.005383
 Sum of Mulliken charges = 624.00000

 Dipole moment (field-independent basis, Debye):
    X=             -5.3799    Y=             -3.3643    Z=             -8.1256  Tot=             10.3096
 Quadrupole moment (field-independent basis, Debye-Ang):
   XX=           -285.4335   YY=             -0.0485   ZZ=             -3.1186
   XY=            -94.2172   XZ=           -218.3684   YZ=             -5.3080

 Normal termination of Gaussian 16 at Fri Oct 15 10:34:32 2021.
