 Gaussian 16, Revision A.03,
 Gaussian 16:  ES64L-G16RevA.03 25-Dec-2016

 --------------------------------------------------------
 #p PBE1PBE/Def2SVP td=(nstates=5) density=(transition=1)
 --------------------------------------------------------

 --------------------------------
 TDDFT excited states in gaussian
 --------------------------------
 Symbolic Z-matrix:
 Charge =  0 Multiplicity = 1

                         Standard orientation:
 ---------------------------------------------------------------------
 Center     Atomic      Atomic             Coordinates (Angstroms)
 Number     Number       Type             X           Y           Z
 ---------------------------------------------------------------------
      1         12           0       13.237656   -0.785809    0.174027
      2          6           0       12.056750    2.170889   -1.377554
      3          6           0       15.551087    1.274907    1.792695
      4          6           0       14.384026   -3.406772    1.785214
      5          6           0       11.434797   -2.677995   -2.119280
      6          7           0       13.683038    1.455203    0.196917
      7          6           0       12.991321    2.472167   -0.388268
      8          6           0       13.521681    3.890659   -0.118087
      9          6           0       14.753396    3.485931    0.839954
     10          6           0       14.641360    1.991992    0.916005
     11          6           0       16.174314    3.888033    0.278289
     12          6           0       12.474972    4.810433    0.591166
     13          6           0       11.815105    6.024235   -0.051521
     14          1           0       11.483857    7.267788    0.762940
     15          7           0       14.708456   -1.054820    1.658422
     16          6           0       15.608285   -0.096539    2.146864
     17          6           0       16.537258   -0.781634    3.017621
     18          6           0       16.126787   -2.104682    3.161436
     19          6           0       14.992840   -2.225753    2.224502
     20          6           0       17.551185    0.027622    3.751801
     21          6           0       16.716077   -3.266270    3.960895
     22          8           0       16.261327   -4.414214    3.970592
     23          6           0       17.820303   -2.948997    4.890672
     24          7           0       13.053758   -2.778869   -0.160944
     25          6           0       13.441613   -3.710822    0.761434
     26          6           0       12.719369   -5.079247    0.518153
     27          6           0       11.909097   -4.818245   -0.744937
     28          6           0       12.194546   -3.331360   -1.095104
     29          6           0       13.694383   -6.300671    0.466568
     30          6           0       10.425414   -5.113263   -0.476998
     31          6           0        9.659975   -5.872127   -1.499178
     32          7           0       12.069712   -0.405229   -1.496464
     33          6           0       11.376257   -1.259928   -2.315558
     34          6           0       10.626643   -0.543643   -3.303842
     35          6           0       10.752653    0.888341   -2.950014
     36          6           0       11.656797    0.882677   -1.815874
     37          6           0        9.812971   -1.172627   -4.447808
     38          6           0       10.376273    2.289354   -3.265802
     39          8           0        9.532799    2.732953   -4.063385
     40          6           0       11.215905    3.156866   -2.240142
     41          6           0       11.999977    3.999769   -3.196754
     42          8           0       13.068331    3.744826   -3.739336
     43          8           0       11.459701    5.180777   -3.323982
     44          6           0       11.978831    6.121093   -4.346678
     45          1           0       16.102220    2.046210    2.334123
     46          1           0       14.701593   -4.360870    2.210243
     47          1           0       10.820228   -3.287859   -2.784183
     48          1           0       13.891303    4.289954   -1.063399
     49          1           0       14.732011    3.819723    1.877829
     50          1           0       16.235786    4.147083   -0.778341
     51          1           0       16.872886    3.063526    0.416342
     52          1           0       16.540868    4.738598    0.853278
     53          1           0       12.970564    5.209496    1.476322
     54          1           0       11.612958    4.224871    0.908235
     55          1           0       10.835244    5.609441   -0.288445
     56          1           0       12.480334    6.213864   -0.893966
     57          1           0       17.417717   -0.034835    4.830915
     58          1           0       17.491055    1.079867    3.472687
     59          1           0       18.575698   -0.292538    3.564575
     60          1           0       17.542297   -2.093366    5.506199
     61          1           0       18.699053   -2.559364    4.376581
     62          1           0       18.066719   -3.749735    5.587222
     63          1           0       12.106132   -5.162319    1.415300
     64          1           0       12.185912   -5.510177   -1.540192
     65          1           0       14.717114   -6.070321    0.764638
     66          1           0       13.779545   -6.754147   -0.520264
     67          1           0       13.270580   -7.132950    1.028340
     68          1           0       10.004442   -4.113656   -0.376783
     69          1           0       10.232111   -5.693343    0.425019
     70          1           0        8.808613   -5.232915   -1.731862
     71          1           0        9.428319   -6.871806   -1.131778
     72          1           0       10.160009   -5.979143   -2.462027
     73          1           0       10.453517   -1.274753   -5.323029
     74          1           0        8.951074   -0.534779   -4.643140
     75          1           0        9.475168   -2.180856   -4.207095
     76          1           0       10.499544    3.762009   -1.684805
     77          1           0       13.023608    6.396257   -4.206581
     78          1           0       11.399016    7.038745   -4.443868
     79          1           0       11.939660    5.789661   -5.383878
     80         12           0      -13.391585   -0.519663   -0.342890
     81          6           0      -11.291023    2.063750    0.711912
     82          6           0      -16.068854    1.681058    0.189545
     83          6           0      -15.562159   -3.027670   -0.787294
     84          6           0      -10.822315   -2.745275    0.194516
     85          7           0      -13.672600    1.720266    0.284140
     86          6           0      -12.621596    2.472287    0.706379
     87          6           0      -13.111857    3.903871    1.161373
     88          6           0      -14.703820    3.660690    1.221663
     89          6           0      -14.853431    2.271435    0.579164
     90          6           0      -15.099893    3.537160    2.735885
     91          6           0      -12.737737    4.913483    0.014742
     92          6           0      -13.233324    6.377921    0.161817
     93          1           0      -13.855004    7.271148   -0.870177
     94          7           0      -15.476826   -0.583260   -0.495009
     95          6           0      -16.438692    0.419447   -0.287446
     96          6           0      -17.704273   -0.153206   -0.480561
     97          6           0      -17.575314   -1.455238   -0.945239
     98          6           0      -16.161281   -1.739124   -0.763878
     99          6           0      -18.933244    0.689165   -0.375509
    100          6           0      -18.655631   -2.498771   -1.382435
    101          8           0      -18.413124   -3.628489   -1.793367
    102          6           0      -20.131447   -2.122907   -1.540648
    103          7           0      -13.213392   -2.579937   -0.180236
    104          6           0      -14.227867   -3.389797   -0.557338
    105          6           0      -13.812087   -4.864420   -0.724619
    106          6           0      -12.326545   -4.797010   -0.273635
    107          6           0      -12.039339   -3.308912   -0.184886
    108          6           0      -14.765998   -5.891972   -0.029773
    109          6           0      -11.289633   -5.582432   -1.122584
    110          6           0      -10.921070   -4.993570   -2.417878
    111          7           0      -11.421531   -0.415854    0.221992
    112          6           0      -10.520668   -1.355400    0.393142
    113          6           0       -9.196867   -0.798778    0.690389
    114          6           0       -9.504807    0.593849    0.813073
    115          6           0      -10.851256    0.772753    0.562659
    116          6           0       -7.882004   -1.389278    0.477033
    117          6           0       -8.892015    1.885151    1.071229
    118          8           0       -7.730943    2.192435    1.219386
    119          6           0      -10.073813    2.862333    1.080622
    120          6           0      -10.163562    3.632816    2.402067
    121          8           0      -10.615199    3.180994    3.422080
    122          8           0       -9.584239    4.869543    2.247359
    123          6           0       -9.640237    5.680835    3.485201
    124          1           0      -16.879304    2.410462    0.232944
    125          1           0      -16.200321   -3.840507   -1.140874
    126          1           0      -10.171360   -3.620523    0.158308
    127          1           0      -12.751530    4.173240    2.154527
    128          1           0      -15.300551    4.434429    0.737003
    129          1           0      -15.330789    2.536190    3.098954
    130          1           0      -16.087968    3.957313    2.925317
    131          1           0      -14.366729    3.962240    3.421062
    132          1           0      -13.100767    4.487312   -0.920115
    133          1           0      -11.652554    4.886820   -0.087728
    134          1           0      -12.389920    6.889788    0.626170
    135          1           0      -14.041892    6.238352    0.878275
    136          1           0      -18.771754    1.726284   -0.080343
    137          1           0      -19.664801    0.138204    0.217148
    138          1           0      -19.301439    0.730950   -1.400957
    139          1           0      -20.626927   -1.882059   -0.600056
    140          1           0      -20.722189   -2.832801   -2.119812
    141          1           0      -20.153594   -1.248833   -2.191767
    142          1           0      -13.928180   -4.916901   -1.806788
    143          1           0      -12.345940   -5.171955    0.749667
    144          1           0      -15.786113   -5.511584    0.011182
    145          1           0      -14.425157   -6.063280    0.991633
    146          1           0      -14.826931   -6.840051   -0.564528
    147          1           0      -11.810183   -6.527869   -1.271885
    148          1           0      -10.416939   -5.815832   -0.512336
    149          1           0      -10.144983   -4.243316   -2.267350
    150          1           0      -11.796094   -4.595888   -2.931593
    151          1           0      -10.448815   -5.722896   -3.076699
    152          1           0       -8.036871   -2.132103   -0.305838
    153          1           0       -7.415662   -1.976197    1.268488
    154          1           0       -7.219982   -0.572631    0.191030
    155          1           0       -9.933283    3.558164    0.252819
    156          1           0       -8.734272    6.284068    3.540731
    157          1           0       -9.553205    5.132285    4.423320
    158          1           0      -10.482658    6.371353    3.461617
 ---------------------------------------------------------------------

 SCF Done:  E(RPBE1PBE) =  -4067.38566778     A.U. after   16 cycles

 Excitation energies and oscillator strengths:

 Excited State   1:      Singlet-A      1.8635 eV  665.32 nm  f=0.4205  <S**2>=0.000
     309 -> 315        0.18236
     311 -> 313        0.68693
 This state for optimization and/or second-order correction.
 Total Energy, E(TD-HF/TD-DFT) =  -4067.31718394
 Copying the excited state density for this state as the 1-particle RhoCI density.

 Excited State   2:      Singlet-A      1.8848 eV  657.80 nm  f=0.3319  <S**2>=0.000
     310 -> 316       -0.17898
     312 -> 314        0.68843
     312 <- 314       -0.10315

 Excited State   3:      Singlet-A      1.9382 eV  639.70 nm  f=0.0000  <S**2>=0.000
     312 -> 313        0.70710

 Excited State   4:      Singlet-A      2.0025 eV  619.14 nm  f=0.0000  <S**2>=0.000
     311 -> 314        0.70709

 Excited State   5:      Singlet-A      2.2117 eV  560.57 nm  f=0.1017  <S**2>=0.000
     309 -> 313        0.65031
     311 -> 315       -0.26772

 The electronic state is 1-A.
 Alpha  occ. eigenvalues --  -46.92094 -46.91905 -19.26426 -19.25899 -19.20605
 Alpha  occ. eigenvalues --  -19.19496 -19.19462 -19.19309 -19.19079 -19.18437
 Alpha  occ. eigenvalues --  -14.41896 -14.41533 -14.41502 -14.40719 -14.39302
 Alpha  occ. eigenvalues --  -14.38811 -14.38800 -14.38747 -10.36772 -10.35654
 Alpha  occ. eigenvalues --  -10.33176 -10.32794 -10.32762 -10.31672 -10.29154
 Alpha  occ. eigenvalues --  -10.29094 -10.29032 -10.28888 -10.28796 -10.28651
 Alpha  occ. eigenvalues --  -10.28464 -10.28429 -10.28357 -10.28199 -10.27987
 Alpha  occ. eigenvalues --  -10.27809 -10.27783 -10.27468 -10.27118 -10.26935
 Alpha  occ. eigenvalues --  -10.26839 -10.26781 -10.26559 -10.26424 -10.26423
 Alpha  occ. eigenvalues --  -10.26388 -10.26330 -10.26168 -10.25864 -10.25850
 Alpha  occ. eigenvalues --  -10.25822 -10.25704 -10.25678 -10.25588 -10.25567
 Alpha  occ. eigenvalues --  -10.25453 -10.25366 -10.25293 -10.25288 -10.25231
 Alpha  occ. eigenvalues --  -10.25057 -10.24941 -10.24877 -10.24838 -10.24636
 Alpha  occ. eigenvalues --  -10.24606 -10.24527 -10.24249 -10.24065 -10.23883
 Alpha  occ. eigenvalues --  -10.23824 -10.23821 -10.23796 -10.23501 -10.23476
 Alpha  occ. eigenvalues --  -10.23475 -10.23407 -10.23303 -10.23256 -10.23256
 Alpha  occ. eigenvalues --  -10.23052 -10.22878 -10.22848 -10.22556 -10.22302
 Alpha  occ. eigenvalues --  -10.22122  -3.14234  -3.14079  -1.87061  -1.86921
 Alpha  occ. eigenvalues --   -1.86623  -1.86456  -1.86444  -1.86306  -1.12588
 Alpha  occ. eigenvalues --   -1.11570  -1.05079  -1.04985  -1.04478  -1.03582
 Alpha  occ. eigenvalues --   -1.03293  -1.01293  -0.99983  -0.99746  -0.98392
 Alpha  occ. eigenvalues --   -0.98325  -0.97954  -0.97383  -0.96991  -0.96238
 Alpha  occ. eigenvalues --   -0.88224  -0.86256  -0.83784  -0.83710  -0.83164
 Alpha  occ. eigenvalues --   -0.82893  -0.82769  -0.82411  -0.81812  -0.81700
 Alpha  occ. eigenvalues --   -0.81523  -0.81032  -0.80604  -0.79463  -0.78631
 Alpha  occ. eigenvalues --   -0.78276  -0.77966  -0.77833  -0.77118  -0.76650
 Alpha  occ. eigenvalues --   -0.76627  -0.75691  -0.75141  -0.75135  -0.74791
 Alpha  occ. eigenvalues --   -0.74666  -0.72822  -0.72711  -0.71900  -0.71813
 Alpha  occ. eigenvalues --   -0.71146  -0.70916  -0.70542  -0.70433  -0.69438
 Alpha  occ. eigenvalues --   -0.69146  -0.66959  -0.66739  -0.66180  -0.66176
 Alpha  occ. eigenvalues --   -0.64365  -0.63594  -0.63440  -0.62764  -0.62597
 Alpha  occ. eigenvalues --   -0.62185  -0.61328  -0.61211  -0.60151  -0.59814
 Alpha  occ. eigenvalues --   -0.59666  -0.59339  -0.59185  -0.58927  -0.58725
 Alpha  occ. eigenvalues --   -0.58565  -0.57077  -0.57034  -0.55214  -0.54513
 Alpha  occ. eigenvalues --   -0.54012  -0.53948  -0.53893  -0.53571  -0.53060
 Alpha  occ. eigenvalues --   -0.53022  -0.52865  -0.52370  -0.52225  -0.51909
 Alpha  occ. eigenvalues --   -0.51083  -0.51035  -0.50163  -0.50152  -0.50107
 Alpha  occ. eigenvalues --   -0.49761  -0.49566  -0.49188  -0.48845  -0.48756
 Alpha  occ. eigenvalues --   -0.48525  -0.48374  -0.47861  -0.47784  -0.47547
 Alpha  occ. eigenvalues --   -0.47360  -0.47271  -0.47184  -0.46847  -0.46804
 Alpha  occ. eigenvalues --   -0.46710  -0.46686  -0.46046  -0.45684  -0.45585
 Alpha  occ. eigenvalues --   -0.45343  -0.45277  -0.44932  -0.44694  -0.44563
 Alpha  occ. eigenvalues --   -0.44507  -0.44333  -0.44171  -0.44145  -0.44021
 Alpha  occ. eigenvalues --   -0.43873  -0.43790  -0.43507  -0.43506  -0.43424
 Alpha  occ. eigenvalues --   -0.43417  -0.43088  -0.42926  -0.42812  -0.42562
 Alpha  occ. eigenvalues --   -0.42514  -0.42326  -0.42152  -0.42138  -0.41754
 Alpha  occ. eigenvalues --   -0.41308  -0.41216  -0.40932  -0.40809  -0.40756
 Alpha  occ. eigenvalues --   -0.40703  -0.40594  -0.40535  -0.40289  -0.40159
 Alpha  occ. eigenvalues --   -0.40082  -0.39957  -0.39817  -0.39758  -0.39712
 Alpha  occ. eigenvalues --   -0.39470  -0.39428  -0.39164  -0.39096  -0.39028
 Alpha  occ. eigenvalues --   -0.38818  -0.38817  -0.38755  -0.38620  -0.38414
 Alpha  occ. eigenvalues --   -0.38148  -0.38021  -0.37948  -0.37836  -0.37701
 Alpha  occ. eigenvalues --   -0.37650  -0.37357  -0.37325  -0.37232  -0.37132
 Alpha  occ. eigenvalues --   -0.36759  -0.36646  -0.36613  -0.36367  -0.36263
 Alpha  occ. eigenvalues --   -0.36049  -0.35670  -0.35569  -0.35297  -0.35112
 Alpha  occ. eigenvalues --   -0.34969  -0.34768  -0.34530  -0.34365  -0.33828
 Alpha  occ. eigenvalues --   -0.33373  -0.33366  -0.32856  -0.32788  -0.32661
 Alpha  occ. eigenvalues --   -0.32229  -0.32193  -0.31778  -0.31683  -0.31384
 Alpha  occ. eigenvalues --   -0.31292  -0.30814  -0.29780  -0.29634  -0.29474
 Alpha  occ. eigenvalues --   -0.28806  -0.28702  -0.28028  -0.27212  -0.26918
 Alpha  occ. eigenvalues --   -0.26281  -0.25895  -0.25861  -0.25714  -0.25644
 Alpha  occ. eigenvalues --   -0.25508  -0.24956  -0.24633  -0.20764  -0.20692
 Alpha  occ. eigenvalues --   -0.18726  -0.18629
 Alpha virt. eigenvalues --   -0.11010  -0.10867  -0.05337  -0.04820  -0.04336
 Alpha virt. eigenvalues --   -0.03755  -0.02227  -0.02079  -0.00540  -0.00110
 Alpha virt. eigenvalues --    0.00580   0.01126   0.01371   0.01673   0.01850

 Mulliken charges:
               1
     1  Mg  12.004684
     2  C    5.980396
     3  C    6.000949
     4  C    6.025816
     5  C    5.993879
     6  N    6.988665
     7  C    6.032399
     8  C    5.984797
     9  C    6.010836
    10  C    5.969629
    11  C    6.004201
    12  C    5.997269
    13  C    5.997890
    14  H    1.005761
    15  N    7.007014
    16  C    5.967334
    17  C    5.981850
    18  C    5.981141
    19  C    5.973946
    20  C    6.005698
    21  C    5.987121
    22  O    7.971077
    23  C    6.004615
    24  N    7.009847
    25  C    5.959207
    26  C    6.005826
    27  C    5.992705
    28  C    6.027246
    29  C    6.002771
    30  C    5.997943
    31  C    5.999857
    32  N    6.999664
    33  C    6.028319
    34  C    6.030817
    35  C    6.000784
    36  C    6.030536
    37  C    5.999980
    38  C    6.018063
    39  O    8.026694
    40  C    6.001268
    41  C    6.000838
    42  O    8.007801
    43  O    8.000807
    44  C    5.997432
    45  H    0.987422
    46  H    0.997064
    47  H    1.009743
    48  H    1.000891
    49  H    1.000833
    50  H    0.987320
    51  H    1.004454
    52  H    0.993495
    53  H    1.008606
    54  H    0.998870
    55  H    0.995442
    56  H    0.999998
    57  H    0.982583
    58  H    0.985019
    59  H    0.982030
    60  H    0.994640
    61  H    0.992880
    62  H    0.986334
    63  H    1.000312
    64  H    1.002491
    65  H    1.006052
    66  H    0.992619
    67  H    0.996866
    68  H    0.996229
    69  H    1.010546
    70  H    0.996866
    71  H    1.005980
    72  H    0.999031
    73  H    1.019373
    74  H    1.014226
    75  H    1.017503
    76  H    1.007999
    77  H    1.005998
    78  H    1.004058
    79  H    1.000849
    80  Mg  11.999823
    81  C    6.000598
    82  C    5.998842
    83  C    5.999204
    84  C    6.001772
    85  N    6.999823
    86  C    5.998214
    87  C    6.000811
    88  C    5.999030
    89  C    6.003077
    90  C    5.999760
    91  C    6.000347
    92  C    5.999967
    93  H    0.999435
    94  N    6.999701
    95  C    6.003395
    96  C    6.001262
    97  C    6.001962
    98  C    6.002006
    99  C    5.999717
   100  C    6.001150
   101  O    8.002506
   102  C    5.999578
   103  N    7.000412
   104  C    6.002647
   105  C    5.999385
   106  C    6.000893
   107  C    5.996797
   108  C    5.999752
   109  C    6.000235
   110  C    6.000479
   111  N    6.999901
   112  C    5.997116
   113  C    5.996385
   114  C    6.000233
   115  C    5.997406
   116  C    6.000548
   117  C    5.998352
   118  O    7.997436
   119  C    6.000133
   120  C    5.999685
   121  O    7.999571
   122  O    7.999818
   123  C    6.000126
   124  H    1.000914
   125  H    1.000751
   126  H    0.999202
   127  H    0.999993
   128  H    1.000193
   129  H    0.999986
   130  H    1.000139
   131  H    1.001240
   132  H    0.999329
   133  H    1.000526
   134  H    1.000180
   135  H    0.999622
   136  H    1.001626
   137  H    1.001598
   138  H    1.001530
   139  H    1.000911
   140  H    1.001340
   141  H    1.000580
   142  H    0.999828
   143  H    0.999645
   144  H    0.999397
   145  H    1.000791
   146  H    1.000593
   147  H    0.999349
   148  H    1.000237
   149  H    1.000555
   150  H    0.999201
   151  H    0.999480
   152  H    0.997948
   153  H    0.997657
   154  H    0.998275
   155  H    0.999027
   156  H    0.999630
   157  H    0.999913
   158  H    0.999528
 Sum of Mulliken charges = 624.00000

 Dipole moment (field-independent basis, Debye):
    X=             -7.8169    Y=              1.3292    Z=             -7.4921  Tot=             10.9088
 Quadrupole moment (field-independent basis, Debye-Ang):
   XX=           -159.3441   YY=              0.5423   ZZ=              0.6062
   XY=             24.8887   XZ=            -97.7770   YZ=              5.4234

 Normal termination of Gaussian 16 at Fri Oct 15 12:16:26 2021.
