 Gaussian 16, Revision A.03,
 Gaussian 16:  ES64L-G16RevA.03 25-Dec-2016

 --------------------------------------------------------
 #p PBE1PBE/Def2SVP td=(nstates=5) density=(transition=1)
 --------------------------------------------------------

 --------------------------------
 TDDFT excited states in gaussian
 --------------------------------
 Symbolic Z-matrix:
 Charge =  0 Multiplicity = 1

                         Standard orientation:
 ---------------------------------------------------------------------
 Center     Atomic      Atomic             Coordinates (Angstroms)
 Number     Number       Type             X           Y           Z
 ---------------------------------------------------------------------
      1         12           0        9.897475    0.710314   -0.174089
      2          6           0        7.899321   -1.668931   -1.890199
      3          6           0        7.894386    3.190667   -1.589224
      4          6           0       10.936412    2.671620    2.256966
      5          6           0       11.573800   -2.154391    1.371021
      6          7           0        7.892552    0.704157   -1.425513
      7          6           0        7.488047   -0.344531   -2.184290
      8          6           0        6.495073    0.141648   -3.224718
      9          6           0        6.926515    1.581248   -3.505132
     10          6           0        7.574450    1.883803   -2.058880
     11          6           0        7.968680    1.832061   -4.596610
     12          6           0        5.012585   -0.079404   -2.691610
     13          6           0        4.124237   -0.656454   -3.722522
     14          1           0        2.694028   -0.092415   -3.828967
     15          7           0        9.452811    2.703801    0.346167
     16          6           0        8.654710    3.583535   -0.426552
     17          6           0        8.719999    4.868129    0.223622
     18          6           0        9.651981    4.821954    1.294185
     19          6           0       10.058026    3.374113    1.382242
     20          6           0        7.904061    6.046498   -0.298515
     21          6           0        9.998909    5.936871    2.199811
     22          8           0        9.460021    7.023705    2.030931
     23          6           0       10.891545    5.881064    3.395902
     24          7           0       11.057625    0.230533    1.677324
     25          6           0       11.477507    1.322625    2.346503
     26          6           0       12.536076    0.942778    3.397689
     27          6           0       12.884970   -0.608209    3.033147
     28          6           0       11.823503   -0.883323    1.936734
     29          6           0       13.768347    1.950845    3.491920
     30          6           0       12.856550   -1.604398    4.234350
     31          6           0       11.563760   -2.466137    4.436718
     32          7           0        9.806344   -1.384854   -0.216738
     33          6           0       10.596234   -2.387187    0.415135
     34          6           0       10.272428   -3.735380   -0.226192
     35          6           0        9.208930   -3.442318   -1.064833
     36          6           0        8.986366   -2.019090   -1.032810
     37          6           0       10.850392   -5.149850   -0.027555
     38          6           0        8.302043   -4.002675   -2.015704
     39          8           0        8.218502   -5.149049   -2.459482
     40          6           0        7.392581   -2.891892   -2.403367
     41          6           0        6.064518   -3.273207   -1.710227
     42          8           0        5.774184   -3.125462   -0.524964
     43          8           0        5.248059   -3.906419   -2.688038
     44          6           0        4.022337   -4.459281   -2.275377
     45          1           0        7.369011    4.019993   -2.067678
     46          1           0       11.356570    3.439016    2.910110
     47          1           0       12.119641   -3.054087    1.660300
     48          1           0        6.597804   -0.360328   -4.186666
     49          1           0        6.187885    2.338908   -3.764288
     50          1           0        8.072331    1.009246   -5.303366
     51          1           0        8.892845    2.237702   -4.184210
     52          1           0        7.511452    2.641722   -5.166559
     53          1           0        4.594123    0.889588   -2.419285
     54          1           0        4.953609   -0.598375   -1.734842
     55          1           0        4.130867   -1.711121   -3.449663
     56          1           0        4.595849   -0.517572   -4.695235
     57          1           0        8.509475    6.778942   -0.832107
     58          1           0        7.343955    6.476791    0.530396
     59          1           0        7.157034    5.701423   -1.013486
     60          1           0       11.912988    5.720605    3.050054
     61          1           0       10.645314    5.121418    4.138809
     62          1           0       11.017242    6.863949    3.848410
     63          1           0       11.964840    0.940214    4.325768
     64          1           0       13.842042   -0.633524    2.513210
     65          1           0       13.493797    2.941103    3.128712
     66          1           0       14.734942    1.646240    3.088908
     67          1           0       14.035852    1.892175    4.548117
     68          1           0       13.076311   -1.116655    5.183694
     69          1           0       13.664964   -2.288992    3.978785
     70          1           0       11.637965   -2.515285    5.523331
     71          1           0       11.550967   -3.477233    4.029163
     72          1           0       10.712801   -1.859196    4.126858
     73          1           0       11.239738   -5.548010   -0.963911
     74          1           0        9.896732   -5.654337    0.124817
     75          1           0       11.473515   -5.127075    0.866215
     76          1           0        7.244013   -2.904299   -3.483184
     77          1           0        3.450206   -4.940788   -3.069397
     78          1           0        3.417674   -3.645943   -1.876162
     79          1           0        4.288823   -5.193312   -1.514399
     80         12           0       -9.660422    0.327939    0.028129
     81          6           0       -6.748172   -1.822880    0.062087
     82          6           0       -7.718064    2.583779   -1.227186
     83          6           0      -12.351393    2.205457    0.338199
     84          6           0      -11.421098   -2.032770    2.158087
     85          7           0       -7.460996    0.298485   -0.634776
     86          6           0       -6.448757   -0.633898   -0.540520
     87          6           0       -5.177115   -0.070643   -1.064488
     88          6           0       -5.408049    1.461316   -1.006207
     89          6           0       -6.951742    1.479719   -0.907886
     90          6           0       -4.770825    2.156190    0.217063
     91          6           0       -4.983506   -0.503174   -2.549871
     92          6           0       -3.537043   -0.982554   -2.959195
     93          1           0       -3.333459   -1.864528   -4.254842
     94          7           0       -9.979288    2.230643   -0.469904
     95          6           0       -9.110728    2.992258   -1.080014
     96          6           0       -9.763560    4.243431   -1.416254
     97          6           0      -11.117619    4.038095   -1.061222
     98          6           0      -11.177098    2.792058   -0.346303
     99          6           0       -9.010491    5.349623   -2.177327
    100          6           0      -12.259995    4.980145   -1.321078
    101          8           0      -13.360559    4.708749   -0.943629
    102          6           0      -12.022446    6.205083   -2.142649
    103          7           0      -11.548423    0.176894    1.387304
    104          6           0      -12.501009    1.066636    1.116062
    105          6           0      -13.818507    0.656275    1.658190
    106          6           0      -13.423451   -0.646743    2.422703
    107          6           0      -12.004347   -0.899372    1.986762
    108          6           0      -14.637366    1.714325    2.481747
    109          6           0      -14.424225   -1.823444    2.097551
    110          6           0      -15.466331   -2.264939    3.162697
    111          7           0       -9.278777   -1.461949    0.921350
    112          6           0      -10.061603   -2.359559    1.681303
    113          6           0       -9.276240   -3.579120    1.962250
    114          6           0       -8.047163   -3.391031    1.344327
    115          6           0       -8.044098   -2.128340    0.776260
    116          6           0       -9.718665   -4.729207    2.899077
    117          6           0       -6.732945   -4.073833    1.117211
    118          8           0       -6.294548   -5.163224    1.402165
    119          6           0       -5.761760   -3.000077    0.412522
    120          6           0       -5.026273   -3.575371   -0.653079
    121          8           0       -5.432462   -3.546910   -1.823226
    122          8           0       -3.837510   -4.217143   -0.319958
    123          6           0       -2.924904   -4.665272   -1.416222
    124          1           0       -7.187952    3.416183   -1.693335
    125          1           0      -13.265205    2.801213    0.385985
    126          1           0      -11.939526   -2.756188    2.789240
    127          1           0       -4.361878   -0.290165   -0.374571
    128          1           0       -5.053081    2.039505   -1.859094
    129          1           0       -4.045561    2.904568   -0.103729
    130          1           0       -4.274830    1.379693    0.798681
    131          1           0       -5.483097    2.627302    0.895010
    132          1           0       -5.226693    0.387338   -3.129773
    133          1           0       -5.744554   -1.259936   -2.739095
    134          1           0       -3.105467   -1.494105   -2.099298
    135          1           0       -3.015050   -0.035228   -3.099250
    136          1           0       -9.468942    5.463077   -3.160555
    137          1           0       -7.932493    5.219347   -2.266051
    138          1           0       -9.215255    6.320291   -1.726598
    139          1           0      -11.708923    5.970709   -3.159598
    140          1           0      -11.200379    6.851291   -1.835077
    141          1           0      -12.964775    6.743482   -2.246899
    142          1           0      -14.446450    0.372933    0.813487
    143          1           0      -13.347838   -0.429049    3.488284
    144          1           0      -14.088906    2.652249    2.401057
    145          1           0      -14.900400    1.455924    3.508094
    146          1           0      -15.617679    1.824220    2.017748
    147          1           0      -13.849903   -2.726767    1.890169
    148          1           0      -14.790131   -1.601312    1.095126
    149          1           0      -16.444723   -2.381324    2.696823
    150          1           0      -15.499061   -1.528283    3.965603
    151          1           0      -15.199516   -3.235710    3.582167
    152          1           0      -10.802387   -4.816199    2.826320
    153          1           0       -9.523309   -4.441713    3.932433
    154          1           0       -9.238274   -5.674112    2.644092
    155          1           0       -5.068122   -2.632432    1.168128
    156          1           0       -2.557153   -3.815263   -1.992711
    157          1           0       -3.335625   -5.518171   -1.955233
    158          1           0       -1.989822   -4.956059   -0.937677
 ---------------------------------------------------------------------

 SCF Done:  E(RPBE1PBE) =  -4067.30061276     A.U. after   16 cycles

 Excitation energies and oscillator strengths:

 Excited State   1:      Singlet-A      1.8402 eV  673.77 nm  f=0.2787  <S**2>=0.000
     309 -> 315       -0.18815
     312 -> 314        0.68384
 This state for optimization and/or second-order correction.
 Total Energy, E(TD-HF/TD-DFT) =  -4067.23298828
 Copying the excited state density for this state as the 1-particle RhoCI density.

 Excited State   2:      Singlet-A      1.8493 eV  670.45 nm  f=0.0000  <S**2>=0.000
     312 -> 313        0.70709

 Excited State   3:      Singlet-A      1.8809 eV  659.17 nm  f=0.4169  <S**2>=0.000
     310 -> 317       -0.15866
     311 -> 313        0.69261
     311 <- 313       -0.10961

 Excited State   4:      Singlet-A      1.9567 eV  633.63 nm  f=0.0000  <S**2>=0.000
     311 -> 314        0.70709

 Excited State   5:      Singlet-A      2.1945 eV  564.98 nm  f=0.0947  <S**2>=0.000
     309 -> 314        0.61866
     310 -> 313        0.15215
     312 -> 315        0.29174

 The electronic state is 1-A.
 Alpha  occ. eigenvalues --  -46.94782 -46.92771 -19.25493 -19.24606 -19.21705
 Alpha  occ. eigenvalues --  -19.20003 -19.19177 -19.19173 -19.18735 -19.17930
 Alpha  occ. eigenvalues --  -14.41970 -14.41613 -14.41124 -14.39958 -14.39673
 Alpha  occ. eigenvalues --  -14.39623 -14.39554 -14.39170 -10.37765 -10.35459
 Alpha  occ. eigenvalues --  -10.33262 -10.31968 -10.31718 -10.31391 -10.29721
 Alpha  occ. eigenvalues --  -10.29339 -10.29300 -10.29104 -10.28852 -10.28795
 Alpha  occ. eigenvalues --  -10.28700 -10.28445 -10.28441 -10.28396 -10.27980
 Alpha  occ. eigenvalues --  -10.27942 -10.27876 -10.27860 -10.27457 -10.27399
 Alpha  occ. eigenvalues --  -10.27166 -10.27095 -10.26722 -10.26596 -10.26577
 Alpha  occ. eigenvalues --  -10.26444 -10.26432 -10.26355 -10.26326 -10.26001
 Alpha  occ. eigenvalues --  -10.25916 -10.25870 -10.25855 -10.25758 -10.25685
 Alpha  occ. eigenvalues --  -10.25566 -10.25439 -10.25418 -10.25346 -10.25299
 Alpha  occ. eigenvalues --  -10.25281 -10.25260 -10.24989 -10.24801 -10.24616
 Alpha  occ. eigenvalues --  -10.24611 -10.24549 -10.24463 -10.24377 -10.24369
 Alpha  occ. eigenvalues --  -10.23982 -10.23971 -10.23868 -10.23656 -10.23616
 Alpha  occ. eigenvalues --  -10.23605 -10.23423 -10.23346 -10.23197 -10.23188
 Alpha  occ. eigenvalues --  -10.23166 -10.23120 -10.23073 -10.22963 -10.22892
 Alpha  occ. eigenvalues --  -10.22738  -3.16570  -3.14875  -1.89347  -1.88995
 Alpha  occ. eigenvalues --   -1.88746  -1.87701  -1.87255  -1.87099  -1.10674
 Alpha  occ. eigenvalues --   -1.08900  -1.06649  -1.05744  -1.04360  -1.04228
 Alpha  occ. eigenvalues --   -1.03569  -1.00840  -1.00437  -0.99555  -0.99414
 Alpha  occ. eigenvalues --   -0.98898  -0.98158  -0.97571  -0.96075  -0.95863
 Alpha  occ. eigenvalues --   -0.88850  -0.85642  -0.83570  -0.83476  -0.83184
 Alpha  occ. eigenvalues --   -0.83098  -0.82241  -0.82168  -0.81907  -0.81723
 Alpha  occ. eigenvalues --   -0.81643  -0.81269  -0.80013  -0.79667  -0.79180
 Alpha  occ. eigenvalues --   -0.78596  -0.78032  -0.77332  -0.77078  -0.76268
 Alpha  occ. eigenvalues --   -0.76003  -0.75964  -0.75260  -0.75244  -0.74720
 Alpha  occ. eigenvalues --   -0.74661  -0.72877  -0.72446  -0.71683  -0.71404
 Alpha  occ. eigenvalues --   -0.71309  -0.71014  -0.70450  -0.70447  -0.69680
 Alpha  occ. eigenvalues --   -0.69665  -0.67303  -0.67270  -0.66417  -0.65473
 Alpha  occ. eigenvalues --   -0.64341  -0.63458  -0.63267  -0.63160  -0.62343
 Alpha  occ. eigenvalues --   -0.61813  -0.61632  -0.61378  -0.60419  -0.60017
 Alpha  occ. eigenvalues --   -0.59950  -0.59543  -0.59537  -0.59305  -0.59199
 Alpha  occ. eigenvalues --   -0.58763  -0.56877  -0.55830  -0.55586  -0.54621
 Alpha  occ. eigenvalues --   -0.54587  -0.54420  -0.54017  -0.53598  -0.53403
 Alpha  occ. eigenvalues --   -0.53011  -0.52508  -0.52139  -0.51734  -0.51679
 Alpha  occ. eigenvalues --   -0.51001  -0.50757  -0.50665  -0.50332  -0.50270
 Alpha  occ. eigenvalues --   -0.50061  -0.49529  -0.49259  -0.48509  -0.48399
 Alpha  occ. eigenvalues --   -0.48375  -0.48037  -0.47882  -0.47748  -0.47424
 Alpha  occ. eigenvalues --   -0.47310  -0.47050  -0.46949  -0.46851  -0.46600
 Alpha  occ. eigenvalues --   -0.46571  -0.46301  -0.46298  -0.46096  -0.45920
 Alpha  occ. eigenvalues --   -0.45918  -0.45270  -0.44905  -0.44867  -0.44858
 Alpha  occ. eigenvalues --   -0.44590  -0.44570  -0.44392  -0.44231  -0.44120
 Alpha  occ. eigenvalues --   -0.43979  -0.43905  -0.43801  -0.43708  -0.43481
 Alpha  occ. eigenvalues --   -0.43314  -0.43247  -0.42998  -0.42934  -0.42619
 Alpha  occ. eigenvalues --   -0.42433  -0.42317  -0.42302  -0.42176  -0.42061
 Alpha  occ. eigenvalues --   -0.41927  -0.41724  -0.41076  -0.40889  -0.40888
 Alpha  occ. eigenvalues --   -0.40725  -0.40695  -0.40659  -0.40536  -0.40318
 Alpha  occ. eigenvalues --   -0.40293  -0.40194  -0.40169  -0.40016  -0.39618
 Alpha  occ. eigenvalues --   -0.39560  -0.39397  -0.39331  -0.39312  -0.39030
 Alpha  occ. eigenvalues --   -0.39023  -0.38740  -0.38653  -0.38411  -0.38242
 Alpha  occ. eigenvalues --   -0.38201  -0.38120  -0.37911  -0.37882  -0.37605
 Alpha  occ. eigenvalues --   -0.37359  -0.37265  -0.37102  -0.37100  -0.36673
 Alpha  occ. eigenvalues --   -0.36530  -0.36248  -0.36166  -0.35987  -0.35895
 Alpha  occ. eigenvalues --   -0.35854  -0.35428  -0.35375  -0.35246  -0.35058
 Alpha  occ. eigenvalues --   -0.35053  -0.34789  -0.34716  -0.34139  -0.33646
 Alpha  occ. eigenvalues --   -0.33364  -0.33234  -0.33019  -0.32743  -0.32604
 Alpha  occ. eigenvalues --   -0.32011  -0.31710  -0.31485  -0.31428  -0.31128
 Alpha  occ. eigenvalues --   -0.30925  -0.30638  -0.30151  -0.29542  -0.29062
 Alpha  occ. eigenvalues --   -0.28739  -0.28291  -0.27652  -0.27184  -0.26854
 Alpha  occ. eigenvalues --   -0.26518  -0.26339  -0.26085  -0.25962  -0.25956
 Alpha  occ. eigenvalues --   -0.25436  -0.25335  -0.24947  -0.21095  -0.20469
 Alpha  occ. eigenvalues --   -0.19062  -0.18849
 Alpha virt. eigenvalues --   -0.11370  -0.11179  -0.06097  -0.04476  -0.03969
 Alpha virt. eigenvalues --   -0.03262  -0.03234  -0.02286  -0.01743  -0.00423
 Alpha virt. eigenvalues --   -0.00013   0.00004   0.00670   0.01070   0.01499

 Mulliken charges:
               1
     1  Mg  12.001928
     2  C    6.017741
     3  C    5.987584
     4  C    5.986833
     5  C    6.014878
     6  N    7.003434
     7  C    5.975499
     8  C    6.003273
     9  C    5.998269
    10  C    6.027589
    11  C    5.998804
    12  C    6.004663
    13  C    6.000865
    14  H    0.993702
    15  N    6.990574
    16  C    6.041467
    17  C    6.017801
    18  C    6.012270
    19  C    6.030901
    20  C    5.995715
    21  C    6.009383
    22  O    8.021940
    23  C    5.997400
    24  N    7.003504
    25  C    6.029273
    26  C    5.989227
    27  C    6.012080
    28  C    5.965118
    29  C    5.996976
    30  C    5.999019
    31  C    6.007732
    32  N    7.002729
    33  C    5.957643
    34  C    5.972251
    35  C    5.999258
    36  C    5.973812
    37  C    5.998295
    38  C    5.980729
    39  O    7.969475
    40  C    6.002800
    41  C    5.997350
    42  O    7.994302
    43  O    7.998476
    44  C    6.002124
    45  H    1.008915
    46  H    1.003499
    47  H    0.990759
    48  H    1.001532
    49  H    1.000410
    50  H    1.013231
    51  H    0.997831
    52  H    1.001680
    53  H    0.988305
    54  H    1.002582
    55  H    1.005504
    56  H    0.997295
    57  H    1.018153
    58  H    1.014612
    59  H    1.016463
    60  H    1.010655
    61  H    1.010904
    62  H    1.011203
    63  H    1.000606
    64  H    0.995682
    65  H    0.991818
    66  H    1.005824
    67  H    1.004465
    68  H    0.990631
    69  H    0.999905
    70  H    0.991847
    71  H    1.003809
    72  H    0.998258
    73  H    0.984222
    74  H    0.988161
    75  H    0.985399
    76  H    0.990885
    77  H    0.995595
    78  H    0.994147
    79  H    1.000526
    80  Mg  12.000244
    81  C    5.998254
    82  C    5.999673
    83  C    6.001283
    84  C    5.999297
    85  N    6.998523
    86  C    6.002609
    87  C    5.999588
    88  C    6.000731
    89  C    5.997901
    90  C    6.000568
    91  C    5.999666
    92  C    5.999769
    93  H    1.001173
    94  N    7.000900
    95  C    5.996948
    96  C    5.997610
    97  C    5.999017
    98  C    5.996829
    99  C    6.000374
   100  C    5.998747
   101  O    7.997747
   102  C    6.000584
   103  N    6.999943
   104  C    5.997120
   105  C    6.001185
   106  C    5.999085
   107  C    6.002013
   108  C    5.999983
   109  C    5.999818
   110  C    6.000034
   111  N    7.000202
   112  C    6.003585
   113  C    6.003256
   114  C    5.999994
   115  C    6.003181
   116  C    6.000127
   117  C    6.001558
   118  O    8.002906
   119  C    6.000663
   120  C    6.000275
   121  O    8.000703
   122  O    8.000130
   123  C    5.999162
   124  H    0.998424
   125  H    0.999287
   126  H    1.000995
   127  H    0.999979
   128  H    0.999537
   129  H    0.998741
   130  H    0.998782
   131  H    0.999940
   132  H    1.000915
   133  H    0.999747
   134  H    1.000162
   135  H    0.999898
   136  H    0.998220
   137  H    0.998020
   138  H    0.997943
   139  H    0.999284
   140  H    0.999164
   141  H    0.998590
   142  H    0.999900
   143  H    1.000164
   144  H    1.000435
   145  H    0.999181
   146  H    0.999835
   147  H    0.999411
   148  H    1.000700
   149  H    1.000411
   150  H    1.000289
   151  H    0.999808
   152  H    1.001604
   153  H    1.002035
   154  H    1.001829
   155  H    1.000802
   156  H    1.000788
   157  H    1.000379
   158  H    1.001841
 Sum of Mulliken charges = 624.00000

 Dipole moment (field-independent basis, Debye):
    X=             -0.3724    Y=              8.8178    Z=              1.4063  Tot=              8.9370
 Quadrupole moment (field-independent basis, Debye-Ang):
   XX=            -19.5640   YY=             12.2759   ZZ=              1.0380
   XY=            101.5230   XZ=              5.4155   YZ=              1.5234

 Normal termination of Gaussian 16 at Thu Oct 14 17:47:45 2021.
