 Gaussian 16, Revision A.03,
 Gaussian 16:  ES64L-G16RevA.03 25-Dec-2016

 --------------------------------------------------------
 #p PBE1PBE/Def2SVP td=(nstates=5) density=(transition=1)
 --------------------------------------------------------

 --------------------------------
 TDDFT excited states in gaussian
 --------------------------------
 Symbolic Z-matrix:
 Charge =  0 Multiplicity = 1

                         Standard orientation:
 ---------------------------------------------------------------------
 Center     Atomic      Atomic             Coordinates (Angstroms)
 Number     Number       Type             X           Y           Z
 ---------------------------------------------------------------------
      1         12           0       16.114723    0.553834   -0.448031
      2          6           0       15.924149   -2.512913    1.115526
      3          6           0       13.254941    1.488948    1.494932
      4          6           0       15.963917    3.373526   -2.085028
      5          6           0       18.656103   -0.594078   -2.494708
      6          7           0       14.613121   -0.540805    1.005047
      7          6           0       14.917000   -1.673750    1.615777
      8          6           0       14.106838   -1.830967    2.933546
      9          6           0       12.936171   -0.826675    2.647393
     10          6           0       13.593156    0.140551    1.649664
     11          6           0       11.671189   -1.537044    2.047036
     12          6           0       15.053702   -1.392938    4.073015
     13          6           0       14.540462   -1.593169    5.505467
     14          1           0       13.089136   -1.953328    5.751931
     15          7           0       14.930296    2.256830   -0.310703
     16          6           0       13.825075    2.441617    0.589454
     17          6           0       13.440820    3.841271    0.467918
     18          6           0       14.309807    4.427583   -0.504629
     19          6           0       15.113489    3.338297   -1.057421
     20          6           0       12.314115    4.540345    1.316455
     21          6           0       14.410418    5.940739   -0.889058
     22          8           0       15.113088    6.241962   -1.814661
     23          6           0       13.620705    6.968364   -0.145354
     24          7           0       17.238687    1.326721   -2.021620
     25          6           0       16.999227    2.547043   -2.552398
     26          6           0       17.885480    2.866171   -3.755812
     27          6           0       18.833433    1.644884   -3.785542
     28          6           0       18.192711    0.713405   -2.677910
     29          6           0       17.130269    3.092538   -5.116830
     30          6           0       20.313089    1.912781   -3.679676
     31          6           0       20.882113    2.872687   -2.607126
     32          7           0       17.129090   -1.168952   -0.722125
     33          6           0       18.142069   -1.510036   -1.571965
     34          6           0       18.575797   -2.841705   -1.205376
     35          6           0       17.765159   -3.313187   -0.116113
     36          6           0       16.880834   -2.224867    0.118481
     37          6           0       19.686881   -3.577764   -1.886801
     38          6           0       17.452647   -4.400077    0.749744
     39          8           0       17.916201   -5.555323    0.867439
     40          6           0       16.028736   -3.957871    1.395513
     41          6           0       16.040578   -4.446046    2.845043
     42          8           0       16.872665   -4.213808    3.636222
     43          8           0       14.938787   -5.231199    3.032689
     44          6           0       14.530022   -5.515653    4.392848
     45          1           0       12.344558    1.742816    2.041099
     46          1           0       15.925946    4.276440   -2.698047
     47          1           0       19.442461   -1.022571   -3.118397
     48          1           0       13.683076   -2.829342    3.041057
     49          1           0       12.763647   -0.358680    3.616877
     50          1           0       10.905614   -1.622318    2.817236
     51          1           0       11.982442   -2.514811    1.678845
     52          1           0       11.194020   -0.972124    1.246188
     53          1           0       15.197238   -0.316971    3.977500
     54          1           0       16.061946   -1.784470    3.941453
     55          1           0       14.925229   -0.852122    6.206470
     56          1           0       15.124045   -2.434128    5.880530
     57          1           0       11.605589    5.087990    0.694317
     58          1           0       12.839054    5.172364    2.032579
     59          1           0       11.806463    3.795042    1.929945
     60          1           0       14.248096    7.853006   -0.256640
     61          1           0       13.589559    6.779940    0.927176
     62          1           0       12.545445    7.059768   -0.298604
     63          1           0       18.412715    3.779311   -3.480495
     64          1           0       18.698224    1.022833   -4.670313
     65          1           0       17.787011    2.684546   -5.884700
     66          1           0       17.075656    4.180016   -5.171074
     67          1           0       16.116321    2.696604   -5.060721
     68          1           0       20.457828    2.513257   -4.577147
     69          1           0       20.983408    1.052639   -3.672397
     70          1           0       21.408987    3.765441   -2.941402
     71          1           0       21.682757    2.401323   -2.037186
     72          1           0       20.068228    3.219504   -1.970241
     73          1           0       19.715815   -4.560684   -1.417419
     74          1           0       20.641281   -3.095991   -1.670189
     75          1           0       19.641777   -3.586917   -2.975432
     76          1           0       15.278588   -4.431496    0.761882
     77          1           0       14.529151   -6.587558    4.194550
     78          1           0       13.610915   -5.010748    4.690955
     79          1           0       15.290611   -5.306280    5.145474
     80         12           0      -16.094309    0.447982    0.410375
     81          6           0      -16.025757   -2.525146   -1.358620
     82          6           0      -12.635793    0.471456    0.453608
     83          6           0      -16.227304    3.661257    1.436052
     84          6           0      -19.590935    0.400632   -0.046802
     85          7           0      -14.506199   -0.747121   -0.623026
     86          6           0      -14.753757   -1.972495   -1.094187
     87          6           0      -13.433715   -2.622456   -1.612576
     88          6           0      -12.341656   -1.793825   -0.784794
     89          6           0      -13.214007   -0.620206   -0.195496
     90          6           0      -11.559066   -2.668139    0.224480
     91          6           0      -13.268891   -2.372330   -3.094360
     92          6           0      -12.731199   -3.544067   -3.900913
     93          1           0      -11.730604   -3.364061   -5.104048
     94          7           0      -14.573059    1.804688    1.045907
     95          6           0      -13.239037    1.687576    0.930013
     96          6           0      -12.654175    2.860744    1.493728
     97          6           0      -13.678051    3.741999    1.956277
     98          6           0      -14.918116    3.085044    1.524889
     99          6           0      -11.191898    2.967934    1.723013
    100          6           0      -13.423898    5.095767    2.517646
    101          8           0      -12.280475    5.477641    2.703869
    102          6           0      -14.565734    6.012666    2.939651
    103          7           0      -17.778831    1.847017    0.744418
    104          6           0      -17.492543    3.129526    1.104234
    105          6           0      -18.706440    3.993117    0.989045
    106          6           0      -19.788319    2.918656    0.498703
    107          6           0      -19.074531    1.591018    0.438160
    108          6           0      -19.069893    4.770740    2.267835
    109          6           0      -20.552893    3.266309   -0.854627
    110          6           0      -22.098200    3.234523   -0.914911
    111          7           0      -17.520776   -0.769067   -0.464108
    112          6           0      -18.877797   -0.697788   -0.504902
    113          6           0      -19.412129   -1.935524   -0.865500
    114          6           0      -18.337911   -2.746175   -1.205091
    115          6           0      -17.220532   -1.972069   -1.016412
    116          6           0      -20.934384   -2.238071   -0.987941
    117          6           0      -17.941123   -4.001658   -1.643022
    118          8           0      -18.648182   -4.923702   -2.034245
    119          6           0      -16.348762   -3.981636   -1.838167
    120          6           0      -15.694613   -4.879367   -0.956080
    121          8           0      -15.455082   -4.795264    0.250837
    122          8           0      -15.311313   -5.968108   -1.733245
    123          6           0      -14.608052   -7.093571   -1.141968
    124          1           0      -11.556865    0.409694    0.608831
    125          1           0      -16.427702    4.686593    1.755280
    126          1           0      -20.681753    0.452932   -0.053953
    127          1           0      -13.485027   -3.691061   -1.405735
    128          1           0      -11.637726   -1.241989   -1.406894
    129          1           0      -11.957792   -3.681053    0.276802
    130          1           0      -11.594165   -2.204505    1.210852
    131          1           0      -10.512961   -2.662271   -0.080808
    132          1           0      -12.689177   -1.500541   -3.398380
    133          1           0      -14.256423   -2.049559   -3.424010
    134          1           0      -13.598937   -4.122165   -4.218159
    135          1           0      -12.236917   -4.123724   -3.121325
    136          1           0      -11.095725    2.698755    2.774700
    137          1           0      -10.826892    3.974428    1.517564
    138          1           0      -10.608723    2.287175    1.102777
    139          1           0      -14.933731    6.465458    2.018843
    140          1           0      -14.096142    6.834645    3.479409
    141          1           0      -15.325192    5.457112    3.489668
    142          1           0      -18.386168    4.659594    0.188862
    143          1           0      -20.634071    2.860565    1.183876
    144          1           0      -18.797366    5.808288    2.071829
    145          1           0      -18.572700    4.382582    3.157386
    146          1           0      -20.150267    4.747951    2.408489
    147          1           0      -20.218705    2.568688   -1.622441
    148          1           0      -20.353153    4.278923   -1.205770
    149          1           0      -22.243754    2.194578   -1.206907
    150          1           0      -22.459426    3.877195   -1.716730
    151          1           0      -22.683953    3.282345    0.002984
    152          1           0      -21.309271   -1.755733   -1.889762
    153          1           0      -21.569518   -1.832177   -0.200329
    154          1           0      -21.112592   -3.310545   -1.071065
    155          1           0      -16.179388   -4.183739   -2.895904
    156          1           0      -14.895921   -7.979525   -1.707096
    157          1           0      -14.721896   -7.197730   -0.062617
    158          1           0      -13.548938   -6.972738   -1.369952
 ---------------------------------------------------------------------

 SCF Done:  E(RPBE1PBE) =  -4067.35076201     A.U. after   16 cycles

 Excitation energies and oscillator strengths:

 Excited State   1:      Singlet-A      1.7996 eV  688.94 nm  f=0.0000  <S**2>=0.000
     312 -> 313        0.70710
 This state for optimization and/or second-order correction.
 Total Energy, E(TD-HF/TD-DFT) =  -4067.28462640
 Copying the excited state density for this state as the 1-particle RhoCI density.

 Excited State   2:      Singlet-A      1.8604 eV  666.43 nm  f=0.3757  <S**2>=0.000
     309 -> 315       -0.17768
     311 -> 313        0.69154
     311 <- 313       -0.11012

 Excited State   3:      Singlet-A      1.8859 eV  657.42 nm  f=0.3771  <S**2>=0.000
     310 -> 316       -0.18995
     312 -> 314        0.68725
     312 <- 314       -0.10004

 Excited State   4:      Singlet-A      2.1534 eV  575.75 nm  f=0.0000  <S**2>=0.000
     311 -> 314        0.70710

 Excited State   5:      Singlet-A      2.2138 eV  560.06 nm  f=0.0906  <S**2>=0.000
     310 -> 314        0.64979
     312 -> 316        0.26392

 The electronic state is 1-A.
 Alpha  occ. eigenvalues --  -46.93106 -46.91649 -19.25301 -19.25011 -19.20385
 Alpha  occ. eigenvalues --  -19.20379 -19.19552 -19.19336 -19.19184 -19.18651
 Alpha  occ. eigenvalues --  -14.41921 -14.41545 -14.41237 -14.41160 -14.39511
 Alpha  occ. eigenvalues --  -14.39000 -14.38920 -14.38909 -10.36555 -10.35855
 Alpha  occ. eigenvalues --  -10.32445 -10.32399 -10.32143 -10.31832 -10.29316
 Alpha  occ. eigenvalues --  -10.29192 -10.29086 -10.28911 -10.28810 -10.28667
 Alpha  occ. eigenvalues --  -10.28653 -10.28364 -10.28358 -10.28275 -10.28235
 Alpha  occ. eigenvalues --  -10.28143 -10.27526 -10.27210 -10.27160 -10.26921
 Alpha  occ. eigenvalues --  -10.26682 -10.26370 -10.26350 -10.26264 -10.26245
 Alpha  occ. eigenvalues --  -10.26243 -10.26187 -10.26162 -10.26154 -10.26047
 Alpha  occ. eigenvalues --  -10.26029 -10.25998 -10.25859 -10.25704 -10.25619
 Alpha  occ. eigenvalues --  -10.25609 -10.25520 -10.25500 -10.25392 -10.25307
 Alpha  occ. eigenvalues --  -10.25266 -10.25239 -10.25117 -10.25095 -10.24665
 Alpha  occ. eigenvalues --  -10.24499 -10.24415 -10.24397 -10.24316 -10.24303
 Alpha  occ. eigenvalues --  -10.24174 -10.24069 -10.23990 -10.23804 -10.23742
 Alpha  occ. eigenvalues --  -10.23679 -10.23524 -10.23398 -10.23391 -10.23369
 Alpha  occ. eigenvalues --  -10.23356 -10.23143 -10.22676 -10.22625 -10.22575
 Alpha  occ. eigenvalues --  -10.22445  -3.15015  -3.13864  -1.87868  -1.87383
 Alpha  occ. eigenvalues --   -1.87230  -1.86705  -1.86254  -1.86078  -1.12332
 Alpha  occ. eigenvalues --   -1.10470  -1.06313  -1.04832  -1.04801  -1.04599
 Alpha  occ. eigenvalues --   -1.02661  -1.02303  -1.00237  -0.99862  -0.98752
 Alpha  occ. eigenvalues --   -0.98643  -0.98524  -0.97671  -0.97353  -0.96804
 Alpha  occ. eigenvalues --   -0.88319  -0.87324  -0.83853  -0.83647  -0.83430
 Alpha  occ. eigenvalues --   -0.83038  -0.82754  -0.82731  -0.82288  -0.81638
 Alpha  occ. eigenvalues --   -0.81283  -0.80692  -0.80603  -0.79934  -0.79758
 Alpha  occ. eigenvalues --   -0.78945  -0.78343  -0.77988  -0.77370  -0.76703
 Alpha  occ. eigenvalues --   -0.76519  -0.75945  -0.75872  -0.75718  -0.75133
 Alpha  occ. eigenvalues --   -0.74593  -0.72565  -0.72318  -0.71974  -0.71654
 Alpha  occ. eigenvalues --   -0.71060  -0.70914  -0.70828  -0.70166  -0.69883
 Alpha  occ. eigenvalues --   -0.69582  -0.67978  -0.67084  -0.66917  -0.66439
 Alpha  occ. eigenvalues --   -0.64622  -0.64370  -0.63704  -0.63281  -0.62592
 Alpha  occ. eigenvalues --   -0.62488  -0.61815  -0.60670  -0.60598  -0.60373
 Alpha  occ. eigenvalues --   -0.60104  -0.59646  -0.59467  -0.59406  -0.58807
 Alpha  occ. eigenvalues --   -0.58616  -0.57278  -0.56875  -0.55097  -0.55064
 Alpha  occ. eigenvalues --   -0.54553  -0.54183  -0.53750  -0.53704  -0.53550
 Alpha  occ. eigenvalues --   -0.53362  -0.52869  -0.52714  -0.52664  -0.52363
 Alpha  occ. eigenvalues --   -0.50987  -0.50744  -0.50698  -0.50573  -0.50230
 Alpha  occ. eigenvalues --   -0.50140  -0.49840  -0.49409  -0.48959  -0.48776
 Alpha  occ. eigenvalues --   -0.48272  -0.48265  -0.48057  -0.48034  -0.47652
 Alpha  occ. eigenvalues --   -0.47210  -0.46981  -0.46950  -0.46762  -0.46725
 Alpha  occ. eigenvalues --   -0.46584  -0.46562  -0.46397  -0.46246  -0.46144
 Alpha  occ. eigenvalues --   -0.45894  -0.45350  -0.45247  -0.45049  -0.44770
 Alpha  occ. eigenvalues --   -0.44756  -0.44614  -0.44578  -0.44290  -0.44252
 Alpha  occ. eigenvalues --   -0.44122  -0.44103  -0.43922  -0.43891  -0.43753
 Alpha  occ. eigenvalues --   -0.43716  -0.43338  -0.43083  -0.42994  -0.42901
 Alpha  occ. eigenvalues --   -0.42777  -0.42617  -0.42291  -0.42246  -0.41640
 Alpha  occ. eigenvalues --   -0.41560  -0.41525  -0.41464  -0.41406  -0.41374
 Alpha  occ. eigenvalues --   -0.41238  -0.40880  -0.40724  -0.40668  -0.40631
 Alpha  occ. eigenvalues --   -0.40569  -0.40276  -0.40224  -0.40135  -0.39922
 Alpha  occ. eigenvalues --   -0.39833  -0.39681  -0.39534  -0.39509  -0.39343
 Alpha  occ. eigenvalues --   -0.38749  -0.38683  -0.38494  -0.38307  -0.38175
 Alpha  occ. eigenvalues --   -0.38150  -0.38011  -0.37834  -0.37773  -0.37703
 Alpha  occ. eigenvalues --   -0.37578  -0.37207  -0.37076  -0.36934  -0.36923
 Alpha  occ. eigenvalues --   -0.36840  -0.36804  -0.36725  -0.36662  -0.36420
 Alpha  occ. eigenvalues --   -0.36387  -0.36292  -0.35921  -0.35819  -0.35246
 Alpha  occ. eigenvalues --   -0.35085  -0.34694  -0.34434  -0.34404  -0.33316
 Alpha  occ. eigenvalues --   -0.33305  -0.33213  -0.33007  -0.32790  -0.32522
 Alpha  occ. eigenvalues --   -0.32464  -0.32287  -0.32155  -0.31278  -0.31188
 Alpha  occ. eigenvalues --   -0.30867  -0.30733  -0.30120  -0.29853  -0.29595
 Alpha  occ. eigenvalues --   -0.29116  -0.29085  -0.28817  -0.27482  -0.26945
 Alpha  occ. eigenvalues --   -0.26458  -0.26021  -0.25962  -0.25611  -0.25547
 Alpha  occ. eigenvalues --   -0.25228  -0.25135  -0.24974  -0.21549  -0.20740
 Alpha  occ. eigenvalues --   -0.19254  -0.18719
 Alpha virt. eigenvalues --   -0.11691  -0.10930  -0.05807  -0.05334  -0.04445
 Alpha virt. eigenvalues --   -0.03997  -0.02145  -0.01794  -0.00463  -0.00253
 Alpha virt. eigenvalues --    0.00293   0.00441   0.01303   0.01334   0.01491

 Mulliken charges:
               1
     1  Mg  12.000000
     2  C    6.000000
     3  C    6.000000
     4  C    6.000000
     5  C    6.000000
     6  N    7.000000
     7  C    6.000000
     8  C    6.000000
     9  C    6.000000
    10  C    6.000000
    11  C    6.000000
    12  C    6.000000
    13  C    6.000000
    14  H    1.000000
    15  N    7.000000
    16  C    6.000000
    17  C    6.000000
    18  C    6.000000
    19  C    6.000000
    20  C    6.000000
    21  C    6.000000
    22  O    8.000000
    23  C    6.000000
    24  N    7.000000
    25  C    6.000000
    26  C    6.000000
    27  C    6.000000
    28  C    6.000000
    29  C    6.000000
    30  C    6.000000
    31  C    6.000000
    32  N    7.000000
    33  C    6.000000
    34  C    6.000000
    35  C    6.000000
    36  C    6.000000
    37  C    6.000000
    38  C    6.000000
    39  O    8.000000
    40  C    6.000000
    41  C    6.000000
    42  O    8.000000
    43  O    8.000000
    44  C    6.000000
    45  H    1.000000
    46  H    1.000000
    47  H    1.000000
    48  H    1.000000
    49  H    1.000000
    50  H    1.000000
    51  H    1.000000
    52  H    1.000000
    53  H    1.000000
    54  H    1.000000
    55  H    1.000000
    56  H    1.000000
    57  H    1.000000
    58  H    1.000000
    59  H    1.000000
    60  H    1.000000
    61  H    1.000000
    62  H    1.000000
    63  H    1.000000
    64  H    1.000000
    65  H    1.000000
    66  H    1.000000
    67  H    1.000000
    68  H    1.000000
    69  H    1.000000
    70  H    1.000000
    71  H    1.000000
    72  H    1.000000
    73  H    1.000000
    74  H    1.000000
    75  H    1.000000
    76  H    1.000000
    77  H    1.000000
    78  H    1.000000
    79  H    1.000000
    80  Mg  12.000000
    81  C    6.000000
    82  C    6.000000
    83  C    6.000000
    84  C    6.000000
    85  N    7.000000
    86  C    6.000000
    87  C    6.000000
    88  C    6.000000
    89  C    6.000000
    90  C    6.000000
    91  C    6.000000
    92  C    6.000000
    93  H    1.000000
    94  N    7.000000
    95  C    6.000000
    96  C    6.000000
    97  C    6.000000
    98  C    6.000000
    99  C    6.000000
   100  C    6.000000
   101  O    8.000000
   102  C    6.000000
   103  N    7.000000
   104  C    6.000000
   105  C    6.000000
   106  C    6.000000
   107  C    6.000000
   108  C    6.000000
   109  C    6.000000
   110  C    6.000000
   111  N    7.000000
   112  C    6.000000
   113  C    6.000000
   114  C    6.000000
   115  C    6.000000
   116  C    6.000000
   117  C    6.000000
   118  O    8.000000
   119  C    6.000000
   120  C    6.000000
   121  O    8.000000
   122  O    8.000000
   123  C    6.000000
   124  H    1.000000
   125  H    1.000000
   126  H    1.000000
   127  H    1.000000
   128  H    1.000000
   129  H    1.000000
   130  H    1.000000
   131  H    1.000000
   132  H    1.000000
   133  H    1.000000
   134  H    1.000000
   135  H    1.000000
   136  H    1.000000
   137  H    1.000000
   138  H    1.000000
   139  H    1.000000
   140  H    1.000000
   141  H    1.000000
   142  H    1.000000
   143  H    1.000000
   144  H    1.000000
   145  H    1.000000
   146  H    1.000000
   147  H    1.000000
   148  H    1.000000
   149  H    1.000000
   150  H    1.000000
   151  H    1.000000
   152  H    1.000000
   153  H    1.000000
   154  H    1.000000
   155  H    1.000000
   156  H    1.000000
   157  H    1.000000
   158  H    1.000000
 Sum of Mulliken charges = 624.00000

 Dipole moment (field-independent basis, Debye):
    X=              0.0000    Y=             -0.0000    Z=              0.0000  Tot=              0.0000
 Quadrupole moment (field-independent basis, Debye-Ang):
   XX=              0.0000   YY=             -0.0000   ZZ=              0.0000
   XY=             -0.0000   XZ=              0.0000   YZ=             -0.0000

 Normal termination of Gaussian 16 at Thu Oct 14 06:35:17 2021.
