 Gaussian 16, Revision A.03,
 Gaussian 16:  ES64L-G16RevA.03 25-Dec-2016

 --------------------------------------------------------
 #p PBE1PBE/Def2SVP td=(nstates=5) density=(transition=1)
 --------------------------------------------------------

 --------------------------------
 TDDFT excited states in gaussian
 --------------------------------
 Symbolic Z-matrix:
 Charge =  0 Multiplicity = 1

                         Standard orientation:
 ---------------------------------------------------------------------
 Center     Atomic      Atomic             Coordinates (Angstroms)
 Number     Number       Type             X           Y           Z
 ---------------------------------------------------------------------
      1         12           0       13.011284    0.157749    0.219345
      2          6           0        9.887128   -1.079730   -0.667025
      3          6           0       14.098316   -0.382636   -2.923242
      4          6           0       16.193340    0.610161    1.272424
      5          6           0       12.056672   -0.090723    3.622392
      6          7           0       12.011939   -0.551807   -1.520555
      7          6           0       10.696081   -0.873455   -1.772720
      8          6           0       10.511540   -1.283499   -3.259763
      9          6           0       11.988504   -1.545346   -3.687766
     10          6           0       12.762407   -0.679056   -2.704931
     11          6           0       12.447277   -3.042384   -3.582871
     12          6           0        9.652199   -0.203926   -3.942883
     13          6           0        8.617108   -0.738285   -4.857979
     14          1           0        7.521406    0.182342   -5.154628
     15          7           0       14.819098    0.331493   -0.756268
     16          6           0       15.034648    0.127882   -2.081625
     17          6           0       16.330430    0.661192   -2.419272
     18          6           0       16.958293    0.963704   -1.157365
     19          6           0       16.000718    0.551236   -0.127030
     20          6           0       16.867622    0.708027   -3.804786
     21          6           0       18.405371    1.447192   -0.815701
     22          8           0       18.781606    1.669173    0.336973
     23          6           0       19.382698    1.808407   -1.899178
     24          7           0       14.018106   -0.099734    2.202645
     25          6           0       15.374457    0.300074    2.349111
     26          6           0       15.807080    0.423302    3.772647
     27          6           0       14.394485    0.405608    4.442126
     28          6           0       13.393367    0.113018    3.327637
     29          6           0       16.783659   -0.705216    4.248025
     30          6           0       14.022380    1.757997    5.152848
     31          6           0       14.183756    3.036378    4.291409
     32          7           0       11.308807   -0.347354    1.295324
     33          6           0       11.049038   -0.353313    2.674527
     34          6           0        9.701059   -0.754938    2.829038
     35          6           0        9.222837   -1.014129    1.550618
     36          6           0       10.230336   -0.764813    0.678087
     37          6           0        8.957708   -0.819438    4.125157
     38          6           0        8.122621   -1.501737    0.860065
     39          8           0        7.020851   -1.882983    1.295496
     40          6           0        8.433609   -1.583087   -0.664891
     41          6           0        7.370051   -0.634901   -1.301565
     42          8           0        7.342823    0.602929   -1.181856
     43          8           0        6.467656   -1.417877   -2.013333
     44          6           0        5.207831   -0.777726   -2.508915
     45          1           0       14.354790   -0.689722   -3.939375
     46          1           0       17.115388    0.886105    1.789689
     47          1           0       11.647264    0.016275    4.629122
     48          1           0        9.891969   -2.176776   -3.331575
     49          1           0       12.147469   -1.138678   -4.686053
     50          1           0       11.678498   -3.762296   -3.300696
     51          1           0       13.170882   -3.164861   -2.777972
     52          1           0       12.800133   -3.368060   -4.561190
     53          1           0       10.334801    0.343565   -4.591308
     54          1           0        9.220711    0.419112   -3.158998
     55          1           0        8.172020   -1.584249   -4.333942
     56          1           0        9.110924   -1.127522   -5.748121
     57          1           0       16.071130    0.627460   -4.544277
     58          1           0       17.708912    0.016860   -3.866036
     59          1           0       17.294748    1.693700   -3.989809
     60          1           0       20.360389    1.671049   -1.436715
     61          1           0       19.287247    2.859266   -2.173431
     62          1           0       19.309412    1.139207   -2.757005
     63          1           0       16.282368    1.376238    4.009459
     64          1           0       14.363833   -0.405385    5.170475
     65          1           0       16.684845   -1.561703    3.580570
     66          1           0       16.637080   -1.087962    5.258159
     67          1           0       17.843776   -0.450103    4.248405
     68          1           0       14.604567    1.777384    6.074300
     69          1           0       12.993731    1.595782    5.474649
     70          1           0       13.249855    3.587382    4.178606
     71          1           0       14.566915    2.713065    3.323145
     72          1           0       14.900498    3.740031    4.713734
     73          1           0        8.584297   -1.840722    4.199742
     74          1           0        8.172017   -0.064590    4.093983
     75          1           0        9.562486   -0.673131    5.020194
     76          1           0        8.240312   -2.602998   -0.996271
     77          1           0        4.685569   -0.416248   -1.623385
     78          1           0        4.511410   -1.398372   -3.072654
     79          1           0        5.684131    0.003643   -3.101181
     80         12           0      -12.586641   -0.478914   -0.145260
     81          6           0      -11.966293    2.993262    0.209544
     82          6           0       -9.227735   -0.936694   -0.334486
     83          6           0      -13.156764   -3.794271    0.347435
     84          6           0      -15.915721    0.146131    0.589100
     85          7           0      -10.864617    0.963435    0.101372
     86          6           0      -10.800462    2.331256    0.133517
     87          6           0       -9.403889    2.825407    0.053855
     88          6           0       -8.593833    1.543187   -0.458398
     89          6           0       -9.587766    0.460185   -0.211393
     90          6           0       -8.173415    1.681954   -1.912695
     91          6           0       -9.038504    3.386026    1.437265
     92          6           0       -8.493694    4.874776    1.505971
     93          1           0       -7.129420    5.207778    2.181669
     94          7           0      -11.419754   -2.175808   -0.047898
     95          6           0      -10.032213   -2.143311   -0.244596
     96          6           0       -9.577208   -3.496772   -0.354429
     97          6           0      -10.685733   -4.381216   -0.129591
     98          6           0      -11.839242   -3.450429   -0.004719
     99          6           0       -8.121302   -3.806748   -0.677923
    100          6           0      -10.701124   -5.892610   -0.077534
    101          8           0       -9.591365   -6.418219   -0.381916
    102          6           0      -11.841938   -6.838482    0.393298
    103          7           0      -14.312773   -1.699682    0.391601
    104          6           0      -14.290606   -3.046540    0.498342
    105          6           0      -15.661419   -3.650153    0.903603
    106          6           0      -16.574420   -2.376210    0.869317
    107          6           0      -15.502534   -1.207874    0.648077
    108          6           0      -16.057797   -4.728844   -0.088492
    109          6           0      -17.380806   -2.129974    2.107815
    110          6           0      -18.863101   -2.299060    1.912524
    111          7           0      -13.776860    1.138910    0.133873
    112          6           0      -15.145975    1.305873    0.377618
    113          6           0      -15.532500    2.619269    0.269621
    114          6           0      -14.317523    3.326772    0.165257
    115          6           0      -13.286547    2.390015    0.166607
    116          6           0      -16.975246    3.063472    0.153357
    117          6           0      -13.745374    4.684831   -0.034390
    118          8           0      -14.305799    5.729921   -0.153520
    119          6           0      -12.194082    4.436142    0.083612
    120          6           0      -11.527905    5.302628   -0.962834
    121          8           0      -10.933259    6.354087   -0.725607
    122          8           0      -11.641344    4.704842   -2.241519
    123          6           0      -10.904678    5.440898   -3.268543
    124          1           0       -8.182612   -1.081737   -0.616694
    125          1           0      -13.403314   -4.856564    0.413732
    126          1           0      -16.878497    0.407957    1.031465
    127          1           0       -9.346147    3.632295   -0.676801
    128          1           0       -7.692123    1.448744    0.146077
    129          1           0       -8.919669    2.179785   -2.530342
    130          1           0       -8.088917    0.682364   -2.340355
    131          1           0       -7.197219    2.148194   -2.045775
    132          1           0       -8.285541    2.721731    1.861114
    133          1           0       -9.834315    3.290064    2.175900
    134          1           0       -9.288309    5.335671    2.093283
    135          1           0       -8.609944    5.372354    0.543882
    136          1           0       -7.447986   -3.263224   -0.015086
    137          1           0       -7.955588   -3.447220   -1.693421
    138          1           0       -7.782135   -4.834378   -0.540336
    139          1           0      -12.590101   -6.732418   -0.391614
    140          1           0      -12.220416   -6.475772    1.349034
    141          1           0      -11.504787   -7.866493    0.528696
    142          1           0      -15.667456   -4.119455    1.887057
    143          1           0      -17.165143   -2.367965   -0.046335
    144          1           0      -15.215820   -5.414628   -0.184204
    145          1           0      -16.256961   -4.249949   -1.047723
    146          1           0      -16.985185   -5.280080    0.062377
    147          1           0      -17.283622   -1.117157    2.498794
    148          1           0      -17.133269   -2.731617    2.982152
    149          1           0      -19.218856   -3.010191    2.657046
    150          1           0      -19.113844   -2.755628    0.955041
    151          1           0      -19.427334   -1.366249    1.939764
    152          1           0      -16.944988    4.076951   -0.247993
    153          1           0      -17.485765    3.068235    1.116103
    154          1           0      -17.432101    2.341294   -0.522916
    155          1           0      -11.957703    4.947686    1.017361
    156          1           0      -10.604423    4.772797   -4.075866
    157          1           0       -9.942185    5.788048   -2.895469
    158          1           0      -11.450444    6.304083   -3.650523
 ---------------------------------------------------------------------

 SCF Done:  E(RPBE1PBE) =  -4067.38071404     A.U. after   16 cycles

 Excitation energies and oscillator strengths:

 Excited State   1:      Singlet-A      1.8046 eV  687.03 nm  f=0.0000  <S**2>=0.000
     312 -> 313        0.70710
 This state for optimization and/or second-order correction.
 Total Energy, E(TD-HF/TD-DFT) =  -4067.31439440
 Copying the excited state density for this state as the 1-particle RhoCI density.

 Excited State   2:      Singlet-A      1.8234 eV  679.95 nm  f=0.4008  <S**2>=0.000
     310 -> 316       -0.15377
     312 -> 314        0.69405
     312 <- 314       -0.11715

 Excited State   3:      Singlet-A      1.8487 eV  670.65 nm  f=0.3124  <S**2>=0.000
     309 -> 315        0.16562
     311 -> 313        0.69145
     311 <- 313       -0.11216

 Excited State   4:      Singlet-A      1.9786 eV  626.63 nm  f=0.0000  <S**2>=0.000
     311 -> 314        0.70709

 Excited State   5:      Singlet-A      2.2326 eV  555.34 nm  f=0.1165  <S**2>=0.000
     310 -> 314        0.65119
     312 -> 316        0.24356

 The electronic state is 1-A.
 Alpha  occ. eigenvalues --  -46.92361 -46.91716 -19.26241 -19.25423 -19.21213
 Alpha  occ. eigenvalues --  -19.20243 -19.20049 -19.18993 -19.18466 -19.17867
 Alpha  occ. eigenvalues --  -14.41873 -14.41633 -14.41553 -14.40928 -14.39653
 Alpha  occ. eigenvalues --  -14.39029 -14.38677 -14.38160 -10.37368 -10.37085
 Alpha  occ. eigenvalues --  -10.32780 -10.32628 -10.32468 -10.30739 -10.29629
 Alpha  occ. eigenvalues --  -10.29201 -10.28860 -10.28857 -10.28668 -10.28485
 Alpha  occ. eigenvalues --  -10.28374 -10.28247 -10.28230 -10.28226 -10.28133
 Alpha  occ. eigenvalues --  -10.28008 -10.27864 -10.26958 -10.26948 -10.26739
 Alpha  occ. eigenvalues --  -10.26599 -10.26266 -10.26143 -10.26142 -10.26129
 Alpha  occ. eigenvalues --  -10.26050 -10.26013 -10.25966 -10.25961 -10.25944
 Alpha  occ. eigenvalues --  -10.25915 -10.25774 -10.25773 -10.25724 -10.25516
 Alpha  occ. eigenvalues --  -10.25395 -10.25380 -10.25344 -10.25248 -10.25002
 Alpha  occ. eigenvalues --  -10.24989 -10.24988 -10.24844 -10.24619 -10.24592
 Alpha  occ. eigenvalues --  -10.24551 -10.24482 -10.24297 -10.24276 -10.24192
 Alpha  occ. eigenvalues --  -10.24019 -10.24000 -10.23918 -10.23907 -10.23725
 Alpha  occ. eigenvalues --  -10.23594 -10.23524 -10.23356 -10.23309 -10.23237
 Alpha  occ. eigenvalues --  -10.23098 -10.22977 -10.22850 -10.22740 -10.22582
 Alpha  occ. eigenvalues --  -10.21393  -3.14504  -3.13890  -1.87324  -1.86883
 Alpha  occ. eigenvalues --   -1.86732  -1.86710  -1.86267  -1.86115  -1.10295
 Alpha  occ. eigenvalues --   -1.09163  -1.06807  -1.04232  -1.02753  -1.02623
 Alpha  occ. eigenvalues --   -1.02258  -1.01460  -0.99830  -0.99447  -0.98899
 Alpha  occ. eigenvalues --   -0.98600  -0.98166  -0.97941  -0.97353  -0.96857
 Alpha  occ. eigenvalues --   -0.87644  -0.86892  -0.84157  -0.83586  -0.83463
 Alpha  occ. eigenvalues --   -0.83318  -0.83305  -0.82893  -0.82138  -0.82114
 Alpha  occ. eigenvalues --   -0.81437  -0.81367  -0.80846  -0.80185  -0.79052
 Alpha  occ. eigenvalues --   -0.78890  -0.78569  -0.77801  -0.76884  -0.76465
 Alpha  occ. eigenvalues --   -0.76047  -0.75798  -0.75262  -0.74966  -0.74784
 Alpha  occ. eigenvalues --   -0.74727  -0.72554  -0.72095  -0.71706  -0.71369
 Alpha  occ. eigenvalues --   -0.71222  -0.71128  -0.70754  -0.70339  -0.69827
 Alpha  occ. eigenvalues --   -0.69818  -0.67939  -0.67679  -0.66623  -0.66474
 Alpha  occ. eigenvalues --   -0.64133  -0.63730  -0.63334  -0.63192  -0.62064
 Alpha  occ. eigenvalues --   -0.61984  -0.61628  -0.60943  -0.60652  -0.60099
 Alpha  occ. eigenvalues --   -0.59894  -0.59856  -0.59453  -0.59084  -0.59030
 Alpha  occ. eigenvalues --   -0.58562  -0.57638  -0.56170  -0.55030  -0.54574
 Alpha  occ. eigenvalues --   -0.54457  -0.54312  -0.54161  -0.53765  -0.53596
 Alpha  occ. eigenvalues --   -0.53108  -0.52669  -0.52171  -0.51363  -0.51335
 Alpha  occ. eigenvalues --   -0.50783  -0.50560  -0.50293  -0.50161  -0.50145
 Alpha  occ. eigenvalues --   -0.49875  -0.49471  -0.49387  -0.49317  -0.48932
 Alpha  occ. eigenvalues --   -0.48404  -0.48184  -0.48070  -0.47763  -0.47651
 Alpha  occ. eigenvalues --   -0.47555  -0.47436  -0.47344  -0.47022  -0.46790
 Alpha  occ. eigenvalues --   -0.46489  -0.46468  -0.46150  -0.46118  -0.46029
 Alpha  occ. eigenvalues --   -0.45684  -0.45467  -0.45107  -0.45058  -0.44942
 Alpha  occ. eigenvalues --   -0.44784  -0.44626  -0.44449  -0.44225  -0.44146
 Alpha  occ. eigenvalues --   -0.44035  -0.43831  -0.43594  -0.43541  -0.43371
 Alpha  occ. eigenvalues --   -0.43254  -0.43184  -0.42950  -0.42740  -0.42655
 Alpha  occ. eigenvalues --   -0.42595  -0.42375  -0.42337  -0.42063  -0.41838
 Alpha  occ. eigenvalues --   -0.41675  -0.41583  -0.41329  -0.41278  -0.41119
 Alpha  occ. eigenvalues --   -0.41050  -0.40770  -0.40704  -0.40599  -0.40536
 Alpha  occ. eigenvalues --   -0.40429  -0.40267  -0.40158  -0.40030  -0.39895
 Alpha  occ. eigenvalues --   -0.39622  -0.39379  -0.39164  -0.38944  -0.38899
 Alpha  occ. eigenvalues --   -0.38623  -0.38527  -0.38437  -0.38311  -0.38226
 Alpha  occ. eigenvalues --   -0.38091  -0.37974  -0.37848  -0.37587  -0.37515
 Alpha  occ. eigenvalues --   -0.37274  -0.37214  -0.37168  -0.37113  -0.36858
 Alpha  occ. eigenvalues --   -0.36783  -0.36541  -0.36511  -0.36383  -0.36354
 Alpha  occ. eigenvalues --   -0.36157  -0.35972  -0.35952  -0.35761  -0.35501
 Alpha  occ. eigenvalues --   -0.35106  -0.35006  -0.34884  -0.34008  -0.33993
 Alpha  occ. eigenvalues --   -0.33710  -0.33206  -0.33147  -0.33031  -0.32710
 Alpha  occ. eigenvalues --   -0.32396  -0.32337  -0.32153  -0.31918  -0.31629
 Alpha  occ. eigenvalues --   -0.31392  -0.31014  -0.30250  -0.29806  -0.29301
 Alpha  occ. eigenvalues --   -0.29113  -0.28802  -0.28719  -0.27369  -0.26994
 Alpha  occ. eigenvalues --   -0.26112  -0.25653  -0.25618  -0.25436  -0.25317
 Alpha  occ. eigenvalues --   -0.25045  -0.25028  -0.24802  -0.21326  -0.21165
 Alpha  occ. eigenvalues --   -0.19224  -0.18843
 Alpha virt. eigenvalues --   -0.11692  -0.11427  -0.05316  -0.05132  -0.03928
 Alpha virt. eigenvalues --   -0.03667  -0.02063  -0.02021  -0.00905  -0.00508
 Alpha virt. eigenvalues --   -0.00419   0.00368   0.00727   0.00784   0.01466

 Mulliken charges:
               1
     1  Mg  12.000000
     2  C    6.000000
     3  C    6.000000
     4  C    6.000000
     5  C    6.000000
     6  N    7.000000
     7  C    6.000000
     8  C    6.000000
     9  C    6.000000
    10  C    6.000000
    11  C    6.000000
    12  C    6.000000
    13  C    6.000000
    14  H    1.000000
    15  N    7.000000
    16  C    6.000000
    17  C    6.000000
    18  C    6.000000
    19  C    6.000000
    20  C    6.000000
    21  C    6.000000
    22  O    8.000000
    23  C    6.000000
    24  N    7.000000
    25  C    6.000000
    26  C    6.000000
    27  C    6.000000
    28  C    6.000000
    29  C    6.000000
    30  C    6.000000
    31  C    6.000000
    32  N    7.000000
    33  C    6.000000
    34  C    6.000000
    35  C    6.000000
    36  C    6.000000
    37  C    6.000000
    38  C    6.000000
    39  O    8.000000
    40  C    6.000000
    41  C    6.000000
    42  O    8.000000
    43  O    8.000000
    44  C    6.000000
    45  H    1.000000
    46  H    1.000000
    47  H    1.000000
    48  H    1.000000
    49  H    1.000000
    50  H    1.000000
    51  H    1.000000
    52  H    1.000000
    53  H    1.000000
    54  H    1.000000
    55  H    1.000000
    56  H    1.000000
    57  H    1.000000
    58  H    1.000000
    59  H    1.000000
    60  H    1.000000
    61  H    1.000000
    62  H    1.000000
    63  H    1.000000
    64  H    1.000000
    65  H    1.000000
    66  H    1.000000
    67  H    1.000000
    68  H    1.000000
    69  H    1.000000
    70  H    1.000000
    71  H    1.000000
    72  H    1.000000
    73  H    1.000000
    74  H    1.000000
    75  H    1.000000
    76  H    1.000000
    77  H    1.000000
    78  H    1.000000
    79  H    1.000000
    80  Mg  12.000000
    81  C    6.000000
    82  C    6.000000
    83  C    6.000000
    84  C    6.000000
    85  N    7.000000
    86  C    6.000000
    87  C    6.000000
    88  C    6.000000
    89  C    6.000000
    90  C    6.000000
    91  C    6.000000
    92  C    6.000000
    93  H    1.000000
    94  N    7.000000
    95  C    6.000000
    96  C    6.000000
    97  C    6.000000
    98  C    6.000000
    99  C    6.000000
   100  C    6.000000
   101  O    8.000000
   102  C    6.000000
   103  N    7.000000
   104  C    6.000000
   105  C    6.000000
   106  C    6.000000
   107  C    6.000000
   108  C    6.000000
   109  C    6.000000
   110  C    6.000000
   111  N    7.000000
   112  C    6.000000
   113  C    6.000000
   114  C    6.000000
   115  C    6.000000
   116  C    6.000000
   117  C    6.000000
   118  O    8.000000
   119  C    6.000000
   120  C    6.000000
   121  O    8.000000
   122  O    8.000000
   123  C    6.000000
   124  H    1.000000
   125  H    1.000000
   126  H    1.000000
   127  H    1.000000
   128  H    1.000000
   129  H    1.000000
   130  H    1.000000
   131  H    1.000000
   132  H    1.000000
   133  H    1.000000
   134  H    1.000000
   135  H    1.000000
   136  H    1.000000
   137  H    1.000000
   138  H    1.000000
   139  H    1.000000
   140  H    1.000000
   141  H    1.000000
   142  H    1.000000
   143  H    1.000000
   144  H    1.000000
   145  H    1.000000
   146  H    1.000000
   147  H    1.000000
   148  H    1.000000
   149  H    1.000000
   150  H    1.000000
   151  H    1.000000
   152  H    1.000000
   153  H    1.000000
   154  H    1.000000
   155  H    1.000000
   156  H    1.000000
   157  H    1.000000
   158  H    1.000000
 Sum of Mulliken charges = 624.00000

 Dipole moment (field-independent basis, Debye):
    X=             -0.0000    Y=              0.0000    Z=              0.0000  Tot=              0.0000
 Quadrupole moment (field-independent basis, Debye-Ang):
   XX=              0.0000   YY=             -0.0000   ZZ=              0.0000
   XY=             -0.0000   XZ=             -0.0000   YZ=              0.0000

 Normal termination of Gaussian 16 at Thu Oct 14 16:21:34 2021.
