 Gaussian 16, Revision A.03,
 Gaussian 16:  ES64L-G16RevA.03 25-Dec-2016

 --------------------------------------------------------
 #p PBE1PBE/Def2SVP td=(nstates=5) density=(transition=1)
 --------------------------------------------------------

 --------------------------------
 TDDFT excited states in gaussian
 --------------------------------
 Symbolic Z-matrix:
 Charge =  0 Multiplicity = 1

                         Standard orientation:
 ---------------------------------------------------------------------
 Center     Atomic      Atomic             Coordinates (Angstroms)
 Number     Number       Type             X           Y           Z
 ---------------------------------------------------------------------
      1         12           0       24.745411   -0.641701    0.333425
      2          6           0       24.495802    2.210445   -1.496454
      3          6           0       24.647354    1.027635    3.351169
      4          6           0       25.205868   -3.622225    1.954482
      5          6           0       25.300747   -2.456317   -2.747103
      6          7           0       24.799606    1.390249    0.834915
      7          6           0       24.425227    2.424263   -0.087332
      8          6           0       24.050770    3.660016    0.628516
      9          6           0       24.519228    3.316013    2.113243
     10          6           0       24.682476    1.812851    2.151263
     11          6           0       25.889723    4.050234    2.531399
     12          6           0       22.581117    4.128786    0.398403
     13          6           0       22.411731    5.590187    0.133669
     14          1           0       23.321376    6.560613    0.985552
     15          7           0       24.832169   -1.226225    2.378755
     16          6           0       24.782640   -0.347276    3.419601
     17          6           0       24.854973   -1.104062    4.622215
     18          6           0       24.931992   -2.509404    4.275369
     19          6           0       24.921399   -2.545978    2.774565
     20          6           0       24.937275   -0.434512    6.011439
     21          6           0       24.968882   -3.764304    5.090359
     22          8           0       25.141548   -4.926132    4.705128
     23          6           0       24.703072   -3.569184    6.631041
     24          7           0       25.306996   -2.784932   -0.301824
     25          6           0       25.324198   -3.785612    0.543074
     26          6           0       25.342718   -5.141463   -0.159752
     27          6           0       25.372647   -4.746051   -1.663796
     28          6           0       25.342547   -3.221049   -1.583343
     29          6           0       26.591063   -6.071661    0.261249
     30          6           0       24.081831   -5.346659   -2.376737
     31          6           0       22.663721   -4.831987   -2.026610
     32          7           0       25.037247   -0.207563   -1.705584
     33          6           0       25.190974   -1.041853   -2.796703
     34          6           0       25.079664   -0.184480   -3.994329
     35          6           0       24.797726    1.090291   -3.604444
     36          6           0       24.785709    1.015049   -2.164358
     37          6           0       25.396481   -0.637803   -5.377771
     38          6           0       24.528770    2.465173   -4.025003
     39          8           0       24.476294    2.970573   -5.133718
     40          6           0       24.334157    3.229844   -2.642701
     41          6           0       25.410562    4.236807   -2.547627
     42          8           0       26.638472    4.053712   -2.616070
     43          8           0       24.738611    5.430064   -2.375948
     44          6           0       25.604576    6.575832   -2.068430
     45          1           0       24.566794    1.512643    4.326071
     46          1           0       25.229114   -4.548579    2.533353
     47          1           0       25.388336   -2.997857   -3.690642
     48          1           0       24.691992    4.427387    0.192988
     49          1           0       23.717722    3.606633    2.791701
     50          1           0       26.173250    4.861224    1.860572
     51          1           0       26.681429    3.317325    2.376642
     52          1           0       25.734762    4.291491    3.582190
     53          1           0       21.978711    3.890848    1.275144
     54          1           0       22.285826    3.559209   -0.482667
     55          1           0       21.415022    5.955121    0.378514
     56          1           0       22.499837    6.002470   -0.871592
     57          1           0       24.002009   -0.032967    6.401317
     58          1           0       25.712271    0.316580    5.859562
     59          1           0       25.179565   -1.137068    6.808529
     60          1           0       25.581704   -3.111271    7.085447
     61          1           0       24.323640   -4.510705    7.027698
     62          1           0       23.838414   -2.941981    6.848992
     63          1           0       24.406320   -5.655005    0.056968
     64          1           0       26.247287   -5.119521   -2.196441
     65          1           0       26.177958   -6.849691    0.904213
     66          1           0       27.316372   -5.491042    0.832176
     67          1           0       27.141358   -6.616484   -0.504790
     68          1           0       24.000879   -6.433059   -2.344808
     69          1           0       24.248099   -5.024250   -3.405118
     70          1           0       22.342422   -4.375575   -2.962958
     71          1           0       22.662417   -4.143126   -1.182808
     72          1           0       21.964043   -5.619762   -1.747490
     73          1           0       24.715263   -0.040973   -5.983484
     74          1           0       25.242566   -1.707668   -5.519716
     75          1           0       26.360365   -0.206717   -5.645141
     76          1           0       23.389372    3.730301   -2.853236
     77          1           0       24.898226    7.406168   -2.091939
     78          1           0       26.277058    6.676758   -2.920304
     79          1           0       26.234651    6.470804   -1.184970
     80         12           0      -25.367579   -0.500544   -0.260035
     81          6           0      -23.120007    2.233445   -0.276024
     82          6           0      -27.209614    1.151113    2.035221
     83          6           0      -27.336271   -3.115294   -0.184912
     84          6           0      -22.892442   -2.333339   -2.099166
     85          7           0      -25.149337    1.464956    0.877101
     86          6           0      -24.286639    2.472886    0.480108
     87          6           0      -24.756526    3.726429    1.135585
     88          6           0      -25.670949    3.255703    2.266985
     89          6           0      -26.088070    1.867251    1.720805
     90          6           0      -24.868116    3.103872    3.613132
     91          6           0      -25.494010    4.815537    0.185560
     92          6           0      -25.179455    6.335733    0.333599
     93          1           0      -25.230485    6.924774    1.773004
     94          7           0      -27.059131   -0.899476    0.824658
     95          6           0      -27.637737   -0.100755    1.672205
     96          6           0      -28.805882   -0.796971    2.238784
     97          6           0      -29.014499   -1.975461    1.460078
     98          6           0      -27.760376   -2.062400    0.659288
     99          6           0      -29.726979   -0.357700    3.434622
    100          6           0      -30.174405   -2.969440    1.410182
    101          8           0      -30.161953   -4.029271    0.755383
    102          6           0      -31.282725   -2.784153    2.334170
    103          7           0      -25.023888   -2.548802   -0.924979
    104          6           0      -26.100004   -3.430160   -0.862048
    105          6           0      -25.765211   -4.706658   -1.726176
    106          6           0      -24.424728   -4.333516   -2.406944
    107          6           0      -24.094263   -2.962803   -1.812101
    108          6           0      -25.804551   -6.003277   -0.916976
    109          6           0      -24.395823   -4.419531   -3.953743
    110          6           0      -23.115508   -4.974236   -4.620715
    111          7           0      -23.407729   -0.182656   -1.032217
    112          6           0      -22.514590   -1.013735   -1.701027
    113          6           0      -21.386818   -0.225128   -2.127864
    114          6           0      -21.557841    1.030580   -1.543147
    115          6           0      -22.816533    1.044324   -0.881233
    116          6           0      -20.342492   -0.629630   -2.974053
    117          6           0      -21.004002    2.386353   -1.412233
    118          8           0      -20.003020    2.920373   -1.863052
    119          6           0      -22.032043    3.231743   -0.591361
    120          6           0      -21.295954    3.791921    0.612637
    121          8           0      -21.026458    3.345823    1.704871
    122          8           0      -21.056740    5.076727    0.218667
    123          6           0      -20.651441    6.052814    1.258124
    124          1           0      -27.862143    1.708679    2.710902
    125          1           0      -28.114350   -3.873696   -0.293286
    126          1           0      -22.238097   -2.796144   -2.840231
    127          1           0      -23.983936    4.346862    1.590437
    128          1           0      -26.596909    3.827280    2.325332
    129          1           0      -25.456263    3.318239    4.504812
    130          1           0      -24.058564    3.827006    3.715131
    131          1           0      -24.577649    2.054405    3.647458
    132          1           0      -26.569028    4.639507    0.204653
    133          1           0      -25.281658    4.588687   -0.859872
    134          1           0      -26.017152    6.793722   -0.193590
    135          1           0      -24.202080    6.403765   -0.144175
    136          1           0      -30.743263   -0.074375    3.161711
    137          1           0      -29.236264    0.488380    3.916531
    138          1           0      -29.950292   -1.139551    4.160577
    139          1           0      -31.705289   -1.783445    2.240255
    140          1           0      -30.961377   -2.949351    3.362619
    141          1           0      -32.093925   -3.421148    1.982976
    142          1           0      -26.491297   -4.714501   -2.539234
    143          1           0      -23.606284   -4.917508   -1.986435
    144          1           0      -24.816451   -6.189441   -0.494853
    145          1           0      -26.006612   -6.898443   -1.504288
    146          1           0      -26.392706   -5.839419   -0.014625
    147          1           0      -24.670646   -3.491777   -4.455345
    148          1           0      -25.208340   -5.046314   -4.323698
    149          1           0      -22.561168   -4.081740   -4.911356
    150          1           0      -23.467811   -5.463185   -5.529531
    151          1           0      -22.567561   -5.602399   -3.918922
    152          1           0      -19.383879   -0.112214   -2.943488
    153          1           0      -20.747033   -0.636725   -3.986667
    154          1           0      -20.102864   -1.646775   -2.666178
    155          1           0      -22.438815    4.029851   -1.212104
    156          1           0      -21.234416    6.946246    1.036324
    157          1           0      -19.601031    6.342753    1.263693
    158          1           0      -20.937043    5.686487    2.243847
 ---------------------------------------------------------------------

 SCF Done:  E(RPBE1PBE) =  -4067.36762307     A.U. after   16 cycles

 Excitation energies and oscillator strengths:

 Excited State   1:      Singlet-A      1.8382 eV  674.49 nm  f=0.3724  <S**2>=0.000
     309 -> 315        0.17969
     311 -> 313        0.69184
     311 <- 313       -0.10366
 This state for optimization and/or second-order correction.
 Total Energy, E(TD-HF/TD-DFT) =  -4067.30007078
 Copying the excited state density for this state as the 1-particle RhoCI density.

 Excited State   2:      Singlet-A      1.8849 eV  657.79 nm  f=0.3791  <S**2>=0.000
     310 -> 316       -0.17660
     312 -> 314        0.68858

 Excited State   3:      Singlet-A      1.9909 eV  622.75 nm  f=0.0000  <S**2>=0.000
     312 -> 313        0.70711

 Excited State   4:      Singlet-A      2.0588 eV  602.22 nm  f=0.0000  <S**2>=0.000
     311 -> 314        0.70711

 Excited State   5:      Singlet-A      2.2557 eV  549.64 nm  f=0.0508  <S**2>=0.000
     309 -> 313        0.62868
     311 -> 315       -0.31571

 The electronic state is 1-A.
 Alpha  occ. eigenvalues --  -46.92758 -46.92637 -19.26352 -19.25075 -19.20550
 Alpha  occ. eigenvalues --  -19.20270 -19.19935 -19.19545 -19.19426 -19.18938
 Alpha  occ. eigenvalues --  -14.41967 -14.41572 -14.41321 -14.40937 -14.39444
 Alpha  occ. eigenvalues --  -14.39220 -14.39079 -14.38682 -10.36599 -10.36261
 Alpha  occ. eigenvalues --  -10.32708 -10.32661 -10.32577 -10.32010 -10.29633
 Alpha  occ. eigenvalues --  -10.29583 -10.29463 -10.29081 -10.28707 -10.28586
 Alpha  occ. eigenvalues --  -10.28506 -10.28406 -10.28126 -10.28106 -10.27917
 Alpha  occ. eigenvalues --  -10.27720 -10.27604 -10.27569 -10.27389 -10.27362
 Alpha  occ. eigenvalues --  -10.27334 -10.27088 -10.26727 -10.26645 -10.26580
 Alpha  occ. eigenvalues --  -10.26302 -10.26150 -10.25952 -10.25874 -10.25743
 Alpha  occ. eigenvalues --  -10.25713 -10.25570 -10.25570 -10.25419 -10.25392
 Alpha  occ. eigenvalues --  -10.25388 -10.25372 -10.25372 -10.25356 -10.25271
 Alpha  occ. eigenvalues --  -10.25181 -10.25174 -10.25079 -10.25063 -10.25010
 Alpha  occ. eigenvalues --  -10.24964 -10.24888 -10.24727 -10.24386 -10.24231
 Alpha  occ. eigenvalues --  -10.24217 -10.24076 -10.24043 -10.23792 -10.23721
 Alpha  occ. eigenvalues --  -10.23334 -10.23283 -10.23280 -10.23201 -10.23120
 Alpha  occ. eigenvalues --  -10.23102 -10.23001 -10.22938 -10.22717 -10.22656
 Alpha  occ. eigenvalues --  -10.22594  -3.14730  -3.14626  -1.87567  -1.87469
 Alpha  occ. eigenvalues --   -1.87105  -1.86989  -1.86944  -1.86848  -1.10908
 Alpha  occ. eigenvalues --   -1.10768  -1.05089  -1.04369  -1.04151  -1.04015
 Alpha  occ. eigenvalues --   -1.02620  -1.02323  -0.99801  -0.99765  -0.98591
 Alpha  occ. eigenvalues --   -0.98573  -0.97706  -0.97434  -0.96767  -0.96315
 Alpha  occ. eigenvalues --   -0.87166  -0.86821  -0.83400  -0.83196  -0.83095
 Alpha  occ. eigenvalues --   -0.82790  -0.82314  -0.82298  -0.81917  -0.81712
 Alpha  occ. eigenvalues --   -0.81351  -0.81251  -0.81183  -0.80397  -0.78945
 Alpha  occ. eigenvalues --   -0.78528  -0.77903  -0.77677  -0.76988  -0.76682
 Alpha  occ. eigenvalues --   -0.76594  -0.75877  -0.75859  -0.75481  -0.74991
 Alpha  occ. eigenvalues --   -0.74129  -0.72669  -0.72341  -0.71765  -0.71675
 Alpha  occ. eigenvalues --   -0.71472  -0.71361  -0.70184  -0.70150  -0.69482
 Alpha  occ. eigenvalues --   -0.69308  -0.67005  -0.66938  -0.66650  -0.66286
 Alpha  occ. eigenvalues --   -0.64183  -0.63649  -0.63238  -0.63129  -0.62841
 Alpha  occ. eigenvalues --   -0.62206  -0.61831  -0.61736  -0.59988  -0.59855
 Alpha  occ. eigenvalues --   -0.59812  -0.59474  -0.59451  -0.59222  -0.58940
 Alpha  occ. eigenvalues --   -0.58916  -0.57123  -0.56549  -0.55003  -0.54827
 Alpha  occ. eigenvalues --   -0.54149  -0.53996  -0.53842  -0.53498  -0.53381
 Alpha  occ. eigenvalues --   -0.52962  -0.52504  -0.52409  -0.52112  -0.52093
 Alpha  occ. eigenvalues --   -0.50764  -0.50555  -0.50453  -0.50093  -0.49748
 Alpha  occ. eigenvalues --   -0.49527  -0.49448  -0.49033  -0.49030  -0.48292
 Alpha  occ. eigenvalues --   -0.48142  -0.48122  -0.47927  -0.47824  -0.47673
 Alpha  occ. eigenvalues --   -0.47644  -0.47408  -0.47012  -0.46979  -0.46914
 Alpha  occ. eigenvalues --   -0.46688  -0.46477  -0.46313  -0.46272  -0.46214
 Alpha  occ. eigenvalues --   -0.46149  -0.45898  -0.45649  -0.45406  -0.45402
 Alpha  occ. eigenvalues --   -0.44977  -0.44624  -0.44533  -0.44283  -0.44161
 Alpha  occ. eigenvalues --   -0.43962  -0.43955  -0.43574  -0.43475  -0.43445
 Alpha  occ. eigenvalues --   -0.43259  -0.43201  -0.43114  -0.42880  -0.42757
 Alpha  occ. eigenvalues --   -0.42367  -0.42341  -0.42103  -0.42085  -0.42001
 Alpha  occ. eigenvalues --   -0.41815  -0.41603  -0.41473  -0.41377  -0.41337
 Alpha  occ. eigenvalues --   -0.41019  -0.40878  -0.40654  -0.40602  -0.40333
 Alpha  occ. eigenvalues --   -0.40311  -0.39943  -0.39781  -0.39663  -0.39502
 Alpha  occ. eigenvalues --   -0.39498  -0.39300  -0.39198  -0.38814  -0.38746
 Alpha  occ. eigenvalues --   -0.38656  -0.38390  -0.38249  -0.38013  -0.37843
 Alpha  occ. eigenvalues --   -0.37800  -0.37737  -0.37681  -0.37650  -0.37557
 Alpha  occ. eigenvalues --   -0.37192  -0.37092  -0.37062  -0.37023  -0.36885
 Alpha  occ. eigenvalues --   -0.36855  -0.36693  -0.36501  -0.36425  -0.36397
 Alpha  occ. eigenvalues --   -0.36181  -0.35773  -0.35663  -0.35438  -0.35366
 Alpha  occ. eigenvalues --   -0.35112  -0.34743  -0.34729  -0.34619  -0.34475
 Alpha  occ. eigenvalues --   -0.33717  -0.32857  -0.32685  -0.32520  -0.32409
 Alpha  occ. eigenvalues --   -0.32147  -0.31733  -0.31639  -0.31475  -0.31406
 Alpha  occ. eigenvalues --   -0.31375  -0.30968  -0.29630  -0.29606  -0.29379
 Alpha  occ. eigenvalues --   -0.29143  -0.29015  -0.28616  -0.26908  -0.26873
 Alpha  occ. eigenvalues --   -0.26499  -0.26333  -0.25945  -0.25929  -0.25652
 Alpha  occ. eigenvalues --   -0.25433  -0.25372  -0.24965  -0.21295  -0.20927
 Alpha  occ. eigenvalues --   -0.18660  -0.18642
 Alpha virt. eigenvalues --   -0.11062  -0.10830  -0.05789  -0.05576  -0.04448
 Alpha virt. eigenvalues --   -0.04277  -0.02271  -0.02166  -0.00901  -0.00863
 Alpha virt. eigenvalues --    0.00073   0.00808   0.01047   0.01105   0.01252

 Mulliken charges:
               1
     1  Mg  12.003025
     2  C    6.019947
     3  C    5.980630
     4  C    5.996753
     5  C    6.016329
     6  N    7.002025
     7  C    5.964815
     8  C    6.011898
     9  C    5.989828
    10  C    6.034688
    11  C    5.999055
    12  C    6.002438
    13  C    6.003973
    14  H    0.991628
    15  N    6.992526
    16  C    6.035817
    17  C    6.021485
    18  C    6.016644
    19  C    6.024116
    20  C    5.999945
    21  C    6.012137
    22  O    8.030237
    23  C    5.995718
    24  N    7.003197
    25  C    6.025343
    26  C    5.991072
    27  C    6.010605
    28  C    5.967669
    29  C    5.998936
    30  C    6.002180
    31  C    6.004244
    32  N    7.002129
    33  C    5.957548
    34  C    5.973716
    35  C    5.996990
    36  C    5.969399
    37  C    6.001363
    38  C    5.982363
    39  O    7.973467
    40  C    5.997953
    41  C    5.996945
    42  O    7.995620
    43  O    7.998339
    44  C    6.001446
    45  H    1.007363
    46  H    1.006847
    47  H    0.991886
    48  H    0.998815
    49  H    1.000796
    50  H    1.013587
    51  H    1.000272
    52  H    0.999001
    53  H    0.988054
    54  H    1.005029
    55  H    0.996449
    56  H    1.003222
    57  H    1.019384
    58  H    1.014295
    59  H    1.012448
    60  H    1.008675
    61  H    1.013710
    62  H    1.007684
    63  H    1.000120
    64  H    0.997686
    65  H    0.997861
    66  H    0.996936
    67  H    1.008938
    68  H    0.990742
    69  H    1.004399
    70  H    1.005386
    71  H    0.991600
    72  H    0.993480
    73  H    0.985600
    74  H    0.982422
    75  H    0.980740
    76  H    0.992720
    77  H    0.995705
    78  H    0.998648
    79  H    0.993317
    80  Mg  12.000011
    81  C    6.000032
    82  C    6.000078
    83  C    5.999946
    84  C    5.999909
    85  N    6.999958
    86  C    6.000091
    87  C    5.999980
    88  C    6.000021
    89  C    5.999931
    90  C    5.999992
    91  C    5.999982
    92  C    6.000002
    93  H    1.000003
    94  N    7.000010
    95  C    5.999854
    96  C    5.999940
    97  C    5.999936
    98  C    5.999991
    99  C    6.000018
   100  C    5.999957
   101  O    7.999929
   102  C    6.000005
   103  N    6.999991
   104  C    5.999911
   105  C    5.999999
   106  C    5.999977
   107  C    6.000100
   108  C    6.000026
   109  C    5.999991
   110  C    5.999998
   111  N    6.999958
   112  C    6.000164
   113  C    6.000058
   114  C    6.000026
   115  C    6.000035
   116  C    5.999980
   117  C    6.000086
   118  O    8.000120
   119  C    5.999959
   120  C    6.000006
   121  O    8.000009
   122  O    8.000012
   123  C    5.999997
   124  H    0.999961
   125  H    0.999995
   126  H    1.000044
   127  H    1.000005
   128  H    1.000005
   129  H    0.999991
   130  H    0.999960
   131  H    0.999990
   132  H    1.000044
   133  H    1.000005
   134  H    1.000021
   135  H    0.999994
   136  H    0.999942
   137  H    0.999942
   138  H    0.999929
   139  H    0.999988
   140  H    0.999961
   141  H    0.999957
   142  H    1.000007
   143  H    0.999988
   144  H    0.999959
   145  H    0.999981
   146  H    1.000009
   147  H    1.000012
   148  H    1.000033
   149  H    0.999995
   150  H    1.000025
   151  H    0.999991
   152  H    1.000061
   153  H    1.000094
   154  H    1.000041
   155  H    1.000050
   156  H    1.000026
   157  H    1.000016
   158  H    0.999994
 Sum of Mulliken charges = 624.00000

 Dipole moment (field-independent basis, Debye):
    X=              0.1787    Y=             -3.1259    Z=              9.8512  Tot=             10.3368
 Quadrupole moment (field-independent basis, Debye-Ang):
   XX=              5.3520   YY=              1.7299   ZZ=              8.2711
   XY=            -78.0602   XZ=            246.8540   YZ=             -8.6159

 Normal termination of Gaussian 16 at Wed Oct 13 21:39:48 2021.
