 Gaussian 16, Revision A.03,
 Gaussian 16:  ES64L-G16RevA.03 25-Dec-2016

 --------------------------------------------------------
 #p PBE1PBE/Def2SVP td=(nstates=5) density=(transition=1)
 --------------------------------------------------------

 --------------------------------
 TDDFT excited states in gaussian
 --------------------------------
 Symbolic Z-matrix:
 Charge =  0 Multiplicity = 1

                         Standard orientation:
 ---------------------------------------------------------------------
 Center     Atomic      Atomic             Coordinates (Angstroms)
 Number     Number       Type             X           Y           Z
 ---------------------------------------------------------------------
      1         12           0       -0.531544   -0.033214   -0.442149
      2          6           0        2.771556   -0.060789    0.368144
      3          6           0       -0.532910   -3.562881   -0.218689
      4          6           0       -3.857646    0.079925   -0.162094
      5          6           0       -0.558791    3.563089   -0.112774
      6          7           0        0.956606   -1.559221   -0.008236
      7          6           0        2.202937   -1.416292    0.299907
      8          6           0        3.006139   -2.765245    0.281822
      9          6           0        1.962562   -3.843226   -0.200957
     10          6           0        0.666783   -2.961097   -0.192711
     11          6           0        2.332539   -4.633243   -1.457072
     12          6           0        3.733838   -3.073122    1.721466
     13          6           0        3.176454   -2.419189    2.975442
     14          1           0        3.502462   -2.984727    4.357743
     15          7           0       -1.983473   -1.545562   -0.211896
     16          6           0       -1.810450   -2.908812   -0.210695
     17          6           0       -3.045828   -3.539904   -0.034758
     18          6           0       -4.060965   -2.508978    0.029568
     19          6           0       -3.314263   -1.227858   -0.077275
     20          6           0       -3.168328   -5.050105   -0.122488
     21          6           0       -5.565941   -2.786535    0.196385
     22          8           0       -5.932032   -3.980131    0.284156
     23          6           0       -6.597987   -1.792666    0.263854
     24          7           0       -2.042765    1.637344   -0.007573
     25          6           0       -3.305185    1.351014   -0.154415
     26          6           0       -4.213714    2.612425   -0.201234
     27          6           0       -3.158792    3.739666   -0.239241
     28          6           0       -1.771177    2.987143   -0.132099
     29          6           0       -5.122547    2.675977   -1.375411
     30          6           0       -3.384099    4.840593    0.901223
     31          6           0       -3.843585    6.273585    0.406744
     32          7           0        0.790081    1.509349   -0.090645
     33          6           0        0.687841    2.904090   -0.015538
     34          6           0        2.054601    3.471138    0.205377
     35          6           0        2.850818    2.333050    0.396942
     36          6           0        2.048775    1.163286    0.244397
     37          6           0        2.470880    4.858515    0.282924
     38          6           0        4.154668    1.981893    0.729994
     39          8           0        5.189529    2.629664    0.945615
     40          6           0        4.195838    0.430064    0.637137
     41          6           0        5.289920    0.038240   -0.384304
     42          8           0        6.228350   -0.720970   -0.212561
     43          8           0        5.109334    0.655979   -1.602945
     44          6           0        6.104477    0.397655   -2.650421
     45          1           0       -0.441692   -4.642138   -0.080763
     46          1           0       -4.942406    0.180491   -0.234412
     47          1           0       -0.553955    4.652482   -0.186491
     48          1           0        3.704056   -2.690064   -0.552487
     49          1           0        1.752885   -4.586051    0.569311
     50          1           0        1.636563   -4.391278   -2.260061
     51          1           0        2.270216   -5.710673   -1.299898
     52          1           0        3.354952   -4.505069   -1.812637
     53          1           0        4.764927   -2.798306    1.497878
     54          1           0        3.707138   -4.114603    2.042663
     55          1           0        2.099838   -2.461307    2.812516
     56          1           0        3.462503   -1.370023    2.898953
     57          1           0       -3.848532   -5.498415   -0.847137
     58          1           0       -3.367446   -5.440272    0.875896
     59          1           0       -2.192769   -5.468760   -0.368948
     60          1           0       -6.737444   -1.143852   -0.600656
     61          1           0       -6.354942   -1.045202    1.018384
     62          1           0       -7.560287   -2.182541    0.594168
     63          1           0       -4.911820    2.784286    0.617937
     64          1           0       -3.081771    4.224540   -1.212488
     65          1           0       -6.168075    2.453925   -1.162288
     66          1           0       -4.906588    1.865684   -2.072669
     67          1           0       -5.055405    3.654669   -1.850266
     68          1           0       -2.422130    5.028599    1.379987
     69          1           0       -4.165952    4.593214    1.618009
     70          1           0       -4.666721    6.627039    1.026456
     71          1           0       -4.283542    6.159016   -0.584002
     72          1           0       -2.979952    6.916684    0.577053
     73          1           0        1.779829    5.383457   -0.377024
     74          1           0        3.489130    4.976036   -0.089558
     75          1           0        2.467003    5.118098    1.341142
     76          1           0        4.671625   -0.039204    1.497941
     77          1           0        6.090676    1.234472   -3.348996
     78          1           0        5.962579   -0.471680   -3.292262
     79          1           0        7.108487    0.211887   -2.267772
 ---------------------------------------------------------------------

 SCF Done:  E(RPBE1PBE) =  -2033.65620967     A.U. after   18 cycles

 Excitation energies and oscillator strengths:

 Excited State   1:      Singlet-A      1.8537 eV  668.85 nm  f=0.4181  <S**2>=0.000
     155 ->158        -0.15869
     156 ->157         0.69714
     156 <-157        -0.12239
 This state for optimization and/or second-order correction.
 Total Energy, E(TD-HF/TD-DFT) =  -2033.58808766
 Copying the excited state density for this state as the 1-particle RhoCI density.

 Excited State   2:      Singlet-A      2.2475 eV  551.65 nm  f=0.1101  <S**2>=0.000
     155 ->157         0.65207
     156 ->158         0.24609

 Excited State   3:      Singlet-A      2.7624 eV  448.82 nm  f=0.0037  <S**2>=0.000
     153 ->157        -0.22168
     154 ->157         0.65348

 Excited State   4:      Singlet-A      2.7962 eV  443.40 nm  f=0.0009  <S**2>=0.000
     152 ->157         0.27089
     153 ->157         0.59974
     154 ->157         0.18646

 Excited State   5:      Singlet-A      2.8145 eV  440.52 nm  f=0.0025  <S**2>=0.000
     152 ->157         0.60474
     152 ->159        -0.15862
     153 ->157        -0.23780
     154 ->157        -0.16443

 The electronic state is 1-A.
 Alpha  occ. eigenvalues --  -46.93716 -19.25485 -19.20314 -19.19021 -19.17866
 Alpha  occ. eigenvalues --  -14.42702 -14.41408 -14.40115 -14.39606 -10.36736
 Alpha  occ. eigenvalues --  -10.31651 -10.31595 -10.30553 -10.29261 -10.28869
 Alpha  occ. eigenvalues --  -10.28689 -10.28687 -10.28597 -10.28575 -10.27840
 Alpha  occ. eigenvalues --  -10.27134 -10.27073 -10.27048 -10.26973 -10.26332
 Alpha  occ. eigenvalues --  -10.26307 -10.26165 -10.25855 -10.25552 -10.25064
 Alpha  occ. eigenvalues --  -10.25048 -10.24814 -10.24812 -10.24801 -10.24766
 Alpha  occ. eigenvalues --  -10.24398 -10.24129 -10.23935 -10.23586 -10.23529
 Alpha  occ. eigenvalues --  -10.23087 -10.23081 -10.22568  -3.15705  -1.88521
 Alpha  occ. eigenvalues --   -1.88112  -1.87893  -1.10855  -1.03600  -1.02531
 Alpha  occ. eigenvalues --   -1.02146  -0.99602  -0.99120  -0.98205  -0.97129
 Alpha  occ. eigenvalues --   -0.87241  -0.84034  -0.83736  -0.83332  -0.82458
 Alpha  occ. eigenvalues --   -0.82098  -0.79760  -0.79011  -0.78430  -0.77227
 Alpha  occ. eigenvalues --   -0.76825  -0.75690  -0.74563  -0.72854  -0.71712
 Alpha  occ. eigenvalues --   -0.71262  -0.70654  -0.69718  -0.67848  -0.66438
 Alpha  occ. eigenvalues --   -0.63981  -0.63277  -0.62761  -0.61383  -0.60422
 Alpha  occ. eigenvalues --   -0.60153  -0.59370  -0.59116  -0.57840  -0.55409
 Alpha  occ. eigenvalues --   -0.54588  -0.53589  -0.53171  -0.52671  -0.51698
 Alpha  occ. eigenvalues --   -0.51026  -0.50265  -0.49989  -0.49294  -0.48969
 Alpha  occ. eigenvalues --   -0.48425  -0.48052  -0.47774  -0.47499  -0.47126
 Alpha  occ. eigenvalues --   -0.46738  -0.46106  -0.45721  -0.45555  -0.45313
 Alpha  occ. eigenvalues --   -0.44852  -0.44513  -0.44193  -0.43881  -0.43672
 Alpha  occ. eigenvalues --   -0.43435  -0.43283  -0.43022  -0.42396  -0.42109
 Alpha  occ. eigenvalues --   -0.41907  -0.41558  -0.41379  -0.41009  -0.40681
 Alpha  occ. eigenvalues --   -0.40499  -0.40075  -0.39841  -0.39591  -0.39330
 Alpha  occ. eigenvalues --   -0.39156  -0.38568  -0.38505  -0.37615  -0.37482
 Alpha  occ. eigenvalues --   -0.37201  -0.36856  -0.36752  -0.36362  -0.35832
 Alpha  occ. eigenvalues --   -0.35712  -0.35577  -0.34998  -0.34754  -0.34024
 Alpha  occ. eigenvalues --   -0.33601  -0.33046  -0.32891  -0.31847  -0.31585
 Alpha  occ. eigenvalues --   -0.31310  -0.29788  -0.29637  -0.29300  -0.27154
 Alpha  occ. eigenvalues --   -0.26393  -0.25864  -0.25057  -0.24845  -0.21811
 Alpha  occ. eigenvalues --   -0.19326
 Alpha virt. eigenvalues --   -0.11946  -0.05438  -0.04199  -0.02370  -0.02049
 Alpha virt. eigenvalues --    0.00476   0.00833   0.01411   0.02908   0.03907
 Alpha virt. eigenvalues --    0.04559   0.05049   0.05561   0.06098   0.06475

 Mulliken charges:
               1
     1  Mg  12.001086
     2  C    5.983610
     3  C    5.964926
     4  C    6.007202
     5  C    6.029726
     6  N    6.979922
     7  C    5.977638
     8  C    6.005853
     9  C    5.988842
    10  C    6.045028
    11  C    6.000613
    12  C    6.001265
    13  C    6.008019
    14  H    0.989285
    15  N    7.000854
    16  C    6.049590
    17  C    6.009115
    18  C    6.019397
    19  C    6.027885
    20  C    5.994392
    21  C    6.013264
    22  O    8.025449
    23  C    5.992603
    24  N    7.021127
    25  C    6.015390
    26  C    5.990644
    27  C    6.004905
    28  C    5.965733
    29  C    5.998327
    30  C    6.000041
    31  C    6.000175
    32  N    6.996491
    33  C    5.954185
    34  C    5.976935
    35  C    5.991362
    36  C    5.985015
    37  C    6.001298
    38  C    5.981439
    39  O    7.964856
    40  C    6.006960
    41  C    5.995278
    42  O    7.987617
    43  O    8.004013
    44  C    6.004410
    45  H    1.005960
    46  H    1.013466
    47  H    0.996116
    48  H    0.999587
    49  H    0.999525
    50  H    0.997807
    51  H    0.999765
    52  H    1.010346
    53  H    1.002823
    54  H    0.990803
    55  H    0.989312
    56  H    1.011074
    57  H    1.015451
    58  H    1.017346
    59  H    1.019407
    60  H    1.011236
    61  H    1.009781
    62  H    1.014304
    63  H    1.003512
    64  H    1.002088
    65  H    0.999255
    66  H    0.996764
    67  H    1.011921
    68  H    1.006629
    69  H    0.993065
    70  H    0.997366
    71  H    0.996324
    72  H    1.004359
    73  H    0.983657
    74  H    0.988091
    75  H    0.981831
    76  H    0.987610
    77  H    0.995946
    78  H    0.990521
    79  H    0.995187
 Sum of Mulliken charges = 312.00000

 Dipole moment (field-independent basis, Debye):
    X=             -8.9857    Y=             -6.1479    Z=             -0.6501  Tot=             10.9069
 Quadrupole moment (field-independent basis, Debye-Ang):
   XX=              6.9656   YY=              2.0841   ZZ=             -1.4025
   XY=              4.8590   XZ=             -1.4063   YZ=             -0.1210

 Normal termination of Gaussian 16 at Wed Oct 13 18:59:30 2021.
