 Gaussian 16, Revision A.03,
 Gaussian 16:  ES64L-G16RevA.03 25-Dec-2016

 --------------------------------------------------------
 #p PBE1PBE/Def2SVP td=(nstates=5) density=(transition=1)
 --------------------------------------------------------

 --------------------------------
 TDDFT excited states in gaussian
 --------------------------------
 Symbolic Z-matrix:
 Charge =  0 Multiplicity = 1

                         Standard orientation:
 ---------------------------------------------------------------------
 Center     Atomic      Atomic             Coordinates (Angstroms)
 Number     Number       Type             X           Y           Z
 ---------------------------------------------------------------------
      1         12           0      -14.412834   -0.149627    0.524879
      2          6           0      -12.554796    1.867642   -1.667061
      3          6           0      -16.112099   -1.346869   -2.162395
      4          6           0      -15.745700   -2.275600    2.622520
      5          6           0      -11.893618    0.677239    2.961321
      6          7           0      -14.364659    0.283376   -1.615814
      7          6           0      -13.524687    1.117171   -2.298504
      8          6           0      -13.662579    0.814563   -3.798091
      9          6           0      -15.086074    0.274286   -3.878419
     10          6           0      -15.146712   -0.384693   -2.487014
     11          6           0      -16.145676    1.389964   -4.030550
     12          6           0      -12.594317   -0.238892   -4.272351
     13          6           0      -11.451774    0.239430   -5.296557
     14          1           0       -9.977935    0.155257   -4.864373
     15          7           0      -15.702052   -1.648637    0.260913
     16          6           0      -16.317559   -1.979184   -0.924500
     17          6           0      -17.308029   -2.972670   -0.649925
     18          6           0      -17.350275   -3.217892    0.762471
     19          6           0      -16.240013   -2.380837    1.302595
     20          6           0      -18.206687   -3.621190   -1.757961
     21          6           0      -18.387244   -4.154672    1.482003
     22          8           0      -19.276881   -4.649610    0.860971
     23          6           0      -18.404525   -4.174190    2.939614
     24          7           0      -13.697319   -0.953526    2.418785
     25          6           0      -14.680883   -1.523964    3.154441
     26          6           0      -14.494959   -1.336821    4.650882
     27          6           0      -13.101425   -0.736014    4.754396
     28          6           0      -12.853511   -0.300318    3.268411
     29          6           0      -15.591412   -0.409766    5.294488
     30          6           0      -11.901126   -1.619974    5.338392
     31          6           0      -11.309339   -1.362427    6.698183
     32          7           0      -12.739945    1.152379    0.730134
     33          6           0      -11.820100    1.384878    1.760712
     34          6           0      -10.783820    2.308832    1.353218
     35          6           0      -11.058335    2.538431    0.027434
     36          6           0      -12.234900    1.812465   -0.352660
     37          6           0       -9.672543    2.775307    2.198427
     38          6           0      -10.601634    3.255315   -1.153328
     39          8           0       -9.681974    4.074446   -1.271595
     40          6           0      -11.597504    2.942917   -2.250354
     41          6           0      -12.251351    4.259385   -2.655867
     42          8           0      -12.855028    4.943477   -1.832597
     43          8           0      -11.950994    4.598251   -3.984363
     44          6           0      -12.509281    5.849099   -4.423691
     45          1           0      -16.740672   -1.591784   -3.020730
     46          1           0      -16.423007   -2.750953    3.333697
     47          1           0      -11.200494    1.007444    3.738115
     48          1           0      -13.410999    1.734267   -4.326845
     49          1           0      -15.134825   -0.424235   -4.712829
     50          1           0      -16.694680    0.976801   -4.875991
     51          1           0      -15.570609    2.284553   -4.271173
     52          1           0      -16.787496    1.580674   -3.170351
     53          1           0      -13.132088   -1.027792   -4.798078
     54          1           0      -12.174161   -0.705862   -3.381913
     55          1           0      -11.627458    1.305561   -5.442069
     56          1           0      -11.513221   -0.208477   -6.287658
     57          1           0      -18.279371   -4.707949   -1.786520
     58          1           0      -17.788713   -3.283698   -2.706938
     59          1           0      -19.236670   -3.265522   -1.725439
     60          1           0      -17.461590   -4.474537    3.397040
     61          1           0      -19.187716   -4.859370    3.263913
     62          1           0      -18.811683   -3.239271    3.322199
     63          1           0      -14.595007   -2.270334    5.205644
     64          1           0      -13.131719    0.191419    5.326303
     65          1           0      -16.395479   -0.964238    5.778065
     66          1           0      -15.920985    0.326951    4.561886
     67          1           0      -15.100616    0.161903    6.083461
     68          1           0      -11.073228   -1.863379    4.673350
     69          1           0      -12.481602   -2.540110    5.410557
     70          1           0      -11.495346   -2.164089    7.412215
     71          1           0      -11.740967   -0.453191    7.117313
     72          1           0      -10.243552   -1.237899    6.508011
     73          1           0       -9.497067    2.017792    2.962769
     74          1           0      -10.042928    3.671817    2.696413
     75          1           0       -8.798621    3.032898    1.601841
     76          1           0      -10.955167    2.585182   -3.053908
     77          1           0      -13.574101    5.814592   -4.655602
     78          1           0      -12.008166    6.219348   -5.317620
     79          1           0      -12.393266    6.667297   -3.713439
     80         12           0       14.103480   -0.781959   -0.666059
     81          6           0       14.328769    2.417177    0.706127
     82          6           0       10.941061   -0.196251   -1.522170
     83          6           0       13.618315   -4.165501   -0.702870
     84          6           0       17.400768   -1.364771    0.295446
     85          7           0       12.822805    1.002556   -0.577722
     86          6           0       13.135730    2.157764   -0.003473
     87          6           0       11.984034    3.191605   -0.276448
     88          6           0       10.880220    2.295219   -0.887030
     89          6           0       11.556823    0.931808   -0.992919
     90          6           0        9.596498    2.098726    0.062698
     91          6           0       12.369533    4.399539   -1.245786
     92          6           0       11.815459    5.700863   -0.776248
     93          1           0       11.023608    6.569982   -1.741052
     94          7           0       12.499025   -1.993641   -1.084078
     95          6           0       11.253142   -1.555805   -1.447771
     96          6           0       10.493567   -2.694998   -1.981460
     97          6           0       11.288044   -3.849381   -1.735034
     98          6           0       12.515417   -3.345031   -1.097079
     99          6           0        9.046575   -2.563373   -2.554982
    100          6           0       10.937419   -5.345972   -1.992092
    101          8           0       11.692603   -6.281080   -1.751005
    102          6           0        9.617738   -5.657284   -2.590241
    103          7           0       15.271054   -2.470534   -0.248070
    104          6           0       14.862192   -3.807476   -0.260068
    105          6           0       15.980014   -4.697215    0.343885
    106          6           0       17.300793   -3.865571    0.032851
    107          6           0       16.586765   -2.484283    0.014850
    108          6           0       15.735535   -5.061674    1.824001
    109          6           0       17.993760   -4.138818   -1.271803
    110          6           0       17.475858   -3.568034   -2.558504
    111          7           0       15.676822    0.305153    0.113953
    112          6           0       16.949674   -0.052752    0.493947
    113          6           0       17.690732    1.076025    1.061439
    114          6           0       16.650014    2.089005    1.270404
    115          6           0       15.451428    1.533775    0.674253
    116          6           0       19.049945    1.057681    1.543357
    117          6           0       16.349774    3.402319    1.827517
    118          8           0       16.986511    4.162052    2.456012
    119          6           0       14.818369    3.695075    1.399469
    120          6           0       13.944264    4.195597    2.521510
    121          8           0       13.256089    3.489163    3.252291
    122          8           0       13.977040    5.589718    2.521038
    123          6           0       13.159236    6.291723    3.526766
    124          1           0        9.975743   -0.136496   -2.029878
    125          1           0       13.385853   -5.232675   -0.720590
    126          1           0       18.453345   -1.585770    0.482441
    127          1           0       11.575786    3.605196    0.646049
    128          1           0       10.455040    2.628946   -1.833558
    129          1           0        8.880939    2.873453   -0.213501
    130          1           0        9.775695    2.250996    1.126719
    131          1           0        9.169133    1.118837   -0.153289
    132          1           0       11.997689    4.238977   -2.257877
    133          1           0       13.436880    4.548317   -1.409909
    134          1           0       12.710650    6.286392   -0.568544
    135          1           0       11.223689    5.704232    0.138690
    136          1           0        8.379897   -2.715432   -1.706612
    137          1           0        8.878630   -3.250914   -3.384297
    138          1           0        8.755548   -1.540497   -2.796358
    139          1           0        8.712912   -5.131594   -2.285620
    140          1           0        9.392113   -6.713927   -2.448527
    141          1           0        9.720357   -5.707209   -3.674628
    142          1           0       15.962427   -5.584984   -0.287648
    143          1           0       18.047292   -3.964002    0.820781
    144          1           0       16.540086   -4.832571    2.522819
    145          1           0       15.331227   -6.064121    1.966272
    146          1           0       14.904292   -4.475975    2.216151
    147          1           0       18.098123   -5.196608   -1.510193
    148          1           0       19.019540   -3.781425   -1.180402
    149          1           0       18.074940   -2.663931   -2.665651
    150          1           0       16.431661   -3.254632   -2.555077
    151          1           0       17.666093   -4.274544   -3.367082
    152          1           0       19.460138    2.039435    1.306016
    153          1           0       19.582586    0.299769    0.969468
    154          1           0       19.065326    0.897378    2.620945
    155          1           0       14.846430    4.479457    0.643110
    156          1           0       13.422621    5.871558    4.497807
    157          1           0       12.098535    6.100270    3.366549
    158          1           0       13.221730    7.376894    3.609663
 ---------------------------------------------------------------------

 SCF Done:  E(RPBE1PBE) =  -4067.38997583     A.U. after   16 cycles

 Excitation energies and oscillator strengths:

 Excited State   1:      Singlet-A      1.8399 eV  673.88 nm  f=0.3850  <S**2>=0.000
     310 -> 316        0.17103
     312 -> 314        0.69427
     312 <- 314       -0.11325
 This state for optimization and/or second-order correction.
 Total Energy, E(TD-HF/TD-DFT) =  -4067.32236227
 Copying the excited state density for this state as the 1-particle RhoCI density.

 Excited State   2:      Singlet-A      1.8785 eV  660.03 nm  f=0.3364  <S**2>=0.000
     309 -> 315        0.18342
     311 -> 313        0.68978
     311 <- 313       -0.10092

 Excited State   3:      Singlet-A      1.9071 eV  650.12 nm  f=0.0000  <S**2>=0.000
     312 -> 313        0.70710

 Excited State   4:      Singlet-A      1.9960 eV  621.17 nm  f=0.0000  <S**2>=0.000
     311 -> 314        0.70710

 Excited State   5:      Singlet-A      2.2623 eV  548.04 nm  f=0.1050  <S**2>=0.000
     310 -> 314        0.64516
     312 -> 316       -0.27989

 The electronic state is 1-A.
 Alpha  occ. eigenvalues --  -46.92119 -46.91305 -19.26712 -19.25585 -19.20820
 Alpha  occ. eigenvalues --  -19.20198 -19.19732 -19.19432 -19.19347 -19.18970
 Alpha  occ. eigenvalues --  -14.41681 -14.41635 -14.41596 -14.40995 -14.39116
 Alpha  occ. eigenvalues --  -14.39040 -14.38897 -14.38879 -10.37308 -10.36582
 Alpha  occ. eigenvalues --  -10.32804 -10.32502 -10.32252 -10.31695 -10.28979
 Alpha  occ. eigenvalues --  -10.28931 -10.28918 -10.28906 -10.28762 -10.28573
 Alpha  occ. eigenvalues --  -10.28439 -10.28380 -10.28359 -10.28264 -10.27799
 Alpha  occ. eigenvalues --  -10.27623 -10.27479 -10.27329 -10.27326 -10.27193
 Alpha  occ. eigenvalues --  -10.27097 -10.26869 -10.26548 -10.26271 -10.26205
 Alpha  occ. eigenvalues --  -10.26052 -10.26029 -10.26024 -10.25974 -10.25936
 Alpha  occ. eigenvalues --  -10.25912 -10.25759 -10.25733 -10.25700 -10.25698
 Alpha  occ. eigenvalues --  -10.25637 -10.25494 -10.25423 -10.25363 -10.25328
 Alpha  occ. eigenvalues --  -10.25001 -10.24935 -10.24884 -10.24787 -10.24591
 Alpha  occ. eigenvalues --  -10.24562 -10.24548 -10.24420 -10.24411 -10.24281
 Alpha  occ. eigenvalues --  -10.24116 -10.23780 -10.23762 -10.23696 -10.23659
 Alpha  occ. eigenvalues --  -10.23417 -10.23410 -10.23382 -10.23151 -10.23144
 Alpha  occ. eigenvalues --  -10.23114 -10.23075 -10.23040 -10.23009 -10.22819
 Alpha  occ. eigenvalues --  -10.21930  -3.14308  -3.13583  -1.87122  -1.86697
 Alpha  occ. eigenvalues --   -1.86531  -1.86428  -1.85934  -1.85834  -1.10752
 Alpha  occ. eigenvalues --   -1.09794  -1.07595  -1.06739  -1.04915  -1.03830
 Alpha  occ. eigenvalues --   -1.03044  -1.02166  -0.99761  -0.99420  -0.98930
 Alpha  occ. eigenvalues --   -0.98186  -0.97545  -0.97533  -0.96821  -0.96769
 Alpha  occ. eigenvalues --   -0.87419  -0.86106  -0.83484  -0.83311  -0.83293
 Alpha  occ. eigenvalues --   -0.82901  -0.82813  -0.82338  -0.81961  -0.81493
 Alpha  occ. eigenvalues --   -0.81405  -0.81211  -0.80573  -0.79364  -0.78891
 Alpha  occ. eigenvalues --   -0.78555  -0.78421  -0.77828  -0.76861  -0.76795
 Alpha  occ. eigenvalues --   -0.76784  -0.76037  -0.75421  -0.75251  -0.75226
 Alpha  occ. eigenvalues --   -0.74686  -0.72542  -0.72383  -0.71571  -0.71530
 Alpha  occ. eigenvalues --   -0.71006  -0.70747  -0.70629  -0.70066  -0.69491
 Alpha  occ. eigenvalues --   -0.69194  -0.67353  -0.66656  -0.66637  -0.65890
 Alpha  occ. eigenvalues --   -0.63569  -0.63443  -0.63071  -0.62905  -0.62543
 Alpha  occ. eigenvalues --   -0.62063  -0.61270  -0.61113  -0.60300  -0.60125
 Alpha  occ. eigenvalues --   -0.60090  -0.59447  -0.59145  -0.59071  -0.58768
 Alpha  occ. eigenvalues --   -0.58526  -0.57319  -0.56331  -0.54798  -0.54721
 Alpha  occ. eigenvalues --   -0.54652  -0.54062  -0.53776  -0.53524  -0.53415
 Alpha  occ. eigenvalues --   -0.53003  -0.52728  -0.52327  -0.52277  -0.51591
 Alpha  occ. eigenvalues --   -0.50886  -0.50716  -0.50409  -0.50039  -0.49845
 Alpha  occ. eigenvalues --   -0.49791  -0.49437  -0.49299  -0.48618  -0.48567
 Alpha  occ. eigenvalues --   -0.48176  -0.48148  -0.47886  -0.47726  -0.47653
 Alpha  occ. eigenvalues --   -0.47480  -0.47449  -0.47206  -0.47025  -0.46788
 Alpha  occ. eigenvalues --   -0.46693  -0.46358  -0.46203  -0.46131  -0.45845
 Alpha  occ. eigenvalues --   -0.45721  -0.45654  -0.45532  -0.45162  -0.44951
 Alpha  occ. eigenvalues --   -0.44783  -0.44717  -0.44594  -0.44501  -0.44199
 Alpha  occ. eigenvalues --   -0.44128  -0.44106  -0.43939  -0.43803  -0.43718
 Alpha  occ. eigenvalues --   -0.43345  -0.43243  -0.43042  -0.42952  -0.42783
 Alpha  occ. eigenvalues --   -0.42626  -0.42411  -0.42280  -0.41877  -0.41623
 Alpha  occ. eigenvalues --   -0.41372  -0.41344  -0.41290  -0.41070  -0.41044
 Alpha  occ. eigenvalues --   -0.40968  -0.40897  -0.40761  -0.40751  -0.40406
 Alpha  occ. eigenvalues --   -0.40194  -0.40166  -0.40050  -0.39771  -0.39657
 Alpha  occ. eigenvalues --   -0.39439  -0.39254  -0.39126  -0.39115  -0.39038
 Alpha  occ. eigenvalues --   -0.38922  -0.38684  -0.38547  -0.38424  -0.38173
 Alpha  occ. eigenvalues --   -0.38146  -0.38062  -0.37945  -0.37666  -0.37480
 Alpha  occ. eigenvalues --   -0.37435  -0.37273  -0.37067  -0.36872  -0.36710
 Alpha  occ. eigenvalues --   -0.36594  -0.36493  -0.36385  -0.36285  -0.36152
 Alpha  occ. eigenvalues --   -0.36054  -0.35986  -0.35844  -0.35638  -0.35371
 Alpha  occ. eigenvalues --   -0.35317  -0.35135  -0.34980  -0.34015  -0.33931
 Alpha  occ. eigenvalues --   -0.33580  -0.33023  -0.32968  -0.32659  -0.32519
 Alpha  occ. eigenvalues --   -0.32111  -0.31897  -0.31757  -0.31641  -0.31590
 Alpha  occ. eigenvalues --   -0.31407  -0.30905  -0.29952  -0.29749  -0.29492
 Alpha  occ. eigenvalues --   -0.29213  -0.29053  -0.28332  -0.26999  -0.26767
 Alpha  occ. eigenvalues --   -0.26187  -0.26150  -0.25995  -0.25896  -0.25638
 Alpha  occ. eigenvalues --   -0.25626  -0.25303  -0.25120  -0.21326  -0.20877
 Alpha  occ. eigenvalues --   -0.18711  -0.18405
 Alpha virt. eigenvalues --   -0.10921  -0.10908  -0.05684  -0.04876  -0.03805
 Alpha virt. eigenvalues --   -0.03747  -0.01918  -0.01902  -0.00912  -0.00398
 Alpha virt. eigenvalues --   -0.00130   0.00185   0.00712   0.01446   0.01714

 Mulliken charges:
               1
     1  Mg  11.999968
     2  C    5.999387
     3  C    6.000407
     4  C    6.000509
     5  C    5.999801
     6  N    6.999866
     7  C    6.000805
     8  C    6.000008
     9  C    6.000187
    10  C    5.999227
    11  C    6.000049
    12  C    5.999923
    13  C    5.999861
    14  H    1.000388
    15  N    7.000139
    16  C    5.999020
    17  C    5.999490
    18  C    5.999705
    19  C    5.998946
    20  C    6.000092
    21  C    5.999596
    22  O    7.999404
    23  C    6.000267
    24  N    6.999989
    25  C    5.999142
    26  C    6.000293
    27  C    5.999830
    28  C    6.000933
    29  C    6.000145
    30  C    5.999756
    31  C    6.000000
    32  N    6.999977
    33  C    6.000834
    34  C    6.000848
    35  C    6.000006
    36  C    6.000966
    37  C    5.999872
    38  C    6.000683
    39  O    8.000963
    40  C    5.999904
    41  C    6.000145
    42  O    7.999917
    43  O    8.000156
    44  C    5.999991
    45  H    0.999629
    46  H    0.999647
    47  H    1.000249
    48  H    0.999844
    49  H    0.999951
    50  H    0.999895
    51  H    0.999555
    52  H    0.999911
    53  H    1.000330
    54  H    1.000105
    55  H    0.999825
    56  H    1.000144
    57  H    0.999525
    58  H    0.999620
    59  H    0.999370
    60  H    0.999795
    61  H    0.999524
    62  H    0.999642
    63  H    0.999955
    64  H    0.999877
    65  H    0.999928
    66  H    0.999852
    67  H    0.999599
    68  H    1.000229
    69  H    1.000344
    70  H    1.000080
    71  H    0.999877
    72  H    1.000139
    73  H    1.000585
    74  H    1.000338
    75  H    1.000628
    76  H    1.000473
    77  H    1.000064
    78  H    1.000141
    79  H    0.999932
    80  Mg  12.001670
    81  C    5.975988
    82  C    5.995300
    83  C    6.028853
    84  C    6.007105
    85  N    6.988163
    86  C    6.033242
    87  C    5.990423
    88  C    6.008129
    89  C    5.974180
    90  C    6.006332
    91  C    5.998384
    92  C    5.999939
    93  H    1.005204
    94  N    7.004585
    95  C    5.966985
    96  C    5.977738
    97  C    5.988487
    98  C    5.960677
    99  C    6.001493
   100  C    5.986266
   101  O    7.972249
   102  C    6.009614
   103  N    7.017857
   104  C    5.963954
   105  C    6.003883
   106  C    5.991808
   107  C    6.020576
   108  C    5.998913
   109  C    5.994509
   110  C    5.996840
   111  N    6.997907
   112  C    6.023796
   113  C    6.035970
   114  C    6.003891
   115  C    6.027326
   116  C    5.995264
   117  C    6.014788
   118  O    8.023897
   119  C    6.004109
   120  C    6.002772
   121  O    8.008602
   122  O    8.000146
   123  C    5.997941
   124  H    0.988652
   125  H    0.996095
   126  H    1.014239
   127  H    1.000161
   128  H    0.995630
   129  H    0.990166
   130  H    0.988006
   131  H    1.007018
   132  H    1.007062
   133  H    0.993166
   134  H    0.995414
   135  H    1.001029
   136  H    0.982723
   137  H    0.985163
   138  H    0.983851
   139  H    0.994411
   140  H    0.986018
   141  H    0.989249
   142  H    1.003688
   143  H    1.001961
   144  H    0.989453
   145  H    1.003056
   146  H    1.001610
   147  H    1.011594
   148  H    0.998632
   149  H    0.993589
   150  H    1.011978
   151  H    1.007299
   152  H    1.017954
   153  H    1.015462
   154  H    1.023395
   155  H    1.006201
   156  H    1.000809
   157  H    1.006128
   158  H    1.003386
 Sum of Mulliken charges = 624.00000

 Dipole moment (field-independent basis, Debye):
    X=              8.4868    Y=              5.1186    Z=              3.4822  Tot=             10.5049
 Quadrupole moment (field-independent basis, Debye-Ang):
   XX=            224.1842   YY=             -8.3119   ZZ=             -1.2932
   XY=             58.1127   XZ=             44.5792   YZ=             -2.2768

 Normal termination of Gaussian 16 at Fri Oct 15 15:07:43 2021.
