 Gaussian 16, Revision A.03,
 Gaussian 16:  ES64L-G16RevA.03 25-Dec-2016

 --------------------------------------------------------
 #p PBE1PBE/Def2SVP td=(nstates=5) density=(transition=1)
 --------------------------------------------------------

 --------------------------------
 TDDFT excited states in gaussian
 --------------------------------
 Symbolic Z-matrix:
 Charge =  0 Multiplicity = 1

                         Standard orientation:
 ---------------------------------------------------------------------
 Center     Atomic      Atomic             Coordinates (Angstroms)
 Number     Number       Type             X           Y           Z
 ---------------------------------------------------------------------
      1         12           0      -17.466615   -0.762116    0.310977
      2          6           0      -17.666562    2.302342   -1.305653
      3          6           0      -16.727413    0.796959    3.208733
      4          6           0      -17.127252   -3.781398    1.715844
      5          6           0      -18.080753   -2.293913   -2.777454
      6          7           0      -17.268186    1.355460    0.822814
      7          6           0      -17.472989    2.413539    0.075300
      8          6           0      -17.286577    3.701346    1.002809
      9          6           0      -16.314073    3.106959    1.999503
     10          6           0      -16.815449    1.629374    2.067994
     11          6           0      -14.861512    3.313041    1.518560
     12          6           0      -18.697533    4.274462    1.456682
     13          6           0      -18.672259    5.731730    1.927957
     14          1           0      -17.329453    6.406416    2.148993
     15          7           0      -17.174305   -1.393516    2.210829
     16          6           0      -16.960253   -0.560904    3.306765
     17          6           0      -17.015627   -1.410432    4.534117
     18          6           0      -17.069673   -2.803269    4.100981
     19          6           0      -17.045853   -2.658973    2.621103
     20          6           0      -16.947023   -0.837210    5.929803
     21          6           0      -17.181729   -4.164090    4.931570
     22          8           0      -17.294874   -5.278542    4.409959
     23          6           0      -17.163295   -4.036662    6.440554
     24          7           0      -17.472375   -2.697960   -0.420002
     25          6           0      -17.297983   -3.778139    0.336663
     26          6           0      -17.258028   -5.098096   -0.493655
     27          6           0      -17.802401   -4.587078   -1.835316
     28          6           0      -17.854771   -3.099337   -1.683096
     29          6           0      -15.858697   -5.769041   -0.579665
     30          6           0      -19.103892   -5.280027   -2.439281
     31          6           0      -20.394984   -4.538365   -2.324145
     32          7           0      -17.604354   -0.185222   -1.693350
     33          6           0      -17.913823   -0.884209   -2.811187
     34          6           0      -17.993447   -0.073373   -3.973573
     35          6           0      -17.904539    1.244614   -3.424839
     36          6           0      -17.683305    1.065841   -2.078355
     37          6           0      -18.141718   -0.361191   -5.445101
     38          6           0      -17.935086    2.654204   -3.678862
     39          8           0      -18.075611    3.291440   -4.700365
     40          6           0      -17.941141    3.422440   -2.318846
     41          6           0      -16.917093    4.471190   -2.342744
     42          8           0      -15.728529    4.223139   -2.477507
     43          8           0      -17.444469    5.787354   -2.379709
     44          6           0      -16.461685    6.872818   -2.523637
     45          1           0      -16.426189    1.334324    4.109138
     46          1           0      -16.968183   -4.748645    2.195484
     47          1           0      -18.220718   -2.808192   -3.730183
     48          1           0      -16.855594    4.514761    0.420660
     49          1           0      -16.424644    3.484619    3.015682
     50          1           0      -14.471988    4.008934    2.262361
     51          1           0      -14.800891    3.747406    0.519817
     52          1           0      -14.360575    2.356583    1.666424
     53          1           0      -19.096164    3.679816    2.279111
     54          1           0      -19.309312    4.255199    0.554462
     55          1           0      -19.245724    5.767656    2.853701
     56          1           0      -19.237794    6.307532    1.195752
     57          1           0      -17.426522    0.140883    5.982910
     58          1           0      -15.959480   -0.742438    6.380165
     59          1           0      -17.540715   -1.470130    6.589212
     60          1           0      -16.273241   -3.437845    6.632285
     61          1           0      -17.024291   -4.976426    6.974205
     62          1           0      -18.099144   -3.596647    6.785438
     63          1           0      -17.920547   -5.853354   -0.071139
     64          1           0      -16.972518   -4.678652   -2.535082
     65          1           0      -15.758666   -6.079290   -1.620064
     66          1           0      -15.671760   -6.609461    0.087006
     67          1           0      -15.117227   -5.028545   -0.279564
     68          1           0      -19.169943   -6.292179   -2.040007
     69          1           0      -18.990321   -5.359449   -3.520195
     70          1           0      -20.689811   -4.241927   -3.331052
     71          1           0      -20.344955   -3.554211   -1.856640
     72          1           0      -21.220479   -5.125513   -1.921608
     73          1           0      -18.110348   -1.428838   -5.665304
     74          1           0      -17.414737    0.235477   -5.996853
     75          1           0      -19.109887   -0.131412   -5.890538
     76          1           0      -18.906202    3.888346   -2.121391
     77          1           0      -16.858819    7.876849   -2.376332
     78          1           0      -16.106824    6.747479   -3.546968
     79          1           0      -15.647713    6.614608   -1.847253
     80         12           0       17.878491   -0.515192    0.088530
     81          6           0       15.542640    2.132384    0.022471
     82          6           0       20.386551    1.724505    0.698083
     83          6           0       20.033874   -2.930286   -0.537357
     84          6           0       15.282519   -2.662337   -1.023473
     85          7           0       17.902885    1.678124    0.443057
     86          6           0       16.865708    2.489240    0.375778
     87          6           0       17.255287    3.813024    1.008410
     88          6           0       18.820089    3.857235    0.815498
     89          6           0       19.090291    2.317733    0.628139
     90          6           0       19.226932    4.817374   -0.366180
     91          6           0       16.927148    3.867392    2.522620
     92          6           0       16.816202    5.324841    3.153049
     93          1           0       17.055515    6.587699    2.321138
     94          7           0       19.873529   -0.641887    0.279457
     95          6           0       20.795243    0.380856    0.620888
     96          6           0       22.144043   -0.224675    0.716720
     97          6           0       22.042896   -1.589836    0.266244
     98          6           0       20.613166   -1.822744   -0.032454
     99          6           0       23.347780    0.505544    1.198291
    100          6           0       23.103549   -2.747032    0.102426
    101          8           0       22.819332   -3.909382   -0.217242
    102          6           0       24.559652   -2.396008    0.203827
    103          7           0       17.701763   -2.510419   -0.792665
    104          6           0       18.723976   -3.318310   -0.890371
    105          6           0       18.405601   -4.698157   -1.394130
    106          6           0       16.847707   -4.630879   -1.569472
    107          6           0       16.550730   -3.203458   -1.009627
    108          6           0       19.268469   -5.076805   -2.601438
    109          6           0       16.073177   -5.695370   -0.802590
    110          6           0       14.842207   -6.337960   -1.536754
    111          7           0       15.758621   -0.397599   -0.359782
    112          6           0       14.835779   -1.383142   -0.761553
    113          6           0       13.528341   -0.823576   -0.729204
    114          6           0       13.737119    0.587012   -0.604905
    115          6           0       15.068754    0.781819   -0.338684
    116          6           0       12.242275   -1.597903   -0.772740
    117          6           0       13.158952    1.944406   -0.457781
    118          8           0       12.006602    2.314936   -0.542965
    119          6           0       14.373146    2.979188   -0.306972
    120          6           0       13.967384    4.152112    0.524113
    121          8           0       13.611963    4.130482    1.665549
    122          8           0       13.951773    5.336672   -0.235772
    123          6           0       12.968045    6.365442    0.163425
    124          1           0       21.252913    2.389880    0.697433
    125          1           0       20.640445   -3.832209   -0.636601
    126          1           0       14.494493   -3.368358   -1.293941
    127          1           0       16.598876    4.523143    0.505572
    128          1           0       19.325706    4.204897    1.717006
    129          1           0       18.337792    5.247314   -0.826140
    130          1           0       19.616999    4.135193   -1.121577
    131          1           0       19.864289    5.653081   -0.076996
    132          1           0       17.761618    3.347021    2.994476
    133          1           0       16.009270    3.298615    2.670827
    134          1           0       17.512718    5.309796    3.992726
    135          1           0       15.817977    5.359777    3.590107
    136          1           0       23.225757    1.483410    1.662718
    137          1           0       24.050143    0.721551    0.393714
    138          1           0       23.763584   -0.157889    1.957031
    139          1           0       24.953189   -2.420829    1.219891
    140          1           0       24.529162   -1.400404   -0.240535
    141          1           0       25.079550   -3.085230   -0.461025
    142          1           0       18.669109   -5.313336   -0.533868
    143          1           0       16.515849   -4.694173   -2.605066
    144          1           0       19.630547   -4.220817   -3.171729
    145          1           0       18.604425   -5.634633   -3.260540
    146          1           0       20.134130   -5.680348   -2.327662
    147          1           0       15.688065   -5.300137    0.137248
    148          1           0       16.846435   -6.380486   -0.455366
    149          1           0       14.621025   -5.822508   -2.471205
    150          1           0       14.010003   -6.185693   -0.849793
    151          1           0       14.864417   -7.403576   -1.767300
    152          1           0       12.358722   -2.282926   -1.612691
    153          1           0       11.352562   -0.991687   -0.944055
    154          1           0       12.145587   -2.207458    0.126264
    155          1           0       14.535316    3.462385   -1.269936
    156          1           0       13.521913    7.241970    0.499952
    157          1           0       12.286892    6.009687    0.937236
    158          1           0       12.410447    6.592899   -0.745081
 ---------------------------------------------------------------------

 SCF Done:  E(RPBE1PBE) =  -4067.37440327     A.U. after   16 cycles

 Excitation energies and oscillator strengths:

 Excited State   1:      Singlet-A      1.8894 eV  656.21 nm  f=0.3623  <S**2>=0.000
     310 -> 315        0.18734
     312 -> 314        0.68567
 This state for optimization and/or second-order correction.
 Total Energy, E(TD-HF/TD-DFT) =  -4067.30496914
 Copying the excited state density for this state as the 1-particle RhoCI density.

 Excited State   2:      Singlet-A      1.9739 eV  628.11 nm  f=0.0000  <S**2>=0.000
     312 -> 313        0.70711

 Excited State   3:      Singlet-A      2.0485 eV  605.23 nm  f=0.0000  <S**2>=0.000
     311 -> 314        0.70710

 Excited State   4:      Singlet-A      2.1350 eV  580.72 nm  f=0.0931  <S**2>=0.000
     310 -> 314        0.65946
     312 -> 315       -0.23138

 Excited State   5:      Singlet-A      2.4364 eV  508.89 nm  f=0.0000  <S**2>=0.000
     310 -> 313        0.70710

 The electronic state is 1-A.
 Alpha  occ. eigenvalues --  -46.91926 -46.91138 -19.24581 -19.24056 -19.20449
 Alpha  occ. eigenvalues --  -19.20186 -19.19872 -19.19683 -19.18903 -19.18300
 Alpha  occ. eigenvalues --  -14.41470 -14.41343 -14.41126 -14.41057 -14.39598
 Alpha  occ. eigenvalues --  -14.39300 -14.38389 -14.37904 -10.35877 -10.35684
 Alpha  occ. eigenvalues --  -10.34154 -10.33617 -10.32271 -10.31390 -10.29644
 Alpha  occ. eigenvalues --  -10.28838 -10.28794 -10.28497 -10.28360 -10.28290
 Alpha  occ. eigenvalues --  -10.28273 -10.28193 -10.28168 -10.28115 -10.28036
 Alpha  occ. eigenvalues --  -10.27992 -10.27843 -10.27775 -10.27767 -10.27613
 Alpha  occ. eigenvalues --  -10.26810 -10.26494 -10.26439 -10.26265 -10.26107
 Alpha  occ. eigenvalues --  -10.25997 -10.25940 -10.25928 -10.25877 -10.25848
 Alpha  occ. eigenvalues --  -10.25775 -10.25716 -10.25529 -10.25523 -10.25435
 Alpha  occ. eigenvalues --  -10.25420 -10.25341 -10.25330 -10.25281 -10.25206
 Alpha  occ. eigenvalues --  -10.25172 -10.25095 -10.25005 -10.24737 -10.24660
 Alpha  occ. eigenvalues --  -10.24594 -10.24578 -10.24240 -10.23997 -10.23930
 Alpha  occ. eigenvalues --  -10.23903 -10.23820 -10.23716 -10.23662 -10.23468
 Alpha  occ. eigenvalues --  -10.23393 -10.23385 -10.23318 -10.23247 -10.23239
 Alpha  occ. eigenvalues --  -10.23183 -10.23032 -10.22867 -10.22574 -10.22150
 Alpha  occ. eigenvalues --  -10.21978  -3.13970  -3.13477  -1.86823  -1.86343
 Alpha  occ. eigenvalues --   -1.86332  -1.86190  -1.85816  -1.85749  -1.10058
 Alpha  occ. eigenvalues --   -1.09220  -1.04975  -1.04871  -1.04591  -1.04482
 Alpha  occ. eigenvalues --   -1.01953  -1.01565  -1.00335  -0.99696  -0.99395
 Alpha  occ. eigenvalues --   -0.99120  -0.98752  -0.97674  -0.96671  -0.95285
 Alpha  occ. eigenvalues --   -0.86562  -0.86357  -0.83564  -0.83511  -0.83093
 Alpha  occ. eigenvalues --   -0.82767  -0.82477  -0.81990  -0.81607  -0.81541
 Alpha  occ. eigenvalues --   -0.81483  -0.81240  -0.80711  -0.80061  -0.78480
 Alpha  occ. eigenvalues --   -0.78182  -0.78114  -0.77985  -0.76975  -0.76789
 Alpha  occ. eigenvalues --   -0.76547  -0.75925  -0.75297  -0.75058  -0.74408
 Alpha  occ. eigenvalues --   -0.74219  -0.72720  -0.72706  -0.71569  -0.71509
 Alpha  occ. eigenvalues --   -0.70978  -0.70799  -0.70094  -0.69767  -0.69416
 Alpha  occ. eigenvalues --   -0.69388  -0.67301  -0.67014  -0.66151  -0.65583
 Alpha  occ. eigenvalues --   -0.64208  -0.63658  -0.63109  -0.62992  -0.62323
 Alpha  occ. eigenvalues --   -0.61764  -0.60968  -0.60845  -0.60419  -0.59592
 Alpha  occ. eigenvalues --   -0.59547  -0.59130  -0.59056  -0.58734  -0.58373
 Alpha  occ. eigenvalues --   -0.58060  -0.55854  -0.55733  -0.55019  -0.54516
 Alpha  occ. eigenvalues --   -0.54172  -0.53758  -0.53704  -0.53106  -0.52671
 Alpha  occ. eigenvalues --   -0.52656  -0.52509  -0.52207  -0.52060  -0.51500
 Alpha  occ. eigenvalues --   -0.50924  -0.50357  -0.50197  -0.50046  -0.49971
 Alpha  occ. eigenvalues --   -0.49743  -0.49287  -0.48773  -0.48385  -0.48172
 Alpha  occ. eigenvalues --   -0.47775  -0.47739  -0.47687  -0.47665  -0.47420
 Alpha  occ. eigenvalues --   -0.47383  -0.47097  -0.46885  -0.46780  -0.46624
 Alpha  occ. eigenvalues --   -0.46596  -0.46401  -0.46316  -0.45938  -0.45803
 Alpha  occ. eigenvalues --   -0.45720  -0.45354  -0.45156  -0.45052  -0.45046
 Alpha  occ. eigenvalues --   -0.45001  -0.44846  -0.44517  -0.44346  -0.44054
 Alpha  occ. eigenvalues --   -0.44024  -0.43833  -0.43717  -0.43560  -0.43440
 Alpha  occ. eigenvalues --   -0.43188  -0.43058  -0.42974  -0.42951  -0.42674
 Alpha  occ. eigenvalues --   -0.42473  -0.42296  -0.42165  -0.41962  -0.41954
 Alpha  occ. eigenvalues --   -0.41763  -0.41626  -0.41219  -0.41095  -0.41074
 Alpha  occ. eigenvalues --   -0.41045  -0.40913  -0.40712  -0.40475  -0.40439
 Alpha  occ. eigenvalues --   -0.40384  -0.40304  -0.39858  -0.39754  -0.39630
 Alpha  occ. eigenvalues --   -0.39396  -0.39131  -0.39096  -0.38789  -0.38657
 Alpha  occ. eigenvalues --   -0.38532  -0.38502  -0.38302  -0.38032  -0.38032
 Alpha  occ. eigenvalues --   -0.37964  -0.37893  -0.37740  -0.37521  -0.37397
 Alpha  occ. eigenvalues --   -0.37366  -0.36982  -0.36935  -0.36860  -0.36624
 Alpha  occ. eigenvalues --   -0.36574  -0.36444  -0.36287  -0.36225  -0.36034
 Alpha  occ. eigenvalues --   -0.35873  -0.35853  -0.35772  -0.35466  -0.35116
 Alpha  occ. eigenvalues --   -0.34941  -0.34904  -0.34835  -0.34069  -0.33964
 Alpha  occ. eigenvalues --   -0.33660  -0.33129  -0.33008  -0.32751  -0.32529
 Alpha  occ. eigenvalues --   -0.32518  -0.31659  -0.31460  -0.31182  -0.30819
 Alpha  occ. eigenvalues --   -0.30521  -0.30404  -0.29651  -0.29389  -0.29026
 Alpha  occ. eigenvalues --   -0.28987  -0.28530  -0.28437  -0.26808  -0.26657
 Alpha  occ. eigenvalues --   -0.26580  -0.26364  -0.25957  -0.25766  -0.25426
 Alpha  occ. eigenvalues --   -0.25347  -0.25208  -0.24253  -0.20794  -0.20580
 Alpha  occ. eigenvalues --   -0.18929  -0.18885
 Alpha virt. eigenvalues --   -0.11250  -0.11031  -0.05498  -0.04759  -0.04184
 Alpha virt. eigenvalues --   -0.04154  -0.01986  -0.01753  -0.00011   0.00173
 Alpha virt. eigenvalues --    0.00262   0.00915   0.01334   0.01451   0.02078

 Mulliken charges:
               1
     1  Mg  11.999969
     2  C    5.999959
     3  C    5.999970
     4  C    6.000025
     5  C    6.000039
     6  N    6.999986
     7  C    6.000046
     8  C    5.999966
     9  C    6.000015
    10  C    5.999978
    11  C    6.000008
    12  C    6.000007
    13  C    5.999996
    14  H    0.999906
    15  N    7.000012
    16  C    5.999939
    17  C    5.999965
    18  C    5.999980
    19  C    5.999942
    20  C    5.999979
    21  C    5.999973
    22  O    7.999991
    23  C    6.000008
    24  N    7.000006
    25  C    5.999946
    26  C    6.000028
    27  C    5.999983
    28  C    6.000032
    29  C    6.000000
    30  C    5.999994
    31  C    5.999962
    32  N    6.999997
    33  C    6.000022
    34  C    6.000026
    35  C    6.000022
    36  C    5.999988
    37  C    6.000000
    38  C    5.999992
    39  O    8.000071
    40  C    6.000029
    41  C    6.000000
    42  O    7.999897
    43  O    8.000050
    44  C    6.000034
    45  H    0.999952
    46  H    0.999999
    47  H    1.000050
    48  H    0.999965
    49  H    1.000028
    50  H    0.999931
    51  H    0.999934
    52  H    0.999883
    53  H    1.000062
    54  H    1.000043
    55  H    1.000085
    56  H    1.000056
    57  H    1.000041
    58  H    0.999892
    59  H    1.000064
    60  H    0.999914
    61  H    1.000019
    62  H    1.000084
    63  H    1.000082
    64  H    0.999935
    65  H    0.999972
    66  H    1.000006
    67  H    0.999874
    68  H    1.000063
    69  H    1.000013
    70  H    1.000044
    71  H    0.999996
    72  H    1.000117
    73  H    1.000024
    74  H    0.999961
    75  H    1.000129
    76  H    1.000092
    77  H    1.000074
    78  H    0.999966
    79  H    0.999911
    80  Mg  12.003759
    81  C    5.985126
    82  C    6.016286
    83  C    6.006338
    84  C    5.986871
    85  N    6.996591
    86  C    6.029453
    87  C    5.995740
    88  C    6.010487
    89  C    5.966952
    90  C    5.999473
    91  C    5.996620
    92  C    5.999993
    93  H    1.003799
    94  N    7.004710
    95  C    5.964144
    96  C    5.978799
    97  C    5.982483
    98  C    5.981346
    99  C    6.004434
   100  C    5.985291
   101  O    7.972419
   102  C    6.002622
   103  N    6.995835
   104  C    5.974134
   105  C    6.005483
   106  C    5.991138
   107  C    6.032654
   108  C    6.005125
   109  C    5.994526
   110  C    5.999969
   111  N    7.000242
   112  C    6.032404
   113  C    6.029755
   114  C    6.004454
   115  C    6.023456
   116  C    6.000392
   117  C    6.014358
   118  O    8.027424
   119  C    6.002954
   120  C    6.005600
   121  O    8.004877
   122  O    8.002481
   123  C    5.998728
   124  H    0.995111
   125  H    0.992816
   126  H    1.007285
   127  H    0.994585
   128  H    0.998409
   129  H    0.988778
   130  H    1.002062
   131  H    0.997896
   132  H    1.012262
   133  H    0.993299
   134  H    1.004698
   135  H    0.997494
   136  H    0.982359
   137  H    0.981021
   138  H    0.985229
   139  H    0.989714
   140  H    0.997898
   141  H    0.986818
   142  H    1.003056
   143  H    1.003230
   144  H    1.001194
   145  H    0.988914
   146  H    1.003027
   147  H    0.999415
   148  H    1.010820
   149  H    0.998303
   150  H    0.997282
   151  H    1.005314
   152  H    1.016364
   153  H    1.013490
   154  H    1.018897
   155  H    1.004500
   156  H    1.005888
   157  H    1.000677
   158  H    1.002168
 Sum of Mulliken charges = 624.00000

 Dipole moment (field-independent basis, Debye):
    X=             -9.9517    Y=              1.0170    Z=             -1.0336  Tot=             10.0568
 Quadrupole moment (field-independent basis, Debye-Ang):
   XX=           -355.8423   YY=              1.7576   ZZ=              0.2057
   XY=             23.7631   XZ=            -17.1401   YZ=              0.8040

 Normal termination of Gaussian 16 at Fri Oct 15 17:59:56 2021.
