 Gaussian 16, Revision A.03,
 Gaussian 16:  ES64L-G16RevA.03 25-Dec-2016

 --------------------------------------------------------
 #p PBE1PBE/Def2SVP td=(nstates=5) density=(transition=1)
 --------------------------------------------------------

 --------------------------------
 TDDFT excited states in gaussian
 --------------------------------
 Symbolic Z-matrix:
 Charge =  0 Multiplicity = 1

                         Standard orientation:
 ---------------------------------------------------------------------
 Center     Atomic      Atomic             Coordinates (Angstroms)
 Number     Number       Type             X           Y           Z
 ---------------------------------------------------------------------
      1         12           0       20.396862   -0.875668   -0.091998
      2          6           0       21.227132    2.463148   -0.115763
      3          6           0       17.180835    0.036055    0.949403
      4          6           0       19.525250   -4.133717    0.048697
      5          6           0       23.623925   -1.705216   -0.736335
      6          7           0       19.420315    1.059428    0.619137
      7          6           0       19.921596    2.319991    0.271345
      8          6           0       18.844876    3.418712    0.369823
      9          6           0       17.602508    2.567495    0.824359
     10          6           0       18.029878    1.116694    0.765040
     11          6           0       17.079826    2.960506    2.200328
     12          6           0       18.527789    4.307475   -0.884616
     13          6           0       18.918510    5.881293   -0.794515
     14          1           0       17.684591    6.770584   -0.976446
     15          7           0       18.680399   -1.904962    0.510701
     16          6           0       17.423714   -1.337842    0.777274
     17          6           0       16.375869   -2.362627    0.830358
     18          6           0       17.049948   -3.687153    0.641427
     19          6           0       18.482189   -3.304521    0.317822
     20          6           0       14.919099   -2.043944    1.084964
     21          6           0       16.532669   -5.047284    0.680907
     22          8           0       17.314239   -6.005481    0.589902
     23          6           0       15.064878   -5.369730    0.899843
     24          7           0       21.441664   -2.582059   -0.228758
     25          6           0       20.864470   -3.864578   -0.275490
     26          6           0       21.856902   -5.030554   -0.673773
     27          6           0       23.199220   -4.158195   -0.887549
     28          6           0       22.712862   -2.716761   -0.615205
     29          6           0       22.011748   -6.184358    0.435282
     30          6           0       23.793272   -4.350772   -2.325214
     31          6           0       25.282317   -4.395578   -2.469087
     32          7           0       22.131146    0.196133   -0.270458
     33          6           0       23.400590   -0.289804   -0.596508
     34          6           0       24.301208    0.779028   -0.863906
     35          6           0       23.430191    1.927211   -0.774472
     36          6           0       22.173445    1.486699   -0.340533
     37          6           0       25.714827    0.779787   -1.270961
     38          6           0       23.422351    3.356475   -0.795382
     39          8           0       24.251326    4.231851   -1.067627
     40          6           0       21.992769    3.761480   -0.212935
     41          6           0       22.187880    4.492636    1.067011
     42          8           0       22.096356    4.088005    2.158800
     43          8           0       22.393334    5.847967    0.819815
     44          6           0       22.023208    6.732134    1.905354
     45          1           0       16.157307    0.333188    1.187349
     46          1           0       19.356537   -5.211077   -0.007481
     47          1           0       24.624269   -1.962627   -1.090495
     48          1           0       19.107690    4.088499    1.187904
     49          1           0       16.735815    2.746230    0.187359
     50          1           0       17.236399    2.127059    2.884608
     51          1           0       16.015119    3.101270    2.018044
     52          1           0       17.459317    3.899610    2.602476
     53          1           0       17.458836    4.230628   -1.085017
     54          1           0       19.070266    3.958866   -1.763529
     55          1           0       19.549980    6.008166   -1.674039
     56          1           0       19.412705    6.097026    0.152499
     57          1           0       14.838460   -1.783425    2.141023
     58          1           0       14.338549   -2.941915    0.879179
     59          1           0       14.570846   -1.153728    0.560749
     60          1           0       15.040287   -6.416756    1.202587
     61          1           0       14.438777   -5.188968    0.025476
     62          1           0       14.578870   -4.924228    1.767618
     63          1           0       21.589612   -5.423304   -1.654259
     64          1           0       24.031842   -4.429199   -0.237996
     65          1           0       23.057770   -6.489776    0.468357
     66          1           0       21.522815   -7.134859    0.225250
     67          1           0       21.685503   -5.869510    1.426711
     68          1           0       23.417124   -3.637381   -3.058303
     69          1           0       23.537592   -5.318923   -2.755381
     70          1           0       25.530432   -3.486907   -3.017360
     71          1           0       25.752899   -5.125224   -3.128085
     72          1           0       25.748174   -4.387757   -1.483143
     73          1           0       25.918120   -0.148985   -1.804733
     74          1           0       26.259939    0.773027   -0.327159
     75          1           0       25.936677    1.730437   -1.756251
     76          1           0       21.476260    4.416734   -0.913888
     77          1           0       22.841838    6.626837    2.616480
     78          1           0       21.105060    6.316579    2.320280
     79          1           0       21.954460    7.768502    1.573488
     80         12           0      -21.168056    0.190118    0.189942
     81          6           0      -17.949105    1.089738   -0.770500
     82          6           0      -21.954681   -0.157805   -3.169202
     83          6           0      -24.067634   -1.198778    0.957161
     84          6           0      -20.126318    0.085983    3.488801
     85          7           0      -20.050529    0.275765   -1.729458
     86          6           0      -18.783495    0.799063   -1.886546
     87          6           0      -18.415487    1.011755   -3.325169
     88          6           0      -19.842228    0.965145   -4.030529
     89          6           0      -20.679257    0.288339   -2.953230
     90          6           0      -20.474910    2.246366   -4.755291
     91          6           0      -17.312678    0.010253   -3.905527
     92          6           0      -17.277114   -1.438444   -3.334165
     93          1           0      -17.048626   -2.510111   -4.372878
     94          7           0      -22.754291   -0.688086   -0.943257
     95          6           0      -22.890225   -0.714590   -2.336828
     96          6           0      -24.082510   -1.410044   -2.737378
     97          6           0      -24.729740   -1.757152   -1.527547
     98          6           0      -23.865573   -1.253891   -0.418540
     99          6           0      -24.531867   -1.391060   -4.199278
    100          6           0      -26.092428   -2.486548   -1.513661
    101          8           0      -26.632999   -2.885604   -2.550146
    102          6           0      -26.733896   -2.626992   -0.197634
    103          7           0      -21.878562   -0.556342    1.981983
    104          6           0      -23.233827   -0.828445    2.063817
    105          6           0      -23.722126   -1.026160    3.515775
    106          6           0      -22.334279   -0.826141    4.252021
    107          6           0      -21.379523   -0.462972    3.203423
    108          6           0      -24.803928   -0.144143    4.054467
    109          6           0      -21.821897   -2.159371    4.999277
    110          6           0      -21.341616   -1.849490    6.393116
    111          7           0      -19.448046    0.702658    1.248777
    112          6           0      -19.173304    0.604129    2.600187
    113          6           0      -17.782814    1.039261    2.864784
    114          6           0      -17.255892    1.247387    1.542725
    115          6           0      -18.301272    1.023479    0.639206
    116          6           0      -16.981890    0.985268    4.101900
    117          6           0      -16.066925    1.544354    0.715723
    118          8           0      -14.918761    1.711664    1.056477
    119          6           0      -16.476396    1.494305   -0.791481
    120          6           0      -16.154357    2.762003   -1.447791
    121          8           0      -15.384774    2.998389   -2.379391
    122          8           0      -16.681525    3.793469   -0.627188
    123          6           0      -16.511868    5.167159   -1.147284
    124          1           0      -22.232129   -0.009800   -4.215434
    125          1           0      -25.056992   -1.461027    1.337440
    126          1           0      -19.923279    0.091850    4.561184
    127          1           0      -17.958428    1.992492   -3.456430
    128          1           0      -19.650530    0.223791   -4.806661
    129          1           0      -19.830134    3.122793   -4.817940
    130          1           0      -21.357552    2.643429   -4.254078
    131          1           0      -20.615997    2.025465   -5.813665
    132          1           0      -16.321618    0.459696   -3.852414
    133          1           0      -17.492980   -0.043735   -4.979129
    134          1           0      -18.189414   -1.655524   -2.777731
    135          1           0      -16.455064   -1.534707   -2.625427
    136          1           0      -25.082304   -2.282295   -4.502294
    137          1           0      -23.652705   -1.406986   -4.842890
    138          1           0      -25.178148   -0.518529   -4.297616
    139          1           0      -27.065399   -1.642763    0.131931
    140          1           0      -26.038779   -3.090429    0.503169
    141          1           0      -27.596553   -3.269553   -0.373580
    142          1           0      -23.929975   -2.088454    3.646071
    143          1           0      -22.501908    0.090285    4.817818
    144          1           0      -24.824397   -0.324415    5.129388
    145          1           0      -25.749708   -0.536945    3.681178
    146          1           0      -24.630095    0.893407    3.766753
    147          1           0      -21.047130   -2.587687    4.363498
    148          1           0      -22.512313   -3.002839    5.039152
    149          1           0      -20.260293   -1.983579    6.410023
    150          1           0      -21.626267   -2.619310    7.111139
    151          1           0      -21.521101   -0.798863    6.620387
    152          1           0      -17.496932    0.605882    4.985704
    153          1           0      -16.719600    2.017603    4.330776
    154          1           0      -16.260787    0.214069    3.831792
    155          1           0      -15.891207    0.672952   -1.204379
    156          1           0      -17.501408    5.593781   -0.979299
    157          1           0      -16.237630    5.345421   -2.187090
    158          1           0      -15.901409    5.665868   -0.394241
 ---------------------------------------------------------------------

 SCF Done:  E(RPBE1PBE) =  -4067.36464595     A.U. after   16 cycles

 Excitation energies and oscillator strengths:

 Excited State   1:      Singlet-A      1.8152 eV  683.05 nm  f=0.4005  <S**2>=0.000
     309 -> 315        0.14969
     311 -> 313        0.69577
     311 <- 313       -0.11532
 This state for optimization and/or second-order correction.
 Total Energy, E(TD-HF/TD-DFT) =  -4067.29794040
 Copying the excited state density for this state as the 1-particle RhoCI density.

 Excited State   2:      Singlet-A      1.8711 eV  662.62 nm  f=0.3535  <S**2>=0.000
     310 -> 316       -0.17706
     312 -> 314        0.68990
     312 <- 314       -0.10399

 Excited State   3:      Singlet-A      1.8770 eV  660.56 nm  f=0.0000  <S**2>=0.000
     312 -> 313        0.70710

 Excited State   4:      Singlet-A      2.0509 eV  604.55 nm  f=0.0000  <S**2>=0.000
     311 -> 314        0.70710

 Excited State   5:      Singlet-A      2.1896 eV  566.25 nm  f=0.1155  <S**2>=0.000
     309 -> 313        0.65558
     311 -> 315       -0.22809

 The electronic state is 1-A.
 Alpha  occ. eigenvalues --  -46.92528 -46.91334 -19.25053 -19.22870 -19.20797
 Alpha  occ. eigenvalues --  -19.19780 -19.19204 -19.19144 -19.18858 -19.18424
 Alpha  occ. eigenvalues --  -14.42019 -14.41785 -14.41715 -14.41532 -14.39847
 Alpha  occ. eigenvalues --  -14.39276 -14.38920 -14.38344 -10.36775 -10.35132
 Alpha  occ. eigenvalues --  -10.32387 -10.32202 -10.32201 -10.31528 -10.29403
 Alpha  occ. eigenvalues --  -10.29361 -10.28996 -10.28813 -10.28610 -10.28563
 Alpha  occ. eigenvalues --  -10.28519 -10.28432 -10.28299 -10.28284 -10.28151
 Alpha  occ. eigenvalues --  -10.27986 -10.27934 -10.27868 -10.27811 -10.27310
 Alpha  occ. eigenvalues --  -10.27072 -10.27032 -10.26957 -10.26751 -10.26501
 Alpha  occ. eigenvalues --  -10.26378 -10.26326 -10.26138 -10.26080 -10.26070
 Alpha  occ. eigenvalues --  -10.26032 -10.26019 -10.25958 -10.25907 -10.25767
 Alpha  occ. eigenvalues --  -10.25669 -10.25599 -10.25514 -10.25345 -10.25104
 Alpha  occ. eigenvalues --  -10.25046 -10.24982 -10.24882 -10.24880 -10.24834
 Alpha  occ. eigenvalues --  -10.24794 -10.24634 -10.24581 -10.24452 -10.24394
 Alpha  occ. eigenvalues --  -10.24382 -10.24173 -10.23918 -10.23856 -10.23730
 Alpha  occ. eigenvalues --  -10.23655 -10.23566 -10.23540 -10.23374 -10.23328
 Alpha  occ. eigenvalues --  -10.23302 -10.23289 -10.23253 -10.23240 -10.22794
 Alpha  occ. eigenvalues --  -10.22500  -3.14634  -3.13668  -1.87459  -1.87024
 Alpha  occ. eigenvalues --   -1.86849  -1.86479  -1.86053  -1.85910  -1.11568
 Alpha  occ. eigenvalues --   -1.09578  -1.05222  -1.04056  -1.04050  -1.03042
 Alpha  occ. eigenvalues --   -1.02617  -1.01762  -0.99721  -0.99473  -0.98391
 Alpha  occ. eigenvalues --   -0.98053  -0.97877  -0.96997  -0.96590  -0.95072
 Alpha  occ. eigenvalues --   -0.87062  -0.86859  -0.83986  -0.83551  -0.83438
 Alpha  occ. eigenvalues --   -0.82885  -0.82725  -0.82314  -0.81985  -0.81741
 Alpha  occ. eigenvalues --   -0.81542  -0.81283  -0.80764  -0.80466  -0.79069
 Alpha  occ. eigenvalues --   -0.78798  -0.78440  -0.77802  -0.76984  -0.76638
 Alpha  occ. eigenvalues --   -0.76611  -0.75916  -0.75227  -0.75217  -0.74580
 Alpha  occ. eigenvalues --   -0.74534  -0.72924  -0.72721  -0.71814  -0.71721
 Alpha  occ. eigenvalues --   -0.71129  -0.70986  -0.70546  -0.70128  -0.69596
 Alpha  occ. eigenvalues --   -0.69555  -0.67543  -0.67148  -0.66614  -0.66087
 Alpha  occ. eigenvalues --   -0.63782  -0.63697  -0.63591  -0.63102  -0.62619
 Alpha  occ. eigenvalues --   -0.62398  -0.61915  -0.61280  -0.60897  -0.60099
 Alpha  occ. eigenvalues --   -0.59775  -0.59424  -0.59402  -0.59111  -0.58582
 Alpha  occ. eigenvalues --   -0.58486  -0.57110  -0.55459  -0.54827  -0.54599
 Alpha  occ. eigenvalues --   -0.54014  -0.53971  -0.53587  -0.53576  -0.53128
 Alpha  occ. eigenvalues --   -0.52928  -0.52856  -0.52201  -0.52150  -0.51809
 Alpha  occ. eigenvalues --   -0.51022  -0.50924  -0.50395  -0.50074  -0.49938
 Alpha  occ. eigenvalues --   -0.49758  -0.49675  -0.49149  -0.48496  -0.48417
 Alpha  occ. eigenvalues --   -0.48287  -0.47740  -0.47641  -0.47550  -0.47293
 Alpha  occ. eigenvalues --   -0.47292  -0.47057  -0.46777  -0.46756  -0.46523
 Alpha  occ. eigenvalues --   -0.46381  -0.46292  -0.46186  -0.45956  -0.45804
 Alpha  occ. eigenvalues --   -0.45754  -0.45421  -0.45366  -0.45128  -0.45095
 Alpha  occ. eigenvalues --   -0.44817  -0.44757  -0.44448  -0.44380  -0.44331
 Alpha  occ. eigenvalues --   -0.44243  -0.44103  -0.43914  -0.43522  -0.43451
 Alpha  occ. eigenvalues --   -0.43245  -0.43227  -0.43220  -0.42974  -0.42823
 Alpha  occ. eigenvalues --   -0.42743  -0.42650  -0.42438  -0.41931  -0.41906
 Alpha  occ. eigenvalues --   -0.41680  -0.41630  -0.41520  -0.41278  -0.41144
 Alpha  occ. eigenvalues --   -0.41011  -0.40960  -0.40938  -0.40779  -0.40496
 Alpha  occ. eigenvalues --   -0.40181  -0.40127  -0.40037  -0.39922  -0.39837
 Alpha  occ. eigenvalues --   -0.39778  -0.39740  -0.39549  -0.39445  -0.39428
 Alpha  occ. eigenvalues --   -0.39029  -0.38768  -0.38411  -0.38325  -0.38309
 Alpha  occ. eigenvalues --   -0.38126  -0.37987  -0.37869  -0.37775  -0.37741
 Alpha  occ. eigenvalues --   -0.37721  -0.37363  -0.37216  -0.37032  -0.36811
 Alpha  occ. eigenvalues --   -0.36786  -0.36631  -0.36553  -0.36548  -0.36265
 Alpha  occ. eigenvalues --   -0.36129  -0.36029  -0.35894  -0.35503  -0.35366
 Alpha  occ. eigenvalues --   -0.35072  -0.34899  -0.34814  -0.34092  -0.33984
 Alpha  occ. eigenvalues --   -0.33678  -0.33550  -0.32996  -0.32773  -0.32682
 Alpha  occ. eigenvalues --   -0.32474  -0.32130  -0.31987  -0.31637  -0.31150
 Alpha  occ. eigenvalues --   -0.30602  -0.30339  -0.29817  -0.29747  -0.29647
 Alpha  occ. eigenvalues --   -0.29160  -0.28923  -0.28591  -0.27071  -0.26948
 Alpha  occ. eigenvalues --   -0.26032  -0.25918  -0.25786  -0.25564  -0.25505
 Alpha  occ. eigenvalues --   -0.25377  -0.25229  -0.24790  -0.21266  -0.21036
 Alpha  occ. eigenvalues --   -0.19054  -0.18902
 Alpha virt. eigenvalues --   -0.11681  -0.11196  -0.05766  -0.05747  -0.04235
 Alpha virt. eigenvalues --   -0.03567  -0.02169  -0.01991  -0.01147  -0.00541
 Alpha virt. eigenvalues --   -0.00527   0.00764   0.00840   0.01229   0.01709

 Mulliken charges:
               1
     1  Mg  12.002338
     2  C    5.990252
     3  C    6.010545
     4  C    6.015131
     5  C    5.993219
     6  N    6.995042
     7  C    6.024614
     8  C    5.988163
     9  C    6.008447
    10  C    5.975046
    11  C    6.001058
    12  C    5.998942
    13  C    5.996272
    14  H    1.008423
    15  N    7.000548
    16  C    5.966170
    17  C    5.971226
    18  C    5.987533
    19  C    5.972101
    20  C    6.001982
    21  C    5.988813
    22  O    7.970012
    23  C    6.006317
    24  N    7.001398
    25  C    5.967423
    26  C    6.013253
    27  C    5.987679
    28  C    6.030826
    29  C    6.002617
    30  C    5.994473
    31  C    6.000357
    32  N    7.000504
    33  C    6.034983
    34  C    6.027210
    35  C    6.004828
    36  C    6.024804
    37  C    5.999906
    38  C    6.015971
    39  O    8.032436
    40  C    5.999626
    41  C    6.000814
    42  O    8.008050
    43  O    7.999664
    44  C    5.997993
    45  H    0.991851
    46  H    0.993383
    47  H    1.009508
    48  H    1.002602
    49  H    1.000131
    50  H    1.002864
    51  H    1.000043
    52  H    0.987637
    53  H    1.009040
    54  H    0.997392
    55  H    0.997086
    56  H    0.997949
    57  H    0.980427
    58  H    0.986081
    59  H    0.980756
    60  H    0.986567
    61  H    0.990053
    62  H    0.992284
    63  H    0.997514
    64  H    1.003325
    65  H    0.989603
    66  H    1.001741
    67  H    1.001534
    68  H    1.000645
    69  H    1.011126
    70  H    0.995157
    71  H    1.004967
    72  H    1.000115
    73  H    1.017348
    74  H    1.017862
    75  H    1.012675
    76  H    1.010982
    77  H    1.002120
    78  H    1.006063
    79  H    1.004555
    80  Mg  11.999992
    81  C    5.999721
    82  C    6.000137
    83  C    6.000366
    84  C    5.999918
    85  N    6.999974
    86  C    6.000438
    87  C    5.999884
    88  C    6.000135
    89  C    5.999631
    90  C    6.000046
    91  C    5.999982
    92  C    5.999910
    93  H    1.000137
    94  N    7.000033
    95  C    5.999621
    96  C    5.999748
    97  C    5.999910
    98  C    5.999546
    99  C    6.000048
   100  C    5.999849
   101  O    7.999732
   102  C    6.000063
   103  N    7.000011
   104  C    5.999484
   105  C    6.000159
   106  C    5.999905
   107  C    6.000361
   108  C    6.000032
   109  C    5.999954
   110  C    5.999984
   111  N    7.000013
   112  C    6.000314
   113  C    6.000347
   114  C    6.000097
   115  C    6.000273
   116  C    5.999943
   117  C    6.000195
   118  O    8.000410
   119  C    6.000019
   120  C    6.000063
   121  O    8.000151
   122  O    7.999933
   123  C    5.999997
   124  H    0.999831
   125  H    0.999865
   126  H    1.000121
   127  H    0.999991
   128  H    0.999953
   129  H    0.999848
   130  H    0.999966
   131  H    0.999943
   132  H    1.000014
   133  H    1.000071
   134  H    1.000046
   135  H    1.000012
   136  H    0.999819
   137  H    0.999853
   138  H    0.999760
   139  H    0.999867
   140  H    0.999920
   141  H    0.999817
   142  H    0.999968
   143  H    0.999973
   144  H    0.999885
   145  H    1.000009
   146  H    0.999926
   147  H    1.000039
   148  H    1.000104
   149  H    1.000025
   150  H    1.000042
   151  H    0.999975
   152  H    1.000194
   153  H    1.000190
   154  H    1.000261
   155  H    1.000168
   156  H    0.999987
   157  H    1.000059
   158  H    1.000032
 Sum of Mulliken charges = 624.00000

 Dipole moment (field-independent basis, Debye):
    X=              8.9534    Y=              5.7083    Z=             -1.8993  Tot=             10.7868
 Quadrupole moment (field-independent basis, Debye-Ang):
   XX=            353.6857   YY=             -6.8351   ZZ=              0.3988
   XY=            106.1883   XZ=            -40.6730   YZ=              2.2344

 Normal termination of Gaussian 16 at Fri Oct 15 14:08:55 2021.
