 Gaussian 16, Revision A.03,
 Gaussian 16:  ES64L-G16RevA.03 25-Dec-2016

 --------------------------------------------------------
 #p PBE1PBE/Def2SVP td=(nstates=5) density=(transition=1)
 --------------------------------------------------------

 --------------------------------
 TDDFT excited states in gaussian
 --------------------------------
 Symbolic Z-matrix:
 Charge =  0 Multiplicity = 1

                         Standard orientation:
 ---------------------------------------------------------------------
 Center     Atomic      Atomic             Coordinates (Angstroms)
 Number     Number       Type             X           Y           Z
 ---------------------------------------------------------------------
      1         12           0       16.293461   -0.524505    0.453625
      2          6           0       15.162476    2.287479   -1.361176
      3          6           0       17.640279    1.450440    2.725214
      4          6           0       18.055250   -3.230776    1.569433
      5          6           0       15.677010   -2.460141   -2.636439
      6          7           0       16.414216    1.645252    0.587633
      7          6           0       15.698806    2.558094   -0.100985
      8          6           0       15.748931    3.906020    0.644773
      9          6           0       16.490777    3.638403    1.914965
     10          6           0       16.931228    2.152333    1.749880
     11          6           0       17.597566    4.727578    2.224797
     12          6           0       14.412092    4.692463    0.856268
     13          6           0       14.123293    5.546885    2.164155
     14          1           0       13.510826    6.946062    2.004132
     15          7           0       17.465172   -0.868078    2.099864
     16          6           0       17.917783    0.119756    2.945079
     17          6           0       18.664493   -0.513657    3.994510
     18          6           0       18.860060   -1.916639    3.688115
     19          6           0       18.163110   -2.043844    2.389193
     20          6           0       19.221606    0.338846    5.061567
     21          6           0       19.540281   -3.045228    4.501763
     22          8           0       19.634053   -4.136987    4.045946
     23          6           0       19.857212   -2.847840    5.948396
     24          7           0       16.826516   -2.543038   -0.472700
     25          6           0       17.447803   -3.446695    0.318009
     26          6           0       17.588345   -4.837853   -0.378704
     27          6           0       16.800728   -4.626772   -1.707842
     28          6           0       16.407398   -3.129888   -1.649212
     29          6           0       18.998697   -5.306316   -0.620124
     30          6           0       15.542547   -5.525400   -1.973248
     31          6           0       14.262108   -5.209694   -1.276910
     32          7           0       15.571371   -0.280919   -1.597302
     33          6           0       15.347496   -1.137579   -2.636770
     34          6           0       14.672582   -0.432773   -3.699220
     35          6           0       14.562717    0.919925   -3.282282
     36          6           0       15.170046    0.963996   -2.010893
     37          6           0       14.328915   -0.939877   -5.055285
     38          6           0       14.134432    2.241231   -3.643009
     39          8           0       13.555542    2.701184   -4.620556
     40          6           0       14.457036    3.181699   -2.396491
     41          6           0       15.193206    4.452356   -2.786367
     42          8           0       16.306233    4.469526   -3.245079
     43          8           0       14.400439    5.548675   -2.486248
     44          6           0       15.012463    6.824059   -2.860651
     45          1           0       17.939211    2.002484    3.619147
     46          1           0       18.599372   -4.064045    2.018333
     47          1           0       15.396861   -3.051696   -3.510421
     48          1           0       16.314682    4.470875   -0.096162
     49          1           0       15.783595    3.756072    2.736492
     50          1           0       17.508398    5.546560    1.511249
     51          1           0       18.557301    4.213996    2.281073
     52          1           0       17.397922    5.236846    3.167789
     53          1           0       13.608774    3.957566    0.798740
     54          1           0       14.206074    5.372586    0.029360
     55          1           0       15.093594    5.620108    2.655740
     56          1           0       13.474793    4.972334    2.825657
     57          1           0       20.186861   -0.101035    5.311333
     58          1           0       18.572342    0.227339    5.929162
     59          1           0       19.369204    1.410532    4.927103
     60          1           0       20.881260   -2.478651    5.910711
     61          1           0       19.668132   -3.778669    6.483972
     62          1           0       19.304083   -2.046051    6.438057
     63          1           0       17.022607   -5.611233    0.141227
     64          1           0       17.332712   -4.647515   -2.658464
     65          1           0       19.721708   -4.685036   -0.089979
     66          1           0       19.279876   -5.243982   -1.671720
     67          1           0       19.032150   -6.330939   -0.250646
     68          1           0       15.776849   -6.562635   -1.733534
     69          1           0       15.414252   -5.599786   -3.053350
     70          1           0       14.467137   -4.638827   -0.371069
     71          1           0       13.621119   -6.001758   -0.889139
     72          1           0       13.658371   -4.693310   -2.023876
     73          1           0       15.178524   -1.282623   -5.645165
     74          1           0       14.085158   -0.051989   -5.639206
     75          1           0       13.529892   -1.680978   -5.020678
     76          1           0       13.490464    3.424659   -1.954660
     77          1           0       15.119548    7.085277   -1.808302
     78          1           0       14.202629    7.349857   -3.365871
     79          1           0       15.933703    6.707838   -3.431944
     80         12           0      -15.929249   -0.781709   -0.026847
     81          6           0      -17.963694    2.167557    0.493961
     82          6           0      -13.666413    1.235038   -1.144742
     83          6           0      -14.350202   -3.600000   -0.679835
     84          6           0      -18.851871   -2.880668    0.485302
     85          7           0      -15.814653    1.508300   -0.170065
     86          6           0      -16.714793    2.525341    0.071232
     87          6           0      -16.117696    3.838972   -0.284749
     88          6           0      -14.959784    3.462627   -1.244556
     89          6           0      -14.808464    1.966394   -0.882087
     90          6           0      -15.292152    3.634520   -2.742981
     91          6           0      -15.526615    4.510744    0.992073
     92          6           0      -15.818048    6.050653    1.174707
     93          1           0      -15.690794    6.715540    2.602908
     94          7           0      -14.124026   -1.107254   -0.804782
     95          6           0      -13.269069   -0.168179   -1.111174
     96          6           0      -12.019052   -0.800131   -1.489029
     97          6           0      -12.225783   -2.173561   -1.219513
     98          6           0      -13.620602   -2.332386   -0.908857
     99          6           0      -10.791029    0.043547   -1.876551
    100          6           0      -11.196074   -3.264958   -1.312027
    101          8           0      -11.500131   -4.398589   -1.088883
    102          6           0       -9.772498   -2.903021   -1.584637
    103          7           0      -16.664457   -2.970046   -0.351455
    104          6           0      -15.691860   -3.873140   -0.456859
    105          6           0      -16.178294   -5.249702   -0.198870
    106          6           0      -17.706860   -4.986991   -0.017552
    107          6           0      -17.805365   -3.485668    0.046074
    108          6           0      -15.791595   -6.371901   -1.228132
    109          6           0      -18.265303   -5.731222    1.257657
    110          6           0      -19.143853   -7.001588    1.085151
    111          7           0      -17.908247   -0.526232    0.379961
    112          6           0      -18.973073   -1.416816    0.642746
    113          6           0      -20.181027   -0.645282    1.001403
    114          6           0      -19.803962    0.690522    0.965553
    115          6           0      -18.482608    0.749942    0.556172
    116          6           0      -21.594483   -1.243264    1.203012
    117          6           0      -20.348912    2.068443    1.187661
    118          8           0      -21.415492    2.497659    1.559606
    119          6           0      -19.209675    3.105024    0.718216
    120          6           0      -19.064426    4.177223    1.632931
    121          8           0      -18.245661    4.142608    2.562160
    122          8           0      -19.918389    5.263146    1.467047
    123          6           0      -19.679852    6.501092    2.270823
    124          1           0      -12.805395    1.803017   -1.501472
    125          1           0      -13.809196   -4.535867   -0.833869
    126          1           0      -19.736504   -3.497329    0.651472
    127          1           0      -16.829179    4.424202   -0.867916
    128          1           0      -14.023355    4.004380   -1.112928
    129          1           0      -14.612791    4.351439   -3.205022
    130          1           0      -16.316984    4.000276   -2.799358
    131          1           0      -15.272987    2.710928   -3.322207
    132          1           0      -14.448898    4.373977    0.901204
    133          1           0      -15.883212    3.914674    1.831852
    134          1           0      -16.810102    6.247087    0.768987
    135          1           0      -15.076061    6.501964    0.514942
    136          1           0      -10.019787   -0.104863   -1.119619
    137          1           0      -10.973238    1.105163   -2.039939
    138          1           0      -10.313083   -0.375348   -2.761636
    139          1           0       -9.344290   -2.276999   -0.802238
    140          1           0       -9.583183   -2.274719   -2.454909
    141          1           0       -9.174686   -3.814803   -1.585664
    142          1           0      -15.775018   -5.564629    0.763578
    143          1           0      -18.229083   -5.256918   -0.935698
    144          1           0      -15.097957   -5.912548   -1.931610
    145          1           0      -16.607089   -6.907947   -1.714930
    146          1           0      -15.285856   -7.172022   -0.687374
    147          1           0      -18.894717   -5.041277    1.820382
    148          1           0      -17.411177   -5.795918    1.931726
    149          1           0      -18.809262   -7.778700    1.772159
    150          1           0      -19.090233   -7.342279    0.051011
    151          1           0      -20.183591   -6.786630    1.334708
    152          1           0      -21.474026   -2.241739    1.622356
    153          1           0      -22.058622   -1.396190    0.228420
    154          1           0      -22.213071   -0.624286    1.853284
    155          1           0      -19.500654    3.501519   -0.254080
    156          1           0      -18.714215    6.946724    2.027812
    157          1           0      -19.932366    6.351867    3.319932
    158          1           0      -20.326562    7.270383    1.849043
 ---------------------------------------------------------------------

 SCF Done:  E(RPBE1PBE) =  -4067.33186674     A.U. after   16 cycles

 Excitation energies and oscillator strengths:

 Excited State   1:      Singlet-A      1.8610 eV  666.22 nm  f=0.3795  <S**2>=0.000
     309 -> 315        0.17905
     312 -> 314        0.69026
     312 <- 314       -0.10748
 This state for optimization and/or second-order correction.
 Total Energy, E(TD-HF/TD-DFT) =  -4067.26347600
 Copying the excited state density for this state as the 1-particle RhoCI density.

 Excited State   2:      Singlet-A      1.8727 eV  662.07 nm  f=0.0000  <S**2>=0.000
     312 -> 313        0.70710

 Excited State   3:      Singlet-A      1.8808 eV  659.22 nm  f=0.3595  <S**2>=0.000
     310 -> 316       -0.15918
     311 -> 313        0.69480
     311 <- 313       -0.10988

 Excited State   4:      Singlet-A      2.0696 eV  599.06 nm  f=0.0000  <S**2>=0.000
     311 -> 314        0.70710

 Excited State   5:      Singlet-A      2.1921 eV  565.59 nm  f=0.1024  <S**2>=0.000
     309 -> 314        0.65382
     312 -> 315       -0.25424

 The electronic state is 1-A.
 Alpha  occ. eigenvalues --  -46.93432 -46.92839 -19.25503 -19.24669 -19.20306
 Alpha  occ. eigenvalues --  -19.20078 -19.19727 -19.19235 -19.18955 -19.18800
 Alpha  occ. eigenvalues --  -14.41794 -14.41287 -14.41193 -14.39741 -14.39689
 Alpha  occ. eigenvalues --  -14.39236 -14.39174 -14.38556 -10.36185 -10.35524
 Alpha  occ. eigenvalues --  -10.33337 -10.32808 -10.32026 -10.32021 -10.29327
 Alpha  occ. eigenvalues --  -10.28920 -10.28895 -10.28589 -10.28568 -10.28511
 Alpha  occ. eigenvalues --  -10.28511 -10.28443 -10.28235 -10.28009 -10.27943
 Alpha  occ. eigenvalues --  -10.27929 -10.27523 -10.27468 -10.27196 -10.27068
 Alpha  occ. eigenvalues --  -10.26833 -10.26660 -10.26646 -10.26480 -10.26398
 Alpha  occ. eigenvalues --  -10.26301 -10.26112 -10.25992 -10.25946 -10.25861
 Alpha  occ. eigenvalues --  -10.25824 -10.25758 -10.25627 -10.25541 -10.25494
 Alpha  occ. eigenvalues --  -10.25414 -10.25337 -10.25337 -10.25274 -10.25116
 Alpha  occ. eigenvalues --  -10.24684 -10.24611 -10.24526 -10.24457 -10.24439
 Alpha  occ. eigenvalues --  -10.24437 -10.24376 -10.24045 -10.24017 -10.23934
 Alpha  occ. eigenvalues --  -10.23873 -10.23820 -10.23814 -10.23715 -10.23712
 Alpha  occ. eigenvalues --  -10.23664 -10.23475 -10.23416 -10.23263 -10.23179
 Alpha  occ. eigenvalues --  -10.23143 -10.23019 -10.22897 -10.22721 -10.22599
 Alpha  occ. eigenvalues --  -10.22414  -3.15326  -3.14942  -1.88136  -1.87768
 Alpha  occ. eigenvalues --   -1.87707  -1.87538  -1.87322  -1.87167  -1.11128
 Alpha  occ. eigenvalues --   -1.08964  -1.07621  -1.06707  -1.05819  -1.04044
 Alpha  occ. eigenvalues --   -1.03446  -1.00906  -1.00501  -0.99621  -0.99483
 Alpha  occ. eigenvalues --   -0.98868  -0.97823  -0.97167  -0.96518  -0.95932
 Alpha  occ. eigenvalues --   -0.86027  -0.85712  -0.83597  -0.83548  -0.83250
 Alpha  occ. eigenvalues --   -0.83188  -0.82588  -0.82302  -0.81976  -0.81785
 Alpha  occ. eigenvalues --   -0.81733  -0.81459  -0.80494  -0.79735  -0.78664
 Alpha  occ. eigenvalues --   -0.78307  -0.77996  -0.77397  -0.76699  -0.76333
 Alpha  occ. eigenvalues --   -0.76280  -0.76059  -0.75325  -0.75207  -0.74806
 Alpha  occ. eigenvalues --   -0.74724  -0.72940  -0.72623  -0.71480  -0.71461
 Alpha  occ. eigenvalues --   -0.71442  -0.71078  -0.70518  -0.70244  -0.69746
 Alpha  occ. eigenvalues --   -0.69064  -0.67372  -0.66843  -0.65915  -0.65541
 Alpha  occ. eigenvalues --   -0.64142  -0.63682  -0.63523  -0.63223  -0.62745
 Alpha  occ. eigenvalues --   -0.62408  -0.61694  -0.61364  -0.60488  -0.60080
 Alpha  occ. eigenvalues --   -0.59609  -0.59528  -0.58831  -0.58816  -0.58684
 Alpha  occ. eigenvalues --   -0.58555  -0.56316  -0.55892  -0.55648  -0.54693
 Alpha  occ. eigenvalues --   -0.54569  -0.54135  -0.53666  -0.53427  -0.52979
 Alpha  occ. eigenvalues --   -0.52599  -0.52571  -0.52207  -0.51983  -0.51803
 Alpha  occ. eigenvalues --   -0.51062  -0.50655  -0.50461  -0.50337  -0.50128
 Alpha  occ. eigenvalues --   -0.49957  -0.49649  -0.49215  -0.48672  -0.48571
 Alpha  occ. eigenvalues --   -0.48446  -0.48199  -0.47946  -0.47783  -0.47456
 Alpha  occ. eigenvalues --   -0.47372  -0.47113  -0.47010  -0.46997  -0.46664
 Alpha  occ. eigenvalues --   -0.46420  -0.46362  -0.45980  -0.45769  -0.45538
 Alpha  occ. eigenvalues --   -0.45408  -0.45216  -0.44964  -0.44930  -0.44886
 Alpha  occ. eigenvalues --   -0.44694  -0.44636  -0.44455  -0.44297  -0.44182
 Alpha  occ. eigenvalues --   -0.44041  -0.43907  -0.43860  -0.43674  -0.43547
 Alpha  occ. eigenvalues --   -0.43426  -0.43389  -0.43278  -0.43005  -0.42968
 Alpha  occ. eigenvalues --   -0.42499  -0.42376  -0.42358  -0.42237  -0.42122
 Alpha  occ. eigenvalues --   -0.41947  -0.41886  -0.41514  -0.41142  -0.40954
 Alpha  occ. eigenvalues --   -0.40815  -0.40605  -0.40544  -0.40385  -0.40323
 Alpha  occ. eigenvalues --   -0.40238  -0.40218  -0.39681  -0.39627  -0.39405
 Alpha  occ. eigenvalues --   -0.39398  -0.39364  -0.39091  -0.39082  -0.38911
 Alpha  occ. eigenvalues --   -0.38805  -0.38546  -0.38434  -0.38269  -0.38186
 Alpha  occ. eigenvalues --   -0.38147  -0.37952  -0.37862  -0.37733  -0.37670
 Alpha  occ. eigenvalues --   -0.37523  -0.37323  -0.37246  -0.37162  -0.36944
 Alpha  occ. eigenvalues --   -0.36770  -0.36741  -0.36470  -0.36237  -0.35921
 Alpha  occ. eigenvalues --   -0.35800  -0.35533  -0.35436  -0.35307  -0.35115
 Alpha  occ. eigenvalues --   -0.35043  -0.34851  -0.34779  -0.34129  -0.33941
 Alpha  occ. eigenvalues --   -0.33300  -0.33101  -0.32888  -0.32666  -0.32424
 Alpha  occ. eigenvalues --   -0.32068  -0.32014  -0.31554  -0.31191  -0.30926
 Alpha  occ. eigenvalues --   -0.30826  -0.30700  -0.29583  -0.28851  -0.28805
 Alpha  occ. eigenvalues --   -0.28718  -0.28358  -0.27716  -0.27251  -0.26582
 Alpha  occ. eigenvalues --   -0.26572  -0.26493  -0.26145  -0.26027  -0.25642
 Alpha  occ. eigenvalues --   -0.25506  -0.25432  -0.25065  -0.20803  -0.20537
 Alpha  occ. eigenvalues --   -0.19129  -0.18728
 Alpha virt. eigenvalues --   -0.11436  -0.11127  -0.05131  -0.04035  -0.03819
 Alpha virt. eigenvalues --   -0.03330  -0.01994  -0.01810  -0.01698  -0.00485
 Alpha virt. eigenvalues --   -0.00063   0.00277   0.00919   0.01023   0.01674

 Mulliken charges:
               1
     1  Mg  11.999232
     2  C    5.975863
     3  C    6.006997
     4  C    6.016462
     5  C    5.999298
     6  N    6.985684
     7  C    6.033756
     8  C    5.994196
     9  C    6.011168
    10  C    5.969249
    11  C    5.999833
    12  C    5.998337
    13  C    6.002595
    14  H    0.997588
    15  N    7.006587
    16  C    5.964783
    17  C    5.980110
    18  C    5.983243
    19  C    5.972952
    20  C    6.005860
    21  C    5.986776
    22  O    7.975263
    23  C    6.004149
    24  N    7.001641
    25  C    5.973039
    26  C    6.011031
    27  C    5.996861
    28  C    6.025115
    29  C    6.000425
    30  C    5.995101
    31  C    5.993131
    32  N    6.998647
    33  C    6.028803
    34  C    6.037031
    35  C    5.998663
    36  C    6.031639
    37  C    5.997808
    38  C    6.014899
    39  O    8.027747
    40  C    6.002698
    41  C    6.003729
    42  O    8.003590
    43  O    8.001465
    44  C    5.998936
    45  H    0.990862
    46  H    0.995209
    47  H    1.011194
    48  H    0.997460
    49  H    0.995523
    50  H    0.988980
    51  H    1.003280
    52  H    0.997588
    53  H    0.997852
    54  H    0.995851
    55  H    1.006448
    56  H    1.001850
    57  H    0.983359
    58  H    0.980415
    59  H    0.981613
    60  H    0.991655
    61  H    0.987040
    62  H    0.996452
    63  H    0.998882
    64  H    0.998914
    65  H    1.007113
    66  H    0.991813
    67  H    0.999059
    68  H    1.010761
    69  H    0.998660
    70  H    1.009221
    71  H    1.007354
    72  H    0.993790
    73  H    1.021623
    74  H    1.012722
    75  H    1.019655
    76  H    1.006123
    77  H    1.005794
    78  H    1.001845
    79  H    1.002060
    80  Mg  12.000208
    81  C    5.998900
    82  C    5.999851
    83  C    6.000808
    84  C    5.999707
    85  N    6.999093
    86  C    6.001564
    87  C    5.999705
    88  C    6.000345
    89  C    5.998795
    90  C    6.000264
    91  C    5.999842
    92  C    5.999879
    93  H    1.000171
    94  N    7.000552
    95  C    5.998315
    96  C    5.998682
    97  C    5.999467
    98  C    5.998239
    99  C    6.000222
   100  C    5.999308
   101  O    7.998722
   102  C    6.000357
   103  N    6.999997
   104  C    5.998422
   105  C    6.000634
   106  C    5.999489
   107  C    6.001097
   108  C    5.999971
   109  C    5.999876
   110  C    6.000010
   111  N    7.000143
   112  C    6.002018
   113  C    6.001849
   114  C    5.999867
   115  C    6.001854
   116  C    6.000017
   117  C    6.000884
   118  O    8.001347
   119  C    6.000258
   120  C    6.000171
   121  O    8.000479
   122  O    8.000008
   123  C    5.999858
   124  H    0.999252
   125  H    0.999657
   126  H    1.000611
   127  H    0.999916
   128  H    0.999885
   129  H    0.999763
   130  H    0.999276
   131  H    1.000067
   132  H    1.000689
   133  H    0.999822
   134  H    0.999833
   135  H    1.000244
   136  H    0.998949
   137  H    0.999055
   138  H    0.998877
   139  H    0.999588
   140  H    0.999533
   141  H    0.999136
   142  H    0.999980
   143  H    1.000155
   144  H    1.000262
   145  H    0.999599
   146  H    0.999947
   147  H    0.999641
   148  H    1.000429
   149  H    1.000294
   150  H    1.000198
   151  H    0.999893
   152  H    1.000973
   153  H    1.001192
   154  H    1.000935
   155  H    1.000416
   156  H    1.000286
   157  H    1.000162
   158  H    1.000237
 Sum of Mulliken charges = 624.00000

 Dipole moment (field-independent basis, Debye):
    X=             -5.4451    Y=              0.8775    Z=             -8.7825  Tot=             10.3706
 Quadrupole moment (field-independent basis, Debye-Ang):
   XX=           -146.0843   YY=              1.3450   ZZ=             -2.8329
   XY=             15.1769   XZ=           -153.5254   YZ=              4.6203

 Normal termination of Gaussian 16 at Thu Oct 14 09:11:09 2021.
