 Gaussian 16, Revision A.03,
 Gaussian 16:  ES64L-G16RevA.03 25-Dec-2016

 --------------------------------------------------------
 #p PBE1PBE/Def2SVP td=(nstates=5) density=(transition=1)
 --------------------------------------------------------

 --------------------------------
 TDDFT excited states in gaussian
 --------------------------------
 Symbolic Z-matrix:
 Charge =  0 Multiplicity = 1

                         Standard orientation:
 ---------------------------------------------------------------------
 Center     Atomic      Atomic             Coordinates (Angstroms)
 Number     Number       Type             X           Y           Z
 ---------------------------------------------------------------------
      1         12           0      -21.915060   -0.691922   -0.337958
      2          6           0      -23.828946    1.857398    1.289992
      3          6           0      -20.818929    1.715573   -2.493307
      4          6           0      -20.580523   -2.995576   -2.060982
      5          6           0      -24.000659   -3.027892    1.191481
      6          7           0      -22.339913    1.476024   -0.479934
      7          6           0      -23.044069    2.342523    0.241533
      8          6           0      -22.810633    3.825886   -0.173818
      9          6           0      -22.329092    3.593903   -1.675916
     10          6           0      -21.762969    2.191843   -1.535712
     11          6           0      -23.472877    3.563185   -2.684536
     12          6           0      -21.697437    4.515524    0.684625
     13          6           0      -21.634060    6.041256    0.568525
     14          1           0      -21.283221    6.819275    1.747061
     15          7           0      -20.494266   -0.607762   -1.708035
     16          6           0      -20.175417    0.459160   -2.479590
     17          6           0      -19.054027    0.020748   -3.338054
     18          6           0      -18.872249   -1.443643   -3.136535
     19          6           0      -20.006568   -1.749711   -2.302856
     20          6           0      -18.255048    0.958189   -4.190454
     21          6           0      -17.845933   -2.415183   -3.627371
     22          8           0      -18.003181   -3.679917   -3.525914
     23          6           0      -16.676796   -1.842390   -4.318798
     24          7           0      -22.371239   -2.711406   -0.604831
     25          6           0      -21.597681   -3.499740   -1.359231
     26          6           0      -21.950268   -4.946286   -1.177222
     27          6           0      -22.971000   -5.001533    0.049484
     28          6           0      -23.096396   -3.482008    0.320760
     29          6           0      -22.576950   -5.640639   -2.394248
     30          6           0      -22.601187   -5.933575    1.230566
     31          6           0      -21.376688   -5.401062    1.940588
     32          7           0      -23.503153   -0.642953    1.140760
     33          6           0      -24.249061   -1.732434    1.613334
     34          6           0      -25.278210   -1.190744    2.519696
     35          6           0      -25.068683    0.186750    2.498373
     36          6           0      -23.994674    0.488819    1.613189
     37          6           0      -26.282015   -1.946477    3.187287
     38          6           0      -25.518206    1.475813    2.998473
     39          8           0      -26.330738    1.840316    3.849604
     40          6           0      -24.813088    2.618809    2.142789
     41          6           0      -24.267820    3.637183    3.106587
     42          8           0      -23.331173    3.349363    3.879386
     43          8           0      -24.766862    4.845884    2.805689
     44          6           0      -24.242737    5.907286    3.706173
     45          1           0      -20.594160    2.333081   -3.365146
     46          1           0      -20.077799   -3.831754   -2.551401
     47          1           0      -24.632597   -3.704006    1.770253
     48          1           0      -23.706074    4.447548   -0.161736
     49          1           0      -21.543865    4.292564   -1.964035
     50          1           0      -24.442790    3.576914   -2.187544
     51          1           0      -23.344101    2.635489   -3.242470
     52          1           0      -23.368747    4.367808   -3.412902
     53          1           0      -20.719225    4.257783    0.278754
     54          1           0      -21.792443    4.237510    1.734867
     55          1           0      -22.532573    6.442935    0.099231
     56          1           0      -20.830148    6.298189   -0.121337
     57          1           0      -18.726968    1.937506   -4.259559
     58          1           0      -18.286864    0.568933   -5.207890
     59          1           0      -17.219636    1.033762   -3.857974
     60          1           0      -17.014222   -1.274076   -5.185810
     61          1           0      -16.007168   -2.677891   -4.519761
     62          1           0      -16.188965   -1.128064   -3.654940
     63          1           0      -21.067548   -5.536372   -0.934260
     64          1           0      -23.960816   -5.340657   -0.257000
     65          1           0      -22.029253   -6.523510   -2.724811
     66          1           0      -22.657429   -4.907366   -3.196199
     67          1           0      -23.617805   -5.936565   -2.265929
     68          1           0      -22.352133   -6.928998    0.864438
     69          1           0      -23.402420   -6.040072    1.961958
     70          1           0      -20.557077   -5.791426    1.338355
     71          1           0      -21.330285   -5.786334    2.959717
     72          1           0      -21.328814   -4.313112    1.889985
     73          1           0      -26.326515   -1.561685    4.206072
     74          1           0      -26.049440   -3.011080    3.175756
     75          1           0      -27.154542   -1.703088    2.581223
     76          1           0      -25.578314    3.040079    1.491572
     77          1           0      -25.104323    6.402177    4.154489
     78          1           0      -23.565158    6.515501    3.106702
     79          1           0      -23.714725    5.566010    4.597281
     80         12           0       22.115780   -0.494365    0.468904
     81          6           0       21.748319    2.232276   -1.572164
     82          6           0       22.487747    1.519050    3.116010
     83          6           0       22.701475   -3.263457    2.299819
     84          6           0       22.226433   -2.584531   -2.504013
     85          7           0       22.382846    1.696679    0.668608
     86          6           0       22.081874    2.616782   -0.255723
     87          6           0       22.139229    4.100543    0.377410
     88          6           0       22.373912    3.738623    1.891649
     89          6           0       22.468673    2.200047    1.931602
     90          6           0       23.552502    4.495657    2.534123
     91          6           0       20.853366    4.939150    0.129202
     92          6           0       20.635547    6.232321    0.980776
     93          1           0       20.912608    7.620299    0.287923
     94          7           0       22.589008   -0.822570    2.449636
     95          6           0       22.596377    0.097527    3.391622
     96          6           0       22.849572   -0.549009    4.670319
     97          6           0       23.032340   -1.951502    4.478278
     98          6           0       22.768097   -2.067729    3.027269
     99          6           0       23.067787    0.166762    5.993083
    100          6           0       23.436780   -3.046941    5.459359
    101          8           0       23.828043   -4.140404    5.061514
    102          6           0       23.353767   -2.766505    6.919016
    103          7           0       22.466017   -2.623465   -0.049375
    104          6           0       22.631989   -3.545302    0.891630
    105          6           0       22.605978   -4.970681    0.315331
    106          6           0       22.246279   -4.683773   -1.140144
    107          6           0       22.355287   -3.207549   -1.232947
    108          6           0       23.852245   -5.848223    0.504528
    109          6           0       20.992191   -5.374550   -1.612841
    110          6           0       21.172099   -6.427924   -2.763522
    111          7           0       21.964367   -0.279238   -1.558493
    112          6           0       21.939815   -1.204621   -2.655329
    113          6           0       21.639364   -0.531798   -3.899955
    114          6           0       21.549057    0.817888   -3.459279
    115          6           0       21.759907    0.901583   -2.077210
    116          6           0       21.323585   -1.056573   -5.256126
    117          6           0       21.123314    2.096269   -3.970552
    118          8           0       20.604096    2.474485   -5.031316
    119          6           0       21.335704    3.107343   -2.871699
    120          6           0       22.550310    3.985284   -3.245647
    121          8           0       23.630074    3.616355   -3.732501
    122          8           0       22.235648    5.274955   -2.935352
    123          6           0       23.250103    6.332564   -3.242418
    124          1           0       22.500944    2.052864    4.068557
    125          1           0       23.077755   -4.173878    2.770996
    126          1           0       22.134676   -3.288903   -3.332729
    127          1           0       23.030530    4.537606   -0.071303
    128          1           0       21.460066    3.986434    2.431581
    129          1           0       23.220465    4.817156    3.520687
    130          1           0       23.806932    5.399684    1.980752
    131          1           0       24.430337    3.854280    2.613444
    132          1           0       20.034679    4.307886    0.474646
    133          1           0       20.804080    5.244438   -0.915949
    134          1           0       21.383981    6.215741    1.773700
    135          1           0       19.600443    6.255678    1.319785
    136          1           0       22.976107    1.247035    5.880586
    137          1           0       24.065550   -0.057737    6.369354
    138          1           0       22.356894   -0.157274    6.752111
    139          1           0       22.358630   -2.347648    7.071155
    140          1           0       24.039887   -2.095646    7.435122
    141          1           0       23.461660   -3.663388    7.528031
    142          1           0       21.783149   -5.502195    0.792178
    143          1           0       23.043848   -5.099766   -1.755465
    144          1           0       23.446694   -6.838621    0.709786
    145          1           0       24.495708   -5.439029    1.283248
    146          1           0       24.539016   -5.842912   -0.341828
    147          1           0       20.410919   -4.569243   -2.060829
    148          1           0       20.449895   -5.887634   -0.819160
    149          1           0       22.218631   -6.474065   -3.065935
    150          1           0       20.589088   -6.076487   -3.615363
    151          1           0       20.767968   -7.419313   -2.558258
    152          1           0       21.198368   -2.138430   -5.219905
    153          1           0       22.230378   -0.899840   -5.839164
    154          1           0       20.413210   -0.532675   -5.550976
    155          1           0       20.408341    3.680217   -2.855185
    156          1           0       24.269837    6.100852   -2.933952
    157          1           0       22.993276    7.323935   -2.870620
    158          1           0       23.301241    6.373831   -4.330303
 ---------------------------------------------------------------------

 SCF Done:  E(RPBE1PBE) =  -4067.38334059     A.U. after   16 cycles

 Excitation energies and oscillator strengths:

 Excited State   1:      Singlet-A      1.8414 eV  673.31 nm  f=0.3718  <S**2>=0.000
     309 -> 316       -0.16191
     311 -> 313        0.69322
     311 <- 313       -0.11106
 This state for optimization and/or second-order correction.
 Total Energy, E(TD-HF/TD-DFT) =  -4067.31566981
 Copying the excited state density for this state as the 1-particle RhoCI density.

 Excited State   2:      Singlet-A      1.8791 eV  659.82 nm  f=0.3918  <S**2>=0.000
     310 -> 315        0.16661
     312 -> 314        0.69066
     312 <- 314       -0.10565

 Excited State   3:      Singlet-A      1.9663 eV  630.54 nm  f=0.0000  <S**2>=0.000
     312 -> 313        0.70711

 Excited State   4:      Singlet-A      2.0183 eV  614.31 nm  f=0.0000  <S**2>=0.000
     311 -> 314        0.70711

 Excited State   5:      Singlet-A      2.1929 eV  565.38 nm  f=0.0922  <S**2>=0.000
     309 -> 313        0.65165
     311 -> 316        0.24162

 The electronic state is 1-A.
 Alpha  occ. eigenvalues --  -46.92592 -46.91187 -19.26921 -19.26307 -19.19740
 Alpha  occ. eigenvalues --  -19.19673 -19.19301 -19.19007 -19.18412 -19.18013
 Alpha  occ. eigenvalues --  -14.41942 -14.41458 -14.41389 -14.40955 -14.39645
 Alpha  occ. eigenvalues --  -14.39047 -14.38973 -14.38252 -10.36644 -10.36104
 Alpha  occ. eigenvalues --  -10.33159 -10.32488 -10.31569 -10.30548 -10.29422
 Alpha  occ. eigenvalues --  -10.29421 -10.29142 -10.28904 -10.28659 -10.28632
 Alpha  occ. eigenvalues --  -10.28259 -10.28215 -10.28133 -10.28113 -10.27999
 Alpha  occ. eigenvalues --  -10.27923 -10.27815 -10.27807 -10.27541 -10.27255
 Alpha  occ. eigenvalues --  -10.27033 -10.26885 -10.26564 -10.26443 -10.26291
 Alpha  occ. eigenvalues --  -10.26213 -10.26153 -10.26058 -10.26015 -10.25896
 Alpha  occ. eigenvalues --  -10.25837 -10.25603 -10.25591 -10.25450 -10.25373
 Alpha  occ. eigenvalues --  -10.25345 -10.25269 -10.25251 -10.25207 -10.25196
 Alpha  occ. eigenvalues --  -10.24961 -10.24847 -10.24840 -10.24773 -10.24514
 Alpha  occ. eigenvalues --  -10.24454 -10.24371 -10.24278 -10.24059 -10.23968
 Alpha  occ. eigenvalues --  -10.23909 -10.23792 -10.23780 -10.23683 -10.23659
 Alpha  occ. eigenvalues --  -10.23641 -10.23610 -10.23610 -10.23272 -10.23170
 Alpha  occ. eigenvalues --  -10.23153 -10.22910 -10.22591 -10.22398 -10.22212
 Alpha  occ. eigenvalues --  -10.22090  -3.14698  -3.13504  -1.87530  -1.87066
 Alpha  occ. eigenvalues --   -1.86934  -1.86327  -1.85892  -1.85738  -1.11419
 Alpha  occ. eigenvalues --   -1.10361  -1.05047  -1.03364  -1.02763  -1.01834
 Alpha  occ. eigenvalues --   -1.01447  -1.01389  -1.00345  -0.99168  -0.99053
 Alpha  occ. eigenvalues --   -0.98578  -0.98364  -0.97896  -0.97686  -0.97085
 Alpha  occ. eigenvalues --   -0.86326  -0.85680  -0.84238  -0.83830  -0.83449
 Alpha  occ. eigenvalues --   -0.83011  -0.82588  -0.82495  -0.82200  -0.81971
 Alpha  occ. eigenvalues --   -0.81791  -0.81481  -0.81434  -0.81321  -0.79229
 Alpha  occ. eigenvalues --   -0.78478  -0.78221  -0.77610  -0.77153  -0.76869
 Alpha  occ. eigenvalues --   -0.76513  -0.76404  -0.75890  -0.75410  -0.74939
 Alpha  occ. eigenvalues --   -0.74432  -0.73100  -0.72874  -0.71848  -0.71541
 Alpha  occ. eigenvalues --   -0.71227  -0.71050  -0.70408  -0.70238  -0.69712
 Alpha  occ. eigenvalues --   -0.69222  -0.67237  -0.67116  -0.66156  -0.66084
 Alpha  occ. eigenvalues --   -0.64216  -0.63791  -0.63463  -0.63228  -0.62223
 Alpha  occ. eigenvalues --   -0.62115  -0.61999  -0.61550  -0.60306  -0.59703
 Alpha  occ. eigenvalues --   -0.59475  -0.59415  -0.59093  -0.58932  -0.58764
 Alpha  occ. eigenvalues --   -0.58444  -0.57222  -0.56871  -0.55246  -0.54941
 Alpha  occ. eigenvalues --   -0.54302  -0.54246  -0.53619  -0.53487  -0.53274
 Alpha  occ. eigenvalues --   -0.53115  -0.52630  -0.52101  -0.51891  -0.51799
 Alpha  occ. eigenvalues --   -0.50909  -0.50869  -0.50370  -0.50246  -0.50050
 Alpha  occ. eigenvalues --   -0.49831  -0.49677  -0.49126  -0.49076  -0.48656
 Alpha  occ. eigenvalues --   -0.48455  -0.48320  -0.48013  -0.47949  -0.47749
 Alpha  occ. eigenvalues --   -0.47550  -0.47157  -0.47098  -0.47098  -0.46975
 Alpha  occ. eigenvalues --   -0.46785  -0.46413  -0.46389  -0.46181  -0.45855
 Alpha  occ. eigenvalues --   -0.45774  -0.45677  -0.45343  -0.45078  -0.45032
 Alpha  occ. eigenvalues --   -0.44630  -0.44591  -0.44479  -0.44393  -0.44230
 Alpha  occ. eigenvalues --   -0.44125  -0.43976  -0.43859  -0.43704  -0.43620
 Alpha  occ. eigenvalues --   -0.43571  -0.43216  -0.43210  -0.43112  -0.43007
 Alpha  occ. eigenvalues --   -0.42870  -0.42473  -0.42333  -0.42302  -0.41960
 Alpha  occ. eigenvalues --   -0.41946  -0.41561  -0.41479  -0.41241  -0.41185
 Alpha  occ. eigenvalues --   -0.41067  -0.40915  -0.40871  -0.40682  -0.40551
 Alpha  occ. eigenvalues --   -0.39937  -0.39722  -0.39569  -0.39299  -0.39286
 Alpha  occ. eigenvalues --   -0.39219  -0.39150  -0.38896  -0.38867  -0.38834
 Alpha  occ. eigenvalues --   -0.38813  -0.38740  -0.38683  -0.38381  -0.38278
 Alpha  occ. eigenvalues --   -0.38235  -0.37856  -0.37771  -0.37689  -0.37487
 Alpha  occ. eigenvalues --   -0.37443  -0.37018  -0.36860  -0.36855  -0.36809
 Alpha  occ. eigenvalues --   -0.36751  -0.36560  -0.36393  -0.36365  -0.35966
 Alpha  occ. eigenvalues --   -0.35959  -0.35774  -0.35695  -0.35589  -0.35478
 Alpha  occ. eigenvalues --   -0.35407  -0.35006  -0.34332  -0.34235  -0.34020
 Alpha  occ. eigenvalues --   -0.33414  -0.33248  -0.32886  -0.32721  -0.32379
 Alpha  occ. eigenvalues --   -0.32252  -0.32102  -0.31703  -0.31680  -0.31253
 Alpha  occ. eigenvalues --   -0.31220  -0.31033  -0.29514  -0.29506  -0.29149
 Alpha  occ. eigenvalues --   -0.28914  -0.28689  -0.28411  -0.26792  -0.26717
 Alpha  occ. eigenvalues --   -0.26638  -0.26154  -0.25999  -0.25378  -0.25112
 Alpha  occ. eigenvalues --   -0.24949  -0.24825  -0.24808  -0.20973  -0.20873
 Alpha  occ. eigenvalues --   -0.18756  -0.18744
 Alpha virt. eigenvalues --   -0.11220  -0.11043  -0.05346  -0.05341  -0.04151
 Alpha virt. eigenvalues --   -0.03599  -0.02172  -0.01890  -0.00856   0.00356
 Alpha virt. eigenvalues --    0.00425   0.00452   0.00771   0.00934   0.02227

 Mulliken charges:
               1
     1  Mg  11.999362
     2  C    6.014678
     3  C    5.988063
     4  C    5.987808
     5  C    6.014448
     6  N    7.007855
     7  C    5.968294
     8  C    6.008401
     9  C    5.991330
    10  C    6.027136
    11  C    5.999300
    12  C    6.003652
    13  C    6.001057
    14  H    1.000333
    15  N    6.996550
    16  C    6.036618
    17  C    6.028790
    18  C    6.015123
    19  C    6.020942
    20  C    5.994871
    21  C    6.014163
    22  O    8.030659
    23  C    5.995116
    24  N    6.999304
    25  C    6.026347
    26  C    5.988716
    27  C    6.011791
    28  C    5.968662
    29  C    6.000458
    30  C    6.003654
    31  C    6.000973
    32  N    7.003313
    33  C    5.956120
    34  C    5.977517
    35  C    5.993763
    36  C    5.971332
    37  C    6.003226
    38  C    5.985142
    39  O    7.969812
    40  C    5.998540
    41  C    5.996644
    42  O    7.995688
    43  O    7.998167
    44  C    6.001230
    45  H    1.007824
    46  H    1.005910
    47  H    0.991075
    48  H    1.000742
    49  H    0.999583
    50  H    1.015419
    51  H    0.995521
    52  H    1.003247
    53  H    0.986797
    54  H    1.005587
    55  H    0.999238
    56  H    0.993398
    57  H    1.019367
    58  H    1.019789
    59  H    1.020577
    60  H    1.005220
    61  H    1.014410
    62  H    1.007152
    63  H    0.999043
    64  H    0.995991
    65  H    0.999982
    66  H    0.994743
    67  H    1.009427
    68  H    0.991025
    69  H    1.002857
    70  H    0.988784
    71  H    0.998662
    72  H    1.002698
    73  H    0.984439
    74  H    0.983435
    75  H    0.981760
    76  H    0.992266
    77  H    0.997131
    78  H    0.994119
    79  H    0.997833
    80  Mg  11.999987
    81  C    6.000211
    82  C    5.999830
    83  C    5.999966
    84  C    6.000019
    85  N    7.000022
    86  C    5.999644
    87  C    6.000073
    88  C    5.999876
    89  C    6.000304
    90  C    5.999991
    91  C    6.000048
    92  C    5.999978
    93  H    1.000019
    94  N    6.999890
    95  C    6.000364
    96  C    6.000253
    97  C    6.000164
    98  C    6.000213
    99  C    5.999979
   100  C    6.000143
   101  O    8.000283
   102  C    5.999935
   103  N    7.000020
   104  C    6.000325
   105  C    5.999891
   106  C    6.000150
   107  C    5.999771
   108  C    5.999976
   109  C    6.000020
   110  C    6.000004
   111  N    7.000042
   112  C    5.999700
   113  C    5.999623
   114  C    5.999949
   115  C    5.999789
   116  C    5.999994
   117  C    5.999852
   118  O    7.999604
   119  C    5.999996
   120  C    5.999951
   121  O    7.999995
   122  O    7.999954
   123  C    6.000001
   124  H    1.000068
   125  H    1.000093
   126  H    0.999876
   127  H    1.000033
   128  H    1.000002
   129  H    1.000009
   130  H    1.000109
   131  H    1.000006
   132  H    0.999933
   133  H    1.000035
   134  H    0.999976
   135  H    0.999950
   136  H    1.000195
   137  H    1.000199
   138  H    1.000176
   139  H    1.000031
   140  H    1.000119
   141  H    1.000167
   142  H    0.999973
   143  H    1.000012
   144  H    1.000040
   145  H    0.999962
   146  H    1.000112
   147  H    1.000008
   148  H    0.999868
   149  H    1.000017
   150  H    0.999978
   151  H    0.999933
   152  H    0.999834
   153  H    0.999867
   154  H    0.999833
   155  H    0.999865
   156  H    0.999994
   157  H    0.999949
   158  H    0.999980
 Sum of Mulliken charges = 624.00000

 Dipole moment (field-independent basis, Debye):
    X=              7.3188    Y=             -0.2429    Z=             -7.2706  Tot=             10.3192
 Quadrupole moment (field-independent basis, Debye-Ang):
   XX=           -318.3810   YY=             -3.8850   ZZ=              6.4124
   XY=             -0.7068   XZ=            161.2498   YZ=              2.7940

 Normal termination of Gaussian 16 at Thu Oct 14 14:43:53 2021.
