 Gaussian 16, Revision A.03,
 Gaussian 16:  ES64L-G16RevA.03 25-Dec-2016

 ---------------------------------------------------------
 #p PBE1PBE/Def2SVP td=(nstates=5, root=1) density=current
 ---------------------------------------------------------

 --------------------------------
 TDDFT excited states in gaussian
 --------------------------------
 Symbolic Z-matrix:
 Charge =  0 Multiplicity = 1

                         Standard orientation:
 ---------------------------------------------------------------------
 Center     Atomic      Atomic             Coordinates (Angstroms)
 Number     Number       Type             X           Y           Z
 ---------------------------------------------------------------------
      1         12           0        0.675377    0.204888   -0.109655
      2          6           0       -2.728843    0.317183   -0.277950
      3          6           0        0.483683   -3.323030   -0.285640
      4          6           0        3.996189    0.036366    0.286631
      5          6           0        0.741296    3.637796   -0.011830
      6          7           0       -0.917181   -1.336812    0.053133
      7          6           0       -2.266643   -1.020048   -0.148547
      8          6           0       -3.159683   -2.291591   -0.208640
      9          6           0       -2.047795   -3.371679   -0.135770
     10          6           0       -0.717139   -2.645975   -0.051876
     11          6           0       -2.100119   -4.548544    0.929251
     12          6           0       -4.090119   -2.454256   -1.490193
     13          6           0       -4.903623   -3.775734   -1.452939
     14          1           0       -6.393425   -3.560435   -1.182785
     15          7           0        2.078006   -1.464076   -0.060949
     16          6           0        1.788956   -2.771777   -0.386677
     17          6           0        3.043408   -3.501092   -0.242280
     18          6           0        4.060145   -2.507943   -0.067217
     19          6           0        3.419256   -1.235180    0.040480
     20          6           0        3.087292   -4.974250   -0.378280
     21          6           0        5.575067   -2.860242    0.136449
     22          8           0        6.434832   -2.031735    0.498815
     23          6           0        6.045917   -4.281219   -0.032708
     24          7           0        2.074484    1.550975    0.123034
     25          6           0        3.458816    1.264913    0.289084
     26          6           0        4.216081    2.495754    0.733460
     27          6           0        3.302335    3.582696    0.170596
     28          6           0        1.948136    2.903475    0.023893
     29          6           0        4.382759    2.583556    2.287731
     30          6           0        3.743836    4.070732   -1.227324
     31          6           0        4.780084    5.159029   -1.312677
     32          7           0       -0.662108    1.773761   -0.092610
     33          6           0       -0.517412    3.103998   -0.204999
     34          6           0       -1.809868    3.722995   -0.220517
     35          6           0       -2.719892    2.688558   -0.271706
     36          6           0       -1.969009    1.503321   -0.235176
     37          6           0       -1.990687    5.199573   -0.283455
     38          6           0       -4.089940    2.408447   -0.349518
     39          8           0       -5.060775    3.135156   -0.437561
     40          6           0       -4.164175    0.809720   -0.359613
     41          6           0       -5.024899    0.385582    0.777263
     42          8           0       -4.782308    0.490957    1.954899
     43          8           0       -6.093925   -0.291892    0.348205
     44          6           0       -7.024284   -0.825453    1.416384
     45          1           0        0.353551   -4.385552   -0.500761
     46          1           0        5.080345   -0.002395    0.410051
     47          1           0        0.685936    4.723314   -0.113477
     48          1           0       -3.770976   -2.326027    0.693213
     49          1           0       -1.986276   -3.893008   -1.091504
     50          1           0       -1.738473   -5.520684    0.593150
     51          1           0       -3.071992   -4.556258    1.423033
     52          1           0       -1.354767   -4.263720    1.671712
     53          1           0       -3.390847   -2.361975   -2.320313
     54          1           0       -4.767266   -1.601089   -1.529074
     55          1           0       -4.428071   -4.485995   -0.776563
     56          1           0       -4.848243   -4.199198   -2.455361
     57          1           0        3.314904   -5.393612    0.601921
     58          1           0        3.773151   -5.174955   -1.201348
     59          1           0        2.128842   -5.359495   -0.726516
     60          1           0        7.128414   -4.329403    0.085570
     61          1           0        5.869566   -4.488994   -1.088983
     62          1           0        5.561395   -5.040377    0.580750
     63          1           0        5.215720    2.521807    0.298820
     64          1           0        3.198111    4.444799    0.829078
     65          1           0        3.444693    2.858918    2.768145
     66          1           0        5.167058    3.296159    2.544400
     67          1           0        4.703098    1.589683    2.598351
     68          1           0        2.906537    4.373687   -1.854731
     69          1           0        4.107125    3.223319   -1.808881
     70          1           0        5.620573    4.744072   -1.868263
     71          1           0        5.134923    5.239041   -0.285045
     72          1           0        4.407356    6.112310   -1.687769
     73          1           0       -2.163142    5.516553   -1.311254
     74          1           0       -1.264898    5.833617    0.226708
     75          1           0       -2.928587    5.390171    0.238482
     76          1           0       -4.611893    0.495194   -1.302615
     77          1           0       -6.406918   -1.368464    2.132334
     78          1           0       -7.754742   -1.538575    1.033402
     79          1           0       -7.515078    0.027981    1.884737
 ---------------------------------------------------------------------

 SCF Done:  E(RPBE1PBE) =  -2033.71090240     A.U. after   16 cycles

 Excitation energies and oscillator strengths:

 Excited State   1:      Singlet-A      1.8106 eV  684.79 nm  f=0.3736  <S**2>=0.000
     155 ->158        -0.15513
     156 ->157         0.69953
     156 <-157        -0.12511
 This state for optimization and/or second-order correction.
 Total Energy, E(TD-HF/TD-DFT) =  -2033.64436580
 Copying the excited state density for this state as the 1-particle RhoCI density.

 Excited State   2:      Singlet-A      2.2534 eV  550.20 nm  f=0.1054  <S**2>=0.000
     155 ->157         0.64878
     156 ->158         0.26388

 Excited State   3:      Singlet-A      2.8248 eV  438.92 nm  f=0.0042  <S**2>=0.000
     154 ->157         0.69864

 Excited State   4:      Singlet-A      3.0018 eV  413.03 nm  f=0.0007  <S**2>=0.000
     151 ->157        -0.17031
     152 ->157         0.65186
     152 ->159        -0.15328

 Excited State   5:      Singlet-A      3.0233 eV  410.09 nm  f=0.0000  <S**2>=0.000
     153 ->157         0.68126
     153 ->159         0.12200

 The electronic state is 1-A.
 Alpha  occ. eigenvalues --  -46.90913 -19.25503 -19.19487 -19.18895 -19.18894
 Alpha  occ. eigenvalues --  -14.42155 -14.41378 -14.38607 -14.38470 -10.35461
 Alpha  occ. eigenvalues --  -10.32490 -10.31963 -10.29773 -10.29485 -10.29038
 Alpha  occ. eigenvalues --  -10.28381 -10.27852 -10.27344 -10.27164 -10.26982
 Alpha  occ. eigenvalues --  -10.26575 -10.26536 -10.26400 -10.26201 -10.25620
 Alpha  occ. eigenvalues --  -10.25617 -10.25613 -10.25607 -10.25230 -10.25084
 Alpha  occ. eigenvalues --  -10.24969 -10.24953 -10.24557 -10.24285 -10.24068
 Alpha  occ. eigenvalues --  -10.24024 -10.23527 -10.23286 -10.23265 -10.23208
 Alpha  occ. eigenvalues --  -10.23206 -10.22567 -10.22530  -3.13267  -1.86112
 Alpha  occ. eigenvalues --   -1.85660  -1.85489  -1.11628  -1.05080  -1.03107
 Alpha  occ. eigenvalues --   -1.01905  -1.00064  -0.98533  -0.97745  -0.96733
 Alpha  occ. eigenvalues --   -0.87623  -0.83398  -0.83135  -0.82943  -0.82204
 Alpha  occ. eigenvalues --   -0.81503  -0.80907  -0.78649  -0.78278  -0.76815
 Alpha  occ. eigenvalues --   -0.75832  -0.75513  -0.74920  -0.72753  -0.71872
 Alpha  occ. eigenvalues --   -0.71529  -0.70482  -0.69600  -0.67650  -0.66271
 Alpha  occ. eigenvalues --   -0.63881  -0.63329  -0.62679  -0.60571  -0.60250
 Alpha  occ. eigenvalues --   -0.59412  -0.59203  -0.58709  -0.56635  -0.54821
 Alpha  occ. eigenvalues --   -0.54592  -0.53722  -0.53509  -0.52907  -0.52419
 Alpha  occ. eigenvalues --   -0.51157  -0.50467  -0.49673  -0.49244  -0.48833
 Alpha  occ. eigenvalues --   -0.48031  -0.47995  -0.47408  -0.47289  -0.46816
 Alpha  occ. eigenvalues --   -0.46319  -0.46293  -0.45908  -0.45021  -0.44899
 Alpha  occ. eigenvalues --   -0.44597  -0.44458  -0.44282  -0.43833  -0.43588
 Alpha  occ. eigenvalues --   -0.43418  -0.42978  -0.42744  -0.42379  -0.42156
 Alpha  occ. eigenvalues --   -0.41852  -0.41614  -0.41339  -0.41132  -0.40858
 Alpha  occ. eigenvalues --   -0.40570  -0.40191  -0.39957  -0.39440  -0.39006
 Alpha  occ. eigenvalues --   -0.38581  -0.38570  -0.38357  -0.38224  -0.37716
 Alpha  occ. eigenvalues --   -0.36891  -0.36720  -0.36553  -0.36366  -0.35998
 Alpha  occ. eigenvalues --   -0.35795  -0.35596  -0.35338  -0.34932  -0.34749
 Alpha  occ. eigenvalues --   -0.33372  -0.32988  -0.32483  -0.31990  -0.31688
 Alpha  occ. eigenvalues --   -0.31507  -0.29504  -0.29121  -0.28480  -0.27074
 Alpha  occ. eigenvalues --   -0.26211  -0.25998  -0.25422  -0.24822  -0.21475
 Alpha  occ. eigenvalues --   -0.18795
 Alpha virt. eigenvalues --   -0.11525  -0.05119  -0.03846  -0.02078   0.00183
 Alpha virt. eigenvalues --    0.00985   0.01359   0.01714   0.03078   0.03759
 Alpha virt. eigenvalues --    0.04402   0.05394   0.06092   0.06857   0.07206

 Mulliken charges:
               1
     1  Mg   0.971396
     2  C   -0.013058
     3  C   -0.070837
     4  C   -0.064770
     5  C   -0.082261
     6  N   -0.390331
     7  C    0.037624
     8  C   -0.050884
     9  C   -0.179544
    10  C    0.091209
    11  C    0.002043
    12  C   -0.025334
    13  C   -0.131111
    14  H    0.056898
    15  N   -0.467252
    16  C    0.187452
    17  C   -0.230694
    18  C   -0.082268
    19  C    0.149891
    20  C    0.068687
    21  C    0.069629
    22  O   -0.263558
    23  C   -0.019888
    24  N   -0.506294
    25  C    0.118476
    26  C   -0.096075
    27  C   -0.114928
    28  C    0.159297
    29  C    0.033466
    30  C   -0.051038
    31  C   -0.020542
    32  N   -0.465529
    33  C    0.116532
    34  C   -0.184674
    35  C    0.011163
    36  C    0.157817
    37  C    0.057472
    38  C    0.109258
    39  O   -0.209381
    40  C   -0.165420
    41  C    0.277043
    42  O   -0.254985
    43  O   -0.366157
    44  C    0.123158
    45  H    0.002093
    46  H    0.024310
    47  H    0.005175
    48  H    0.061875
    49  H    0.052904
    50  H    0.048259
    51  H    0.050558
    52  H    0.046549
    53  H    0.044170
    54  H    0.071720
    55  H    0.060151
    56  H    0.058805
    57  H    0.070657
    58  H    0.056769
    59  H    0.030366
    60  H    0.051965
    61  H    0.052225
    62  H    0.065362
    63  H    0.038844
    64  H    0.035031
    65  H    0.049043
    66  H    0.048588
    67  H    0.050422
    68  H    0.033378
    69  H    0.030067
    70  H    0.041769
    71  H    0.027192
    72  H    0.056847
    73  H    0.064905
    74  H    0.046446
    75  H    0.055706
    76  H    0.079878
    77  H    0.061453
    78  H    0.061470
    79  H    0.073352
 Sum of Mulliken charges =  -0.00000

 Dipole moment (field-independent basis, Debye):
    X=              0.5861    Y=             -3.3934    Z=             -2.0836  Tot=              4.0249
 Quadrupole moment (field-independent basis, Debye-Ang):
   XX=           -275.6855   YY=           -223.3823   ZZ=           -257.2888
   XY=             30.2945   XZ=             -4.3679   YZ=              1.5952

 Normal termination of Gaussian 16 at Wed Oct 13 14:56:18 2021.
