 Gaussian 16, Revision A.03,
 Gaussian 16:  ES64L-G16RevA.03 25-Dec-2016

 --------------------------------------------------------
 #p PBE1PBE/Def2SVP td=(nstates=5) density=(transition=1)
 --------------------------------------------------------

 --------------------------------
 TDDFT excited states in gaussian
 --------------------------------
 Symbolic Z-matrix:
 Charge =  0 Multiplicity = 1

                         Standard orientation:
 ---------------------------------------------------------------------
 Center     Atomic      Atomic             Coordinates (Angstroms)
 Number     Number       Type             X           Y           Z
 ---------------------------------------------------------------------
      1         12           0      -24.555352   -0.758793   -0.376158
      2          6           0      -25.627808    2.169866    1.410272
      3          6           0      -23.514093    1.458414   -2.939488
      4          6           0      -23.566046   -3.471062   -2.341148
      5          6           0      -25.925586   -2.763762    1.917935
      6          7           0      -24.788593    1.619159   -0.765171
      7          6           0      -25.138851    2.545341    0.152877
      8          6           0      -25.066258    3.981112   -0.480745
      9          6           0      -24.586750    3.627559   -1.933920
     10          6           0      -24.184250    2.135735   -1.884979
     11          6           0      -25.675125    3.950861   -3.016272
     12          6           0      -24.104231    4.918385    0.248840
     13          6           0      -24.591991    6.309620    0.487915
     14          1           0      -23.714390    7.270707    1.302794
     15          7           0      -23.501007   -0.999897   -2.223961
     16          6           0      -23.189805    0.033420   -3.101482
     17          6           0      -22.485316   -0.534878   -4.233613
     18          6           0      -22.388367   -1.905529   -4.059589
     19          6           0      -23.243901   -2.202500   -2.861566
     20          6           0      -22.075137    0.231524   -5.458151
     21          6           0      -21.751509   -3.030459   -4.974113
     22          8           0      -21.705146   -4.216901   -4.758895
     23          6           0      -20.954867   -2.608381   -6.189619
     24          7           0      -24.830092   -2.764674   -0.344091
     25          6           0      -24.367463   -3.725936   -1.204521
     26          6           0      -24.934294   -5.126732   -0.875393
     27          6           0      -25.472748   -4.941801    0.606916
     28          6           0      -25.372637   -3.375030    0.747856
     29          6           0      -25.988684   -5.619544   -1.917485
     30          6           0      -24.650814   -5.699582    1.693570
     31          6           0      -23.234462   -5.181592    1.933246
     32          7           0      -25.582607   -0.456066    1.282167
     33          6           0      -26.062023   -1.405501    2.227169
     34          6           0      -26.723350   -0.731250    3.342181
     35          6           0      -26.524230    0.636442    3.081662
     36          6           0      -25.829113    0.772041    1.850829
     37          6           0      -27.364324   -1.378888    4.480483
     38          6           0      -26.811495    1.953152    3.641530
     39          8           0      -27.333632    2.247433    4.703722
     40          6           0      -26.318809    3.030028    2.532407
     41          6           0      -25.412527    3.899958    3.406801
     42          8           0      -24.293044    3.623747    3.874339
     43          8           0      -26.038221    5.033745    3.671054
     44          6           0      -25.259006    6.188765    4.276591
     45          1           0      -23.130668    2.154694   -3.687836
     46          1           0      -23.299373   -4.378889   -2.887903
     47          1           0      -26.284706   -3.475943    2.663383
     48          1           0      -26.069078    4.383727   -0.342097
     49          1           0      -23.673572    4.162581   -2.198037
     50          1           0      -25.361474    4.607364   -3.827891
     51          1           0      -26.640598    4.242383   -2.602346
     52          1           0      -25.973026    3.122639   -3.659629
     53          1           0      -23.404970    5.159388   -0.552013
     54          1           0      -23.597666    4.444695    1.090463
     55          1           0      -25.592312    6.474541    0.891510
     56          1           0      -24.623256    6.730966   -0.516929
     57          1           0      -22.208646    1.304003   -5.318849
     58          1           0      -22.600425   -0.041942   -6.374565
     59          1           0      -21.023579    0.151205   -5.734092
     60          1           0      -20.102471   -1.980629   -5.930135
     61          1           0      -21.721282   -2.116633   -6.788779
     62          1           0      -20.748546   -3.554535   -6.689977
     63          1           0      -24.078928   -5.788393   -1.016446
     64          1           0      -26.549383   -5.014560    0.762323
     65          1           0      -25.628965   -6.456793   -2.515523
     66          1           0      -26.444818   -4.881790   -2.576677
     67          1           0      -26.798379   -5.930420   -1.257047
     68          1           0      -24.805439   -6.766675    1.533255
     69          1           0      -25.155652   -5.542985    2.646685
     70          1           0      -22.888759   -4.406473    1.250270
     71          1           0      -22.582784   -6.043185    1.790217
     72          1           0      -23.074382   -4.657678    2.874876
     73          1           0      -27.810085   -0.699240    5.207040
     74          1           0      -26.575963   -1.968166    4.948653
     75          1           0      -28.110607   -2.070023    4.086137
     76          1           0      -27.118884    3.703314    2.224781
     77          1           0      -25.867911    7.076330    4.103241
     78          1           0      -24.315996    6.378822    3.764937
     79          1           0      -25.009444    6.041177    5.327966
     80         12           0       24.331935   -0.630052    0.327050
     81          6           0       24.785213    2.113198   -1.795394
     82          6           0       24.010474    1.382924    2.898885
     83          6           0       24.654447   -3.329971    2.427104
     84          6           0       25.184480   -2.784120   -2.337283
     85          7           0       24.298271    1.473070    0.457712
     86          6           0       24.433004    2.448830   -0.505335
     87          6           0       24.120582    3.834103    0.045685
     88          6           0       24.105475    3.562035    1.584153
     89          6           0       24.029445    2.076610    1.655619
     90          6           0       25.158982    4.195060    2.467284
     91          6           0       22.837747    4.502188   -0.544431
     92          6           0       22.531679    5.907587   -0.015333
     93          1           0       22.299540    6.981415   -1.068187
     94          7           0       24.394100   -0.930781    2.489714
     95          6           0       24.090547    0.049538    3.365812
     96          6           0       23.992192   -0.509748    4.685465
     97          6           0       24.288480   -1.879233    4.574802
     98          6           0       24.474265   -2.090869    3.113449
     99          6           0       23.692031    0.303910    5.926607
    100          6           0       24.306690   -2.941651    5.624515
    101          8           0       24.720021   -4.123375    5.481179
    102          6           0       23.750182   -2.653857    7.013560
    103          7           0       24.865306   -2.705763    0.079072
    104          6           0       24.989584   -3.576967    1.107276
    105          6           0       25.173885   -5.080711    0.525802
    106          6           0       24.863467   -4.879066   -0.998982
    107          6           0       24.897645   -3.389794   -1.125761
    108          6           0       26.633328   -5.584604    0.855119
    109          6           0       23.395042   -5.330049   -1.334925
    110          6           0       22.240887   -4.785888   -0.507536
    111          7           0       24.837830   -0.427602   -1.746022
    112          6           0       25.142158   -1.408541   -2.649470
    113          6           0       25.388481   -0.780657   -3.863704
    114          6           0       25.300430    0.625621   -3.653601
    115          6           0       24.961105    0.792669   -2.336724
    116          6           0       25.802754   -1.380327   -5.161048
    117          6           0       25.425678    1.983368   -4.230507
    118          8           0       25.757898    2.405215   -5.332335
    119          6           0       24.988558    3.005170   -3.043339
    120          6           0       25.947788    4.137848   -2.950074
    121          8           0       27.195736    4.047384   -3.148518
    122          8           0       25.228054    5.241395   -2.798552
    123          6           0       25.932925    6.459840   -3.148154
    124          1           0       23.784090    2.000927    3.770389
    125          1           0       24.724313   -4.205036    3.077617
    126          1           0       25.315846   -3.485451   -3.162755
    127          1           0       24.935886    4.454800   -0.326439
    128          1           0       23.180479    3.884242    2.063577
    129          1           0       25.682820    5.061938    2.064573
    130          1           0       25.879111    3.432269    2.764580
    131          1           0       24.699783    4.352444    3.443429
    132          1           0       21.979467    3.848368   -0.387475
    133          1           0       22.937907    4.564885   -1.627515
    134          1           0       23.430826    6.393067    0.363655
    135          1           0       21.738879    5.885623    0.732969
    136          1           0       23.675425    1.383008    5.774190
    137          1           0       24.454855    0.281735    6.704496
    138          1           0       22.747754    0.037565    6.402476
    139          1           0       24.422640   -1.949392    7.502294
    140          1           0       23.878745   -3.500157    7.687974
    141          1           0       22.696678   -2.371939    7.005718
    142          1           0       24.485730   -5.755538    1.034897
    143          1           0       25.698433   -5.349345   -1.518334
    144          1           0       27.149438   -4.970696    1.593467
    145          1           0       27.304159   -5.600954   -0.004000
    146          1           0       26.660491   -6.573868    1.309714
    147          1           0       23.514184   -6.404587   -1.195719
    148          1           0       23.094797   -5.169217   -2.369901
    149          1           0       22.621403   -4.282588    0.381540
    150          1           0       21.443948   -5.488143   -0.265366
    151          1           0       21.753031   -4.109042   -1.208991
    152          1           0       25.144449   -2.171427   -5.520946
    153          1           0       26.771194   -1.838068   -4.961395
    154          1           0       25.937996   -0.634002   -5.943196
    155          1           0       24.033130    3.401076   -3.386634
    156          1           0       25.280607    7.115605   -3.726187
    157          1           0       26.822902    6.342932   -3.766057
    158          1           0       26.178136    6.943380   -2.201990
 ---------------------------------------------------------------------

 SCF Done:  E(RPBE1PBE) =  -4067.37200304     A.U. after   17 cycles

 Excitation energies and oscillator strengths:

 Excited State   1:      Singlet-A      1.8015 eV  688.23 nm  f=0.0000  <S**2>=0.000
     312 -> 313        0.70711
 This state for optimization and/or second-order correction.
 Total Energy, E(TD-HF/TD-DFT) =  -4067.30579909
 Copying the excited state density for this state as the 1-particle RhoCI density.

 Excited State   2:      Singlet-A      1.8203 eV  681.13 nm  f=0.3532  <S**2>=0.000
     309 -> 315       -0.17691
     312 -> 314        0.69235
     312 <- 314       -0.10910

 Excited State   3:      Singlet-A      1.8527 eV  669.22 nm  f=0.3808  <S**2>=0.000
     310 -> 316        0.15637
     311 -> 313        0.69627
     311 <- 313       -0.11164

 Excited State   4:      Singlet-A      2.1464 eV  577.62 nm  f=0.0000  <S**2>=0.000
     311 -> 314        0.70711

 Excited State   5:      Singlet-A      2.2320 eV  555.49 nm  f=0.0918  <S**2>=0.000
     309 -> 314        0.63922
     312 -> 315        0.29206

 The electronic state is 1-A.
 Alpha  occ. eigenvalues --  -46.92780 -46.91729 -19.27357 -19.25596 -19.19670
 Alpha  occ. eigenvalues --  -19.19646 -19.19430 -19.19119 -19.18928 -19.18290
 Alpha  occ. eigenvalues --  -14.42357 -14.41979 -14.41395 -14.41130 -14.39748
 Alpha  occ. eigenvalues --  -14.39432 -14.39255 -14.37889 -10.36336 -10.35532
 Alpha  occ. eigenvalues --  -10.32702 -10.32677 -10.32624 -10.32224 -10.29616
 Alpha  occ. eigenvalues --  -10.29445 -10.29292 -10.29252 -10.29104 -10.29001
 Alpha  occ. eigenvalues --  -10.28884 -10.28837 -10.28713 -10.28698 -10.28305
 Alpha  occ. eigenvalues --  -10.28191 -10.28047 -10.27993 -10.27850 -10.27694
 Alpha  occ. eigenvalues --  -10.27077 -10.26784 -10.26685 -10.26569 -10.26430
 Alpha  occ. eigenvalues --  -10.26367 -10.26317 -10.26254 -10.26241 -10.26232
 Alpha  occ. eigenvalues --  -10.26218 -10.26161 -10.26108 -10.26008 -10.26004
 Alpha  occ. eigenvalues --  -10.25966 -10.25861 -10.25841 -10.25687 -10.25631
 Alpha  occ. eigenvalues --  -10.25575 -10.25236 -10.25189 -10.25001 -10.24935
 Alpha  occ. eigenvalues --  -10.24704 -10.24536 -10.24508 -10.24283 -10.24234
 Alpha  occ. eigenvalues --  -10.24230 -10.24228 -10.23896 -10.23756 -10.23711
 Alpha  occ. eigenvalues --  -10.23674 -10.23587 -10.23486 -10.23230 -10.23222
 Alpha  occ. eigenvalues --  -10.23154 -10.22979 -10.22877 -10.22837 -10.22549
 Alpha  occ. eigenvalues --  -10.22306  -3.14752  -3.13996  -1.87601  -1.87096
 Alpha  occ. eigenvalues --   -1.86989  -1.86823  -1.86388  -1.86226  -1.12980
 Alpha  occ. eigenvalues --   -1.10754  -1.06161  -1.04841  -1.03759  -1.02856
 Alpha  occ. eigenvalues --   -1.00804  -1.00117  -0.99911  -0.98954  -0.98403
 Alpha  occ. eigenvalues --   -0.98114  -0.97754  -0.97232  -0.96879  -0.96393
 Alpha  occ. eigenvalues --   -0.86311  -0.85232  -0.83848  -0.83577  -0.83501
 Alpha  occ. eigenvalues --   -0.83035  -0.82612  -0.82302  -0.82160  -0.81724
 Alpha  occ. eigenvalues --   -0.81460  -0.81253  -0.80771  -0.80237  -0.79120
 Alpha  occ. eigenvalues --   -0.78404  -0.78101  -0.77875  -0.77184  -0.76652
 Alpha  occ. eigenvalues --   -0.76066  -0.75671  -0.75657  -0.75347  -0.74867
 Alpha  occ. eigenvalues --   -0.74512  -0.72949  -0.72438  -0.71964  -0.71690
 Alpha  occ. eigenvalues --   -0.71627  -0.71263  -0.70527  -0.70291  -0.69595
 Alpha  occ. eigenvalues --   -0.69497  -0.67288  -0.67070  -0.66162  -0.66100
 Alpha  occ. eigenvalues --   -0.64423  -0.64193  -0.63591  -0.63179  -0.62653
 Alpha  occ. eigenvalues --   -0.62267  -0.61981  -0.60670  -0.59904  -0.59890
 Alpha  occ. eigenvalues --   -0.59815  -0.59636  -0.59300  -0.59152  -0.59079
 Alpha  occ. eigenvalues --   -0.58666  -0.57375  -0.56414  -0.55421  -0.54294
 Alpha  occ. eigenvalues --   -0.54126  -0.53938  -0.53889  -0.53497  -0.53174
 Alpha  occ. eigenvalues --   -0.52405  -0.52160  -0.51979  -0.51896  -0.50803
 Alpha  occ. eigenvalues --   -0.50659  -0.50561  -0.50341  -0.50291  -0.50031
 Alpha  occ. eigenvalues --   -0.50011  -0.49948  -0.49649  -0.49168  -0.48946
 Alpha  occ. eigenvalues --   -0.48520  -0.48047  -0.47824  -0.47751  -0.47545
 Alpha  occ. eigenvalues --   -0.47526  -0.47310  -0.47277  -0.47081  -0.46975
 Alpha  occ. eigenvalues --   -0.46655  -0.46324  -0.46217  -0.46167  -0.45623
 Alpha  occ. eigenvalues --   -0.45588  -0.45477  -0.45242  -0.44869  -0.44732
 Alpha  occ. eigenvalues --   -0.44705  -0.44403  -0.44220  -0.44120  -0.43893
 Alpha  occ. eigenvalues --   -0.43861  -0.43709  -0.43578  -0.43532  -0.43269
 Alpha  occ. eigenvalues --   -0.43235  -0.43088  -0.43066  -0.42930  -0.42759
 Alpha  occ. eigenvalues --   -0.42729  -0.42255  -0.42168  -0.42021  -0.41666
 Alpha  occ. eigenvalues --   -0.41524  -0.41516  -0.41367  -0.41196  -0.41078
 Alpha  occ. eigenvalues --   -0.41036  -0.40932  -0.40755  -0.40670  -0.40584
 Alpha  occ. eigenvalues --   -0.40313  -0.40216  -0.40017  -0.39918  -0.39717
 Alpha  occ. eigenvalues --   -0.39599  -0.39239  -0.39219  -0.39064  -0.39017
 Alpha  occ. eigenvalues --   -0.38835  -0.38660  -0.38547  -0.38433  -0.38266
 Alpha  occ. eigenvalues --   -0.38187  -0.38050  -0.37954  -0.37890  -0.37786
 Alpha  occ. eigenvalues --   -0.37582  -0.37488  -0.37299  -0.37244  -0.37048
 Alpha  occ. eigenvalues --   -0.36987  -0.36747  -0.36481  -0.36266  -0.36249
 Alpha  occ. eigenvalues --   -0.36169  -0.35748  -0.35703  -0.35345  -0.35283
 Alpha  occ. eigenvalues --   -0.35158  -0.34560  -0.34544  -0.34207  -0.34042
 Alpha  occ. eigenvalues --   -0.33647  -0.33581  -0.33074  -0.32852  -0.32547
 Alpha  occ. eigenvalues --   -0.32350  -0.32002  -0.31741  -0.31645  -0.31364
 Alpha  occ. eigenvalues --   -0.31098  -0.30679  -0.29301  -0.29221  -0.29128
 Alpha  occ. eigenvalues --   -0.28690  -0.28261  -0.27648  -0.27385  -0.26935
 Alpha  occ. eigenvalues --   -0.26370  -0.26099  -0.25861  -0.25699  -0.25621
 Alpha  occ. eigenvalues --   -0.25540  -0.25264  -0.24428  -0.21059  -0.21006
 Alpha  occ. eigenvalues --   -0.19331  -0.18656
 Alpha virt. eigenvalues --   -0.11769  -0.11176  -0.05515  -0.04920  -0.04124
 Alpha virt. eigenvalues --   -0.03612  -0.02075  -0.02067  -0.01047  -0.00273
 Alpha virt. eigenvalues --    0.00521   0.00584   0.00843   0.01340   0.01635

 Mulliken charges:
               1
     1  Mg  12.000000
     2  C    6.000000
     3  C    6.000000
     4  C    6.000000
     5  C    6.000000
     6  N    7.000000
     7  C    6.000000
     8  C    6.000000
     9  C    6.000000
    10  C    6.000000
    11  C    6.000000
    12  C    6.000000
    13  C    6.000000
    14  H    1.000000
    15  N    7.000000
    16  C    6.000000
    17  C    6.000000
    18  C    6.000000
    19  C    6.000000
    20  C    6.000000
    21  C    6.000000
    22  O    8.000000
    23  C    6.000000
    24  N    7.000000
    25  C    6.000000
    26  C    6.000000
    27  C    6.000000
    28  C    6.000000
    29  C    6.000000
    30  C    6.000000
    31  C    6.000000
    32  N    7.000000
    33  C    6.000000
    34  C    6.000000
    35  C    6.000000
    36  C    6.000000
    37  C    6.000000
    38  C    6.000000
    39  O    8.000000
    40  C    6.000000
    41  C    6.000000
    42  O    8.000000
    43  O    8.000000
    44  C    6.000000
    45  H    1.000000
    46  H    1.000000
    47  H    1.000000
    48  H    1.000000
    49  H    1.000000
    50  H    1.000000
    51  H    1.000000
    52  H    1.000000
    53  H    1.000000
    54  H    1.000000
    55  H    1.000000
    56  H    1.000000
    57  H    1.000000
    58  H    1.000000
    59  H    1.000000
    60  H    1.000000
    61  H    1.000000
    62  H    1.000000
    63  H    1.000000
    64  H    1.000000
    65  H    1.000000
    66  H    1.000000
    67  H    1.000000
    68  H    1.000000
    69  H    1.000000
    70  H    1.000000
    71  H    1.000000
    72  H    1.000000
    73  H    1.000000
    74  H    1.000000
    75  H    1.000000
    76  H    1.000000
    77  H    1.000000
    78  H    1.000000
    79  H    1.000000
    80  Mg  12.000000
    81  C    6.000000
    82  C    6.000000
    83  C    6.000000
    84  C    6.000000
    85  N    7.000000
    86  C    6.000000
    87  C    6.000000
    88  C    6.000000
    89  C    6.000000
    90  C    6.000000
    91  C    6.000000
    92  C    6.000000
    93  H    1.000000
    94  N    7.000000
    95  C    6.000000
    96  C    6.000000
    97  C    6.000000
    98  C    6.000000
    99  C    6.000000
   100  C    6.000000
   101  O    8.000000
   102  C    6.000000
   103  N    7.000000
   104  C    6.000000
   105  C    6.000000
   106  C    6.000000
   107  C    6.000000
   108  C    6.000000
   109  C    6.000000
   110  C    6.000000
   111  N    7.000000
   112  C    6.000000
   113  C    6.000000
   114  C    6.000000
   115  C    6.000000
   116  C    6.000000
   117  C    6.000000
   118  O    8.000000
   119  C    6.000000
   120  C    6.000000
   121  O    8.000000
   122  O    8.000000
   123  C    6.000000
   124  H    1.000000
   125  H    1.000000
   126  H    1.000000
   127  H    1.000000
   128  H    1.000000
   129  H    1.000000
   130  H    1.000000
   131  H    1.000000
   132  H    1.000000
   133  H    1.000000
   134  H    1.000000
   135  H    1.000000
   136  H    1.000000
   137  H    1.000000
   138  H    1.000000
   139  H    1.000000
   140  H    1.000000
   141  H    1.000000
   142  H    1.000000
   143  H    1.000000
   144  H    1.000000
   145  H    1.000000
   146  H    1.000000
   147  H    1.000000
   148  H    1.000000
   149  H    1.000000
   150  H    1.000000
   151  H    1.000000
   152  H    1.000000
   153  H    1.000000
   154  H    1.000000
   155  H    1.000000
   156  H    1.000000
   157  H    1.000000
   158  H    1.000000
 Sum of Mulliken charges = 624.00000

 Dipole moment (field-independent basis, Debye):
    X=             -0.0000    Y=              0.0000    Z=              0.0000  Tot=              0.0000
 Quadrupole moment (field-independent basis, Debye-Ang):
   XX=              0.0000   YY=              0.0000   ZZ=             -0.0000
   XY=             -0.0000   XZ=             -0.0000   YZ=             -0.0000

 Normal termination of Gaussian 16 at Thu Oct 14 14:31:53 2021.
