 Gaussian 16, Revision A.03,
 Gaussian 16:  ES64L-G16RevA.03 25-Dec-2016

 --------------------------------------------------------
 #p PBE1PBE/Def2SVP td=(nstates=5) density=(transition=1)
 --------------------------------------------------------

 --------------------------------
 TDDFT excited states in gaussian
 --------------------------------
 Symbolic Z-matrix:
 Charge =  0 Multiplicity = 1

                         Standard orientation:
 ---------------------------------------------------------------------
 Center     Atomic      Atomic             Coordinates (Angstroms)
 Number     Number       Type             X           Y           Z
 ---------------------------------------------------------------------
      1         12           0       19.271272   -0.691894   -0.124922
      2          6           0       21.239120    2.130827    0.362083
      3          6           0       17.216565    0.336030    2.339031
      4          6           0       17.847088   -3.759137   -0.071452
      5          6           0       21.884422   -2.080578   -2.073448
      6          7           0       19.263788    1.071133    1.067173
      7          6           0       20.039434    2.209827    1.050580
      8          6           0       19.545284    3.220427    2.122026
      9          6           0       18.651213    2.304421    3.013510
     10          6           0       18.255576    1.203084    2.040948
     11          6           0       19.375460    1.698841    4.267040
     12          6           0       18.967322    4.442756    1.385502
     13          6           0       19.341707    5.746148    1.981622
     14          1           0       19.210764    6.894118    1.086561
     15          7           0       17.617252   -1.473483    0.825627
     16          6           0       16.869159   -0.848197    1.771070
     17          6           0       15.639243   -1.581259    1.936603
     18          6           0       15.827718   -2.810713    1.207868
     19          6           0       17.192305   -2.753085    0.675652
     20          6           0       14.527051   -1.137999    2.818060
     21          6           0       14.931923   -4.086698    1.089790
     22          8           0       15.245639   -5.063093    0.405889
     23          6           0       13.557618   -4.133193    1.696991
     24          7           0       20.005140   -2.729982   -0.691579
     25          6           0       19.099259   -3.825300   -0.666153
     26          6           0       19.596649   -5.024824   -1.402729
     27          6           0       20.763950   -4.342274   -2.187250
     28          6           0       20.858198   -2.912478   -1.661196
     29          6           0       20.021969   -6.216100   -0.479035
     30          6           0       20.544932   -4.325175   -3.744261
     31          6           0       19.183487   -3.761629   -4.225156
     32          7           0       21.127430   -0.094902   -0.838757
     33          6           0       22.058727   -0.744847   -1.663361
     34          6           0       23.132446    0.158006   -1.848316
     35          6           0       22.825913    1.286682   -1.098409
     36          6           0       21.623615    1.072788   -0.509127
     37          6           0       24.317730   -0.072037   -2.730832
     38          6           0       23.335241    2.507878   -0.680839
     39          8           0       24.421239    3.048533   -0.958590
     40          6           0       22.346308    3.197214    0.306911
     41          6           0       21.987305    4.533424   -0.415049
     42          8           0       21.312691    4.633097   -1.455364
     43          8           0       22.556771    5.577605    0.305629
     44          6           0       22.574368    6.941366   -0.312758
     45          1           0       16.685361    0.725951    3.209888
     46          1           0       17.466485   -4.760983   -0.284352
     47          1           0       22.616700   -2.370467   -2.829955
     48          1           0       20.391292    3.636304    2.668181
     49          1           0       17.746790    2.846978    3.287140
     50          1           0       20.398744    2.033579    4.439546
     51          1           0       19.511391    0.624678    4.148028
     52          1           0       18.824254    1.988231    5.161527
     53          1           0       17.888411    4.379782    1.520152
     54          1           0       19.268995    4.371071    0.340185
     55          1           0       20.402141    5.664545    2.220772
     56          1           0       18.802224    5.863744    2.921220
     57          1           0       14.592647   -0.072547    3.037714
     58          1           0       14.453466   -1.839135    3.650061
     59          1           0       13.583928   -1.234441    2.280064
     60          1           0       13.368268   -5.195346    1.853825
     61          1           0       12.810654   -3.760402    0.995777
     62          1           0       13.519191   -3.629253    2.663238
     63          1           0       18.887242   -5.423043   -2.129524
     64          1           0       21.691784   -4.867752   -1.958914
     65          1           0       20.220558   -5.832854    0.522222
     66          1           0       20.911695   -6.772649   -0.773977
     67          1           0       19.284112   -7.008848   -0.352355
     68          1           0       20.737995   -5.343890   -4.080921
     69          1           0       21.392040   -3.744266   -4.108869
     70          1           0       19.294630   -2.898363   -4.881600
     71          1           0       18.619924   -3.501706   -3.328656
     72          1           0       18.599730   -4.492672   -4.783734
     73          1           0       25.190304    0.046425   -2.088491
     74          1           0       24.269206    0.650761   -3.545256
     75          1           0       24.405666   -1.076384   -3.145331
     76          1           0       22.888093    3.426382    1.224160
     77          1           0       23.143832    6.845306   -1.236917
     78          1           0       23.015666    7.754100    0.264064
     79          1           0       21.497503    7.032864   -0.454779
     80         12           0      -19.862445   -0.443794    0.144770
     81          6           0      -19.551508    2.655045   -1.223300
     82          6           0      -19.471655    0.844406    3.310953
     83          6           0      -20.008092   -3.604828    1.347856
     84          6           0      -19.778748   -1.773553   -3.128835
     85          7           0      -19.323167    1.516209    0.933282
     86          6           0      -19.580335    2.639181    0.210892
     87          6           0      -19.691754    3.869607    1.045851
     88          6           0      -19.394863    3.232796    2.500963
     89          6           0      -19.392358    1.758981    2.259295
     90          6           0      -18.012987    3.732810    3.122604
     91          6           0      -21.182060    4.439116    0.929704
     92          6           0      -21.393060    5.921650    1.244637
     93          1           0      -20.351895    6.821776    1.955446
     94          7           0      -19.860120   -1.306165    2.050212
     95          6           0      -19.660751   -0.584306    3.238344
     96          6           0      -19.677815   -1.540548    4.320939
     97          6           0      -19.862334   -2.825329    3.770802
     98          6           0      -19.965460   -2.585092    2.338018
     99          6           0      -19.569071   -1.082528    5.794101
    100          6           0      -19.853714   -4.243395    4.549028
    101          8           0      -20.164923   -5.308288    4.000740
    102          6           0      -19.505334   -4.409815    6.018949
    103          7           0      -19.959235   -2.437229   -0.812744
    104          6           0      -19.971081   -3.559244   -0.054108
    105          6           0      -19.743675   -4.809205   -0.902646
    106          6           0      -20.006150   -4.232685   -2.411027
    107          6           0      -20.026391   -2.718723   -2.148105
    108          6           0      -18.376770   -5.594514   -0.646759
    109          6           0      -21.434997   -4.577767   -3.073508
    110          6           0      -21.498028   -5.138162   -4.482456
    111          7           0      -19.753198    0.225059   -1.830969
    112          6           0      -19.715420   -0.387028   -3.027522
    113          6           0      -19.719218    0.635617   -4.120132
    114          6           0      -19.710822    1.852029   -3.397125
    115          6           0      -19.604499    1.511313   -2.026518
    116          6           0      -19.770879    0.484812   -5.599369
    117          6           0      -19.712510    3.248651   -3.623592
    118          8           0      -19.736828    3.892771   -4.692466
    119          6           0      -19.604485    3.840742   -2.220640
    120          6           0      -18.394228    4.625991   -2.137921
    121          8           0      -17.260144    4.334248   -2.356691
    122          8           0      -18.768225    5.858696   -1.611219
    123          6           0      -17.761505    6.948107   -1.312766
    124          1           0      -19.581193    1.195150    4.338886
    125          1           0      -19.957192   -4.623321    1.739297
    126          1           0      -19.554434   -2.110401   -4.142475
    127          1           0      -19.041919    4.729691    0.885602
    128          1           0      -20.182870    3.483067    3.211226
    129          1           0      -18.001902    3.877902    4.202599
    130          1           0      -17.665101    4.601665    2.564095
    131          1           0      -17.288698    2.940521    2.930654
    132          1           0      -21.873282    3.881976    1.562387
    133          1           0      -21.474157    4.255960   -0.104645
    134          1           0      -22.323239    5.968763    1.812311
    135          1           0      -21.635931    6.440127    0.317896
    136          1           0      -19.535830   -0.001189    5.926492
    137          1           0      -18.676766   -1.557226    6.200866
    138          1           0      -20.425030   -1.503445    6.322113
    139          1           0      -20.335029   -3.942629    6.548172
    140          1           0      -18.699938   -3.746664    6.335287
    141          1           0      -19.196432   -5.434694    6.223610
    142          1           0      -20.555396   -5.505085   -0.687271
    143          1           0      -19.229747   -4.570092   -3.097934
    144          1           0      -17.784027   -5.665655   -1.559038
    145          1           0      -18.584664   -6.588054   -0.251209
    146          1           0      -17.743730   -5.046132    0.051243
    147          1           0      -22.124563   -3.736055   -3.011009
    148          1           0      -21.902338   -5.307386   -2.412872
    149          1           0      -22.130916   -4.460970   -5.054953
    150          1           0      -21.867308   -6.162732   -4.517358
    151          1           0      -20.511786   -5.078812   -4.944913
    152          1           0      -19.886189   -0.539738   -5.952686
    153          1           0      -18.858209    0.862878   -6.060751
    154          1           0      -20.612212    1.068063   -5.973103
    155          1           0      -20.454714    4.477970   -1.975687
    156          1           0      -16.749920    6.596176   -1.516258
    157          1           0      -17.792506    7.192837   -0.250205
    158          1           0      -18.037987    7.781189   -1.958956
 ---------------------------------------------------------------------

 SCF Done:  E(RPBE1PBE) =  -4067.38136907     A.U. after   16 cycles

 Excitation energies and oscillator strengths:

 Excited State   1:      Singlet-A      1.8237 eV  679.85 nm  f=0.3596  <S**2>=0.000
     309 -> 316        0.15445
     311 -> 313        0.69681
     311 <- 313       -0.11765
 This state for optimization and/or second-order correction.
 Total Energy, E(TD-HF/TD-DFT) =  -4067.31434913
 Copying the excited state density for this state as the 1-particle RhoCI density.

 Excited State   2:      Singlet-A      1.8923 eV  655.20 nm  f=0.3856  <S**2>=0.000
     310 -> 315        0.18639
     312 -> 314        0.68963
     312 <- 314       -0.10198

 Excited State   3:      Singlet-A      1.9167 eV  646.86 nm  f=0.0000  <S**2>=0.000
     312 -> 313        0.70711

 Excited State   4:      Singlet-A      2.0347 eV  609.34 nm  f=0.0000  <S**2>=0.000
     311 -> 314        0.70711

 Excited State   5:      Singlet-A      2.2346 eV  554.84 nm  f=0.0983  <S**2>=0.000
     310 -> 314        0.65137
     312 -> 315       -0.26686

 The electronic state is 1-A.
 Alpha  occ. eigenvalues --  -46.92796 -46.91705 -19.25396 -19.24346 -19.20219
 Alpha  occ. eigenvalues --  -19.19741 -19.19517 -19.18983 -19.18963 -19.17854
 Alpha  occ. eigenvalues --  -14.42021 -14.41542 -14.41164 -14.40918 -14.39250
 Alpha  occ. eigenvalues --  -14.39019 -14.38973 -14.38150 -10.37062 -10.35598
 Alpha  occ. eigenvalues --  -10.33517 -10.32459 -10.31537 -10.30726 -10.29420
 Alpha  occ. eigenvalues --  -10.29164 -10.29117 -10.28656 -10.28465 -10.28363
 Alpha  occ. eigenvalues --  -10.28360 -10.28124 -10.28015 -10.27998 -10.27855
 Alpha  occ. eigenvalues --  -10.27739 -10.27626 -10.27515 -10.26947 -10.26938
 Alpha  occ. eigenvalues --  -10.26530 -10.26405 -10.26345 -10.26154 -10.26141
 Alpha  occ. eigenvalues --  -10.26132 -10.26068 -10.26019 -10.26003 -10.25928
 Alpha  occ. eigenvalues --  -10.25851 -10.25762 -10.25710 -10.25697 -10.25560
 Alpha  occ. eigenvalues --  -10.25504 -10.25387 -10.25365 -10.25322 -10.25104
 Alpha  occ. eigenvalues --  -10.25096 -10.24991 -10.24978 -10.24923 -10.24837
 Alpha  occ. eigenvalues --  -10.24472 -10.24266 -10.24182 -10.24032 -10.24012
 Alpha  occ. eigenvalues --  -10.23992 -10.23898 -10.23779 -10.23720 -10.23606
 Alpha  occ. eigenvalues --  -10.23584 -10.23582 -10.23555 -10.23350 -10.23291
 Alpha  occ. eigenvalues --  -10.23227 -10.23090 -10.22969 -10.22795 -10.22392
 Alpha  occ. eigenvalues --  -10.21382  -3.14788  -3.13879  -1.87649  -1.87144
 Alpha  occ. eigenvalues --   -1.87022  -1.86699  -1.86257  -1.86104  -1.10335
 Alpha  occ. eigenvalues --   -1.09137  -1.04342  -1.04223  -1.02982  -1.02609
 Alpha  occ. eigenvalues --   -1.02008  -1.01435  -1.00216  -0.99436  -0.99121
 Alpha  occ. eigenvalues --   -0.98589  -0.98315  -0.98156  -0.97300  -0.96846
 Alpha  occ. eigenvalues --   -0.87831  -0.86879  -0.83453  -0.83302  -0.82968
 Alpha  occ. eigenvalues --   -0.82885  -0.82526  -0.82105  -0.81859  -0.81426
 Alpha  occ. eigenvalues --   -0.81355  -0.81207  -0.80836  -0.80545  -0.78878
 Alpha  occ. eigenvalues --   -0.78667  -0.77789  -0.77758  -0.76643  -0.76454
 Alpha  occ. eigenvalues --   -0.75839  -0.75788  -0.75470  -0.75244  -0.74713
 Alpha  occ. eigenvalues --   -0.74687  -0.72774  -0.72544  -0.71824  -0.71400
 Alpha  occ. eigenvalues --   -0.71358  -0.71206  -0.70496  -0.70324  -0.69817
 Alpha  occ. eigenvalues --   -0.69573  -0.67668  -0.67046  -0.66466  -0.66463
 Alpha  occ. eigenvalues --   -0.64124  -0.63739  -0.63180  -0.63023  -0.62636
 Alpha  occ. eigenvalues --   -0.61971  -0.60930  -0.60456  -0.59844  -0.59733
 Alpha  occ. eigenvalues --   -0.59683  -0.59089  -0.59071  -0.59016  -0.58825
 Alpha  occ. eigenvalues --   -0.58550  -0.56343  -0.56149  -0.55091  -0.54474
 Alpha  occ. eigenvalues --   -0.54447  -0.54301  -0.53814  -0.53754  -0.53398
 Alpha  occ. eigenvalues --   -0.53098  -0.52907  -0.52331  -0.52161  -0.51344
 Alpha  occ. eigenvalues --   -0.50680  -0.50551  -0.50169  -0.50133  -0.49866
 Alpha  occ. eigenvalues --   -0.49818  -0.49449  -0.49294  -0.48674  -0.48351
 Alpha  occ. eigenvalues --   -0.48053  -0.47711  -0.47638  -0.47541  -0.47516
 Alpha  occ. eigenvalues --   -0.47420  -0.47362  -0.47009  -0.46738  -0.46650
 Alpha  occ. eigenvalues --   -0.46479  -0.46252  -0.46169  -0.46104  -0.46018
 Alpha  occ. eigenvalues --   -0.46003  -0.45396  -0.45139  -0.45048  -0.44932
 Alpha  occ. eigenvalues --   -0.44476  -0.44216  -0.44126  -0.44069  -0.44025
 Alpha  occ. eigenvalues --   -0.43822  -0.43736  -0.43583  -0.43561  -0.43358
 Alpha  occ. eigenvalues --   -0.43173  -0.42958  -0.42807  -0.42728  -0.42646
 Alpha  occ. eigenvalues --   -0.42620  -0.42326  -0.42325  -0.42052  -0.41968
 Alpha  occ. eigenvalues --   -0.41664  -0.41634  -0.41317  -0.41307  -0.41184
 Alpha  occ. eigenvalues --   -0.41035  -0.40968  -0.40886  -0.40692  -0.40527
 Alpha  occ. eigenvalues --   -0.40373  -0.40256  -0.39908  -0.39452  -0.39367
 Alpha  occ. eigenvalues --   -0.39169  -0.39152  -0.39046  -0.38933  -0.38795
 Alpha  occ. eigenvalues --   -0.38767  -0.38552  -0.38515  -0.38301  -0.38213
 Alpha  occ. eigenvalues --   -0.38092  -0.37961  -0.37836  -0.37578  -0.37533
 Alpha  occ. eigenvalues --   -0.37156  -0.37100  -0.36772  -0.36667  -0.36531
 Alpha  occ. eigenvalues --   -0.36491  -0.36371  -0.36177  -0.36000  -0.35960
 Alpha  occ. eigenvalues --   -0.35920  -0.35752  -0.35688  -0.35478  -0.35104
 Alpha  occ. eigenvalues --   -0.35094  -0.34868  -0.34702  -0.34358  -0.33992
 Alpha  occ. eigenvalues --   -0.33422  -0.33195  -0.33017  -0.32818  -0.32577
 Alpha  occ. eigenvalues --   -0.32386  -0.31906  -0.31852  -0.31616  -0.31610
 Alpha  occ. eigenvalues --   -0.31052  -0.30988  -0.29439  -0.29358  -0.29291
 Alpha  occ. eigenvalues --   -0.29096  -0.28703  -0.28692  -0.26983  -0.26828
 Alpha  occ. eigenvalues --   -0.26126  -0.26016  -0.25699  -0.25644  -0.25496
 Alpha  occ. eigenvalues --   -0.25307  -0.25018  -0.24789  -0.21154  -0.20810
 Alpha  occ. eigenvalues --   -0.18833  -0.18795
 Alpha virt. eigenvalues --   -0.11416  -0.11019  -0.05207  -0.05122  -0.04218
 Alpha virt. eigenvalues --   -0.03656  -0.02143  -0.02009  -0.00497  -0.00111
 Alpha virt. eigenvalues --    0.00389   0.00739   0.00756   0.01332   0.01588

 Mulliken charges:
               1
     1  Mg  12.002550
     2  C    5.975455
     3  C    6.003465
     4  C    6.032525
     5  C    6.016521
     6  N    6.978638
     7  C    6.031865
     8  C    5.996999
     9  C    6.006769
    10  C    5.976696
    11  C    6.003212
    12  C    5.994128
    13  C    6.000544
    14  H    0.998666
    15  N    7.007153
    16  C    5.964646
    17  C    5.980424
    18  C    5.987076
    19  C    5.961871
    20  C    6.003185
    21  C    5.987734
    22  O    7.970834
    23  C    6.004953
    24  N    7.016556
    25  C    5.958252
    26  C    6.014725
    27  C    5.992510
    28  C    6.017854
    29  C    5.999547
    30  C    5.992295
    31  C    5.994596
    32  N    6.998062
    33  C    6.027394
    34  C    6.030208
    35  C    6.000266
    36  C    6.027646
    37  C    5.996992
    38  C    6.014813
    39  O    8.028566
    40  C    6.003867
    41  C    6.003171
    42  O    8.003551
    43  O    8.001568
    44  C    5.999467
    45  H    0.985928
    46  H    0.995856
    47  H    1.015923
    48  H    0.998516
    49  H    0.998626
    50  H    0.984165
    51  H    1.000543
    52  H    0.996662
    53  H    1.011851
    54  H    0.994351
    55  H    0.996271
    56  H    1.005420
    57  H    0.985646
    58  H    0.981525
    59  H    0.982654
    60  H    0.987041
    61  H    0.989354
    62  H    0.996029
    63  H    0.999176
    64  H    1.002899
    65  H    1.000498
    66  H    0.990793
    67  H    1.003447
    68  H    1.009741
    69  H    0.993560
    70  H    0.997379
    71  H    1.013322
    72  H    1.006751
    73  H    1.017476
    74  H    1.018797
    75  H    1.016181
    76  H    1.008086
    77  H    0.999077
    78  H    1.004297
    79  H    1.004341
    80  Mg  12.000022
    81  C    5.999975
    82  C    5.999945
    83  C    5.999995
    84  C    6.000061
    85  N    6.999940
    86  C    5.999892
    87  C    6.000066
    88  C    5.999945
    89  C    6.000196
    90  C    5.999978
    91  C    6.000015
    92  C    6.000035
    93  H    1.000000
    94  N    7.000006
    95  C    6.000216
    96  C    6.000045
    97  C    6.000101
    98  C    6.000080
    99  C    5.999979
   100  C    6.000057
   101  O    8.000142
   102  C    5.999958
   103  N    7.000019
   104  C    6.000086
   105  C    5.999983
   106  C    6.000028
   107  C    5.999852
   108  C    5.999982
   109  C    6.000064
   110  C    5.999999
   111  N    6.999910
   112  C    5.999841
   113  C    5.999906
   114  C    6.000009
   115  C    6.000001
   116  C    6.000051
   117  C    5.999835
   118  O    7.999826
   119  C    6.000085
   120  C    5.999991
   121  O    8.000015
   122  O    7.999982
   123  C    5.999993
   124  H    1.000051
   125  H    1.000019
   126  H    0.999954
   127  H    1.000011
   128  H    0.999967
   129  H    1.000013
   130  H    1.000079
   131  H    1.000082
   132  H    0.999914
   133  H    1.000015
   134  H    0.999920
   135  H    0.999965
   136  H    1.000080
   137  H    1.000147
   138  H    1.000024
   139  H    0.999987
   140  H    1.000103
   141  H    1.000106
   142  H    0.999956
   143  H    1.000028
   144  H    1.000093
   145  H    1.000006
   146  H    1.000049
   147  H    0.999965
   148  H    0.999914
   149  H    0.999963
   150  H    0.999947
   151  H    1.000032
   152  H    0.999888
   153  H    0.999921
   154  H    0.999854
   155  H    0.999895
   156  H    1.000048
   157  H    0.999972
   158  H    0.999925
 Sum of Mulliken charges = 624.00000

 Dipole moment (field-independent basis, Debye):
    X=              8.6788    Y=              2.8092    Z=             -4.5579  Tot=             10.1974
 Quadrupole moment (field-independent basis, Debye-Ang):
   XX=            335.0934   YY=             -2.4591   ZZ=             -0.6449
   XY=             47.9865   XZ=            -90.4075   YZ=              4.0866

 Normal termination of Gaussian 16 at Thu Oct 14 15:08:12 2021.
