 Gaussian 16, Revision A.03,
 Gaussian 16:  ES64L-G16RevA.03 25-Dec-2016

 --------------------------------------------------------
 #p PBE1PBE/Def2SVP td=(nstates=5) density=(transition=1)
 --------------------------------------------------------

 --------------------------------
 TDDFT excited states in gaussian
 --------------------------------
 Symbolic Z-matrix:
 Charge =  0 Multiplicity = 1

                         Standard orientation:
 ---------------------------------------------------------------------
 Center     Atomic      Atomic             Coordinates (Angstroms)
 Number     Number       Type             X           Y           Z
 ---------------------------------------------------------------------
      1         12           0       13.400035   -0.716136    0.196301
      2          6           0       11.794277    2.044343   -1.466076
      3          6           0       14.996611    1.595490    2.135676
      4          6           0       15.114924   -3.272235    1.529335
      5          6           0       12.073333   -2.778442   -2.156977
      6          7           0       13.334427    1.657452    0.335686
      7          6           0       12.563111    2.479826   -0.433214
      8          6           0       12.681705    3.844354    0.131885
      9          6           0       13.808296    3.750379    1.197873
     10          6           0       14.161968    2.238945    1.252257
     11          6           0       15.058611    4.597549    0.799789
     12          6           0       11.408136    4.447934    0.668977
     13          6           0       11.386828    5.920151    1.047218
     14          1           0       10.278628    6.726964    0.513481
     15          7           0       14.751643   -0.829784    1.688470
     16          6           0       15.382627    0.274619    2.324818
     17          6           0       16.229687   -0.286557    3.394016
     18          6           0       16.311451   -1.652900    3.138432
     19          6           0       15.403187   -1.968801    2.021105
     20          6           0       16.956271    0.611921    4.372949
     21          6           0       17.099234   -2.749476    3.887327
     22          8           0       17.284820   -3.899560    3.447344
     23          6           0       17.630178   -2.397458    5.216810
     24          7           0       13.640582   -2.767291   -0.277214
     25          6           0       14.363545   -3.647485    0.384369
     26          6           0       14.302195   -5.076994   -0.220451
     27          6           0       13.148071   -4.914900   -1.212129
     28          6           0       12.907620   -3.422833   -1.186840
     29          6           0       15.651243   -5.467685   -0.913127
     30          6           0       11.888978   -5.703533   -0.930842
     31          6           0       11.217732   -6.385223   -2.136387
     32          7           0       12.123855   -0.440088   -1.394558
     33          6           0       11.664835   -1.408058   -2.260930
     34          6           0       10.707446   -0.837197   -3.255809
     35          6           0       10.805684    0.499641   -2.926430
     36          6           0       11.685956    0.716031   -1.859382
     37          6           0        9.803970   -1.559501   -4.202913
     38          6           0       10.297542    1.805839   -3.319002
     39          8           0        9.468528    2.055859   -4.186718
     40          6           0       10.909084    2.880906   -2.391588
     41          6           0       11.445006    3.905688   -3.250737
     42          8           0       12.507806    3.853107   -3.915428
     43          8           0       10.719681    5.051545   -3.126705
     44          6           0       11.249697    6.273560   -3.691030
     45          1           0       15.449393    2.315598    2.820054
     46          1           0       15.786237   -4.073313    1.845184
     47          1           0       11.895982   -3.469246   -2.983663
     48          1           0       13.032899    4.425507   -0.719765
     49          1           0       13.484069    4.101348    2.177720
     50          1           0       15.532253    5.320391    1.464816
     51          1           0       14.728080    5.160448   -0.072990
     52          1           0       15.882891    4.029792    0.367312
     53          1           0       11.116978    3.981218    1.610141
     54          1           0       10.535598    4.134235    0.096609
     55          1           0       12.294052    6.417692    0.707725
     56          1           0       11.133231    5.937373    2.106849
     57          1           0       18.004138    0.353960    4.524934
     58          1           0       16.492217    0.662028    5.357752
     59          1           0       17.044806    1.653018    4.061523
     60          1           0       16.819615   -1.973045    5.809402
     61          1           0       18.369003   -1.634367    4.974492
     62          1           0       17.909007   -3.336684    5.693102
     63          1           0       14.051763   -5.743170    0.605844
     64          1           0       13.377272   -5.134177   -2.254564
     65          1           0       15.538963   -5.547222   -1.994003
     66          1           0       15.993787   -6.449747   -0.587017
     67          1           0       16.341824   -4.659456   -0.671888
     68          1           0       11.136987   -5.098719   -0.425076
     69          1           0       12.156865   -6.326283   -0.077923
     70          1           0       10.692050   -7.257246   -1.748588
     71          1           0       11.907132   -6.573855   -2.959916
     72          1           0       10.542518   -5.597428   -2.469739
     73          1           0        8.771925   -1.643566   -3.861938
     74          1           0       10.323351   -2.487477   -4.440384
     75          1           0        9.869786   -1.090929   -5.185641
     76          1           0       10.045618    3.356026   -1.926068
     77          1           0       12.264008    6.191348   -4.082467
     78          1           0       11.146876    7.098386   -2.986441
     79          1           0       10.658109    6.622476   -4.537828
     80         12           0      -13.623363   -0.600000    0.105387
     81          6           0      -11.387204    2.015480    0.556196
     82          6           0      -16.189887    1.586597    0.028802
     83          6           0      -15.695215   -3.216973   -0.147123
     84          6           0      -10.911709   -2.801000    0.359376
     85          7           0      -13.690534    1.581567    0.252806
     86          6           0      -12.701875    2.439460    0.335408
     87          6           0      -13.334107    3.906697    0.304268
     88          6           0      -14.683186    3.570011    0.903506
     89          6           0      -14.921568    2.137784    0.327984
     90          6           0      -14.629962    3.687000    2.442074
     91          6           0      -13.202783    4.543189   -1.145866
     92          6           0      -13.325835    6.069499   -1.185930
     93          1           0      -13.787123    6.799757    0.063519
     94          7           0      -15.613014   -0.780193   -0.214563
     95          6           0      -16.510276    0.282286   -0.293282
     96          6           0      -17.819429   -0.268452   -0.755845
     97          6           0      -17.708844   -1.723880   -0.751196
     98          6           0      -16.311627   -1.917652   -0.280382
     99          6           0      -19.008068    0.606685   -1.076000
    100          6           0      -18.745764   -2.863300   -1.176388
    101          8           0      -18.473838   -4.068632   -1.187187
    102          6           0      -20.122748   -2.397577   -1.601390
    103          7           0      -13.370967   -2.650814    0.216360
    104          6           0      -14.363815   -3.528686    0.100890
    105          6           0      -13.897133   -5.001347    0.317195
    106          6           0      -12.375700   -4.816495    0.224405
    107          6           0      -12.172680   -3.334010    0.206907
    108          6           0      -14.387728   -5.650116    1.641622
    109          6           0      -11.575753   -5.650438   -0.872615
    110          6           0      -11.129224   -4.924340   -2.098842
    111          7           0      -11.595489   -0.493857    0.600933
    112          6           0      -10.619624   -1.432792    0.602200
    113          6           0       -9.338529   -0.907372    0.914717
    114          6           0       -9.583371    0.501904    0.904973
    115          6           0      -10.938427    0.636153    0.705663
    116          6           0       -7.992509   -1.523074    1.196423
    117          6           0       -9.027406    1.816768    1.025133
    118          8           0       -7.896920    2.203928    1.228585
    119          6           0      -10.117386    2.872481    0.654620
    120          6           0      -10.172746    3.906154    1.692684
    121          8           0      -10.461174    3.654592    2.852814
    122          8           0       -9.688795    5.170551    1.269752
    123          6           0       -9.612272    6.212121    2.306135
    124          1           0      -16.997276    2.318804    0.075961
    125          1           0      -16.401577   -4.047779   -0.188827
    126          1           0      -10.099358   -3.519775    0.482717
    127          1           0      -12.744682    4.574673    0.930904
    128          1           0      -15.508940    4.165758    0.515319
    129          1           0      -15.283757    4.539705    2.628308
    130          1           0      -13.626063    3.885194    2.819886
    131          1           0      -15.129391    2.797560    2.825584
    132          1           0      -13.976534    4.143183   -1.801766
    133          1           0      -12.185633    4.309811   -1.461442
    134          1           0      -14.003461    6.303979   -2.006294
    135          1           0      -12.348974    6.454926   -1.476946
    136          1           0      -18.696729    1.563022   -1.497775
    137          1           0      -19.702854    0.817885   -0.263771
    138          1           0      -19.580209    0.129166   -1.871305
    139          1           0      -20.436979   -1.755649   -0.778755
    140          1           0      -20.867082   -3.189746   -1.676862
    141          1           0      -20.063088   -1.907171   -2.573148
    142          1           0      -14.255795   -5.652782   -0.479585
    143          1           0      -11.997324   -5.049638    1.219012
    144          1           0      -13.521450   -6.185868    2.030496
    145          1           0      -15.247971   -6.314617    1.577431
    146          1           0      -14.726359   -4.848255    2.297763
    147          1           0      -12.149556   -6.547038   -1.107329
    148          1           0      -10.625031   -5.970310   -0.446713
    149          1           0      -10.040937   -4.868456   -2.064628
    150          1           0      -11.360683   -3.859237   -2.138907
    151          1           0      -11.383068   -5.419378   -3.036243
    152          1           0       -8.033410   -2.612156    1.236094
    153          1           0       -7.568442   -1.054213    2.084837
    154          1           0       -7.236498   -1.416735    0.418153
    155          1           0       -9.906460    3.354254   -0.299741
    156          1           0       -9.407428    7.216447    1.936185
    157          1           0       -8.797906    5.864716    2.942499
    158          1           0      -10.542226    6.127668    2.867180
 ---------------------------------------------------------------------

 SCF Done:  E(RPBE1PBE) =  -4067.39640179     A.U. after   16 cycles

 Excitation energies and oscillator strengths:

 Excited State   1:      Singlet-A      1.8431 eV  672.71 nm  f=0.0000  <S**2>=0.000
     312 -> 313        0.70710
 This state for optimization and/or second-order correction.
 Total Energy, E(TD-HF/TD-DFT) =  -4067.32867054
 Copying the excited state density for this state as the 1-particle RhoCI density.

 Excited State   2:      Singlet-A      1.8722 eV  662.25 nm  f=0.4069  <S**2>=0.000
     310 -> 316       -0.17547
     311 -> 313        0.69256
     311 <- 313       -0.10646

 Excited State   3:      Singlet-A      1.9172 eV  646.69 nm  f=0.3485  <S**2>=0.000
     309 -> 315       -0.19044
     312 -> 314        0.68735

 Excited State   4:      Singlet-A      2.1306 eV  581.93 nm  f=0.0000  <S**2>=0.000
     311 -> 314        0.70710

 Excited State   5:      Singlet-A      2.2174 eV  559.13 nm  f=0.1383  <S**2>=0.000
     310 -> 313        0.66471
     311 -> 316        0.23652

 The electronic state is 1-A.
 Alpha  occ. eigenvalues --  -46.91834 -46.91167 -19.25746 -19.24612 -19.20479
 Alpha  occ. eigenvalues --  -19.19716 -19.19156 -19.19017 -19.18783 -19.18327
 Alpha  occ. eigenvalues --  -14.41373 -14.41343 -14.41087 -14.40550 -14.39628
 Alpha  occ. eigenvalues --  -14.39358 -14.39193 -14.38418 -10.36050 -10.35909
 Alpha  occ. eigenvalues --  -10.34184 -10.32273 -10.31572 -10.31417 -10.28868
 Alpha  occ. eigenvalues --  -10.28527 -10.28390 -10.28384 -10.28369 -10.28340
 Alpha  occ. eigenvalues --  -10.28320 -10.28307 -10.28196 -10.28150 -10.28144
 Alpha  occ. eigenvalues --  -10.28083 -10.27976 -10.27804 -10.27750 -10.27643
 Alpha  occ. eigenvalues --  -10.26840 -10.26573 -10.26469 -10.26132 -10.26057
 Alpha  occ. eigenvalues --  -10.26026 -10.25996 -10.25907 -10.25839 -10.25768
 Alpha  occ. eigenvalues --  -10.25747 -10.25706 -10.25511 -10.25370 -10.25361
 Alpha  occ. eigenvalues --  -10.25314 -10.25309 -10.25240 -10.25036 -10.24941
 Alpha  occ. eigenvalues --  -10.24901 -10.24886 -10.24862 -10.24768 -10.24689
 Alpha  occ. eigenvalues --  -10.24629 -10.24619 -10.24432 -10.24270 -10.24022
 Alpha  occ. eigenvalues --  -10.23791 -10.23746 -10.23608 -10.23533 -10.23434
 Alpha  occ. eigenvalues --  -10.23420 -10.23418 -10.23354 -10.23269 -10.23268
 Alpha  occ. eigenvalues --  -10.23218 -10.23110 -10.23072 -10.22281 -10.22179
 Alpha  occ. eigenvalues --  -10.21998  -3.14018  -3.13506  -1.86868  -1.86383
 Alpha  occ. eigenvalues --   -1.86361  -1.86254  -1.85846  -1.85779  -1.10818
 Alpha  occ. eigenvalues --   -1.09252  -1.05005  -1.04508  -1.04156  -1.03662
 Alpha  occ. eigenvalues --   -1.01598  -1.00671  -1.00370  -1.00364  -0.99425
 Alpha  occ. eigenvalues --   -0.99247  -0.98782  -0.97704  -0.97613  -0.96746
 Alpha  occ. eigenvalues --   -0.87484  -0.86590  -0.84368  -0.83539  -0.83510
 Alpha  occ. eigenvalues --   -0.82798  -0.82715  -0.82507  -0.81801  -0.81571
 Alpha  occ. eigenvalues --   -0.81332  -0.81270  -0.80910  -0.80740  -0.78915
 Alpha  occ. eigenvalues --   -0.78509  -0.78278  -0.78012  -0.77150  -0.77004
 Alpha  occ. eigenvalues --   -0.76688  -0.76577  -0.75526  -0.75326  -0.75210
 Alpha  occ. eigenvalues --   -0.74438  -0.72876  -0.72736  -0.71974  -0.71694
 Alpha  occ. eigenvalues --   -0.71598  -0.71008  -0.70809  -0.70127  -0.69542
 Alpha  occ. eigenvalues --   -0.69420  -0.67402  -0.67330  -0.66348  -0.65614
 Alpha  occ. eigenvalues --   -0.63871  -0.63683  -0.63587  -0.63139  -0.62427
 Alpha  occ. eigenvalues --   -0.62352  -0.60874  -0.60873  -0.60794  -0.59786
 Alpha  occ. eigenvalues --   -0.59589  -0.59577  -0.59159  -0.59056  -0.58764
 Alpha  occ. eigenvalues --   -0.58403  -0.57075  -0.55885  -0.55049  -0.54865
 Alpha  occ. eigenvalues --   -0.54437  -0.54201  -0.53998  -0.53733  -0.53343
 Alpha  occ. eigenvalues --   -0.52786  -0.52686  -0.52539  -0.52166  -0.52089
 Alpha  occ. eigenvalues --   -0.50999  -0.50387  -0.50226  -0.50187  -0.50030
 Alpha  occ. eigenvalues --   -0.50000  -0.49316  -0.48900  -0.48508  -0.48413
 Alpha  occ. eigenvalues --   -0.48381  -0.48202  -0.47880  -0.47718  -0.47691
 Alpha  occ. eigenvalues --   -0.47450  -0.47401  -0.47125  -0.46914  -0.46626
 Alpha  occ. eigenvalues --   -0.46586  -0.46431  -0.46431  -0.46165  -0.45833
 Alpha  occ. eigenvalues --   -0.45728  -0.45360  -0.45185  -0.45082  -0.45032
 Alpha  occ. eigenvalues --   -0.44976  -0.44812  -0.44524  -0.44379  -0.44174
 Alpha  occ. eigenvalues --   -0.44085  -0.43864  -0.43589  -0.43576  -0.43470
 Alpha  occ. eigenvalues --   -0.43219  -0.43218  -0.43088  -0.42965  -0.42934
 Alpha  occ. eigenvalues --   -0.42512  -0.42333  -0.42327  -0.41993  -0.41959
 Alpha  occ. eigenvalues --   -0.41836  -0.41656  -0.41644  -0.41247  -0.41221
 Alpha  occ. eigenvalues --   -0.41123  -0.40896  -0.40782  -0.40742  -0.40505
 Alpha  occ. eigenvalues --   -0.40467  -0.40328  -0.39889  -0.39815  -0.39662
 Alpha  occ. eigenvalues --   -0.39425  -0.39266  -0.39124  -0.38818  -0.38705
 Alpha  occ. eigenvalues --   -0.38532  -0.38492  -0.38450  -0.38330  -0.38064
 Alpha  occ. eigenvalues --   -0.38061  -0.37969  -0.37923  -0.37769  -0.37395
 Alpha  occ. eigenvalues --   -0.37286  -0.37139  -0.36964  -0.36855  -0.36656
 Alpha  occ. eigenvalues --   -0.36525  -0.36399  -0.36310  -0.36254  -0.36018
 Alpha  occ. eigenvalues --   -0.35917  -0.35901  -0.35803  -0.35683  -0.35495
 Alpha  occ. eigenvalues --   -0.34977  -0.34969  -0.34863  -0.34837  -0.34100
 Alpha  occ. eigenvalues --   -0.33679  -0.33159  -0.33036  -0.32851  -0.32544
 Alpha  occ. eigenvalues --   -0.32060  -0.31688  -0.31212  -0.31007  -0.30912
 Alpha  occ. eigenvalues --   -0.30553  -0.30521  -0.29681  -0.29017  -0.29007
 Alpha  occ. eigenvalues --   -0.28562  -0.28513  -0.28119  -0.27105  -0.26837
 Alpha  occ. eigenvalues --   -0.26610  -0.26132  -0.25986  -0.25813  -0.25684
 Alpha  occ. eigenvalues --   -0.25454  -0.25332  -0.25235  -0.20945  -0.20824
 Alpha  occ. eigenvalues --   -0.18959  -0.18542
 Alpha virt. eigenvalues --   -0.11280  -0.10630  -0.05176  -0.04789  -0.04184
 Alpha virt. eigenvalues --   -0.03442  -0.02014  -0.01853  -0.00061   0.00142
 Alpha virt. eigenvalues --    0.00451   0.00890   0.01420   0.01513   0.02050

 Mulliken charges:
               1
     1  Mg  12.000000
     2  C    6.000000
     3  C    6.000000
     4  C    6.000000
     5  C    6.000000
     6  N    7.000000
     7  C    6.000000
     8  C    6.000000
     9  C    6.000000
    10  C    6.000000
    11  C    6.000000
    12  C    6.000000
    13  C    6.000000
    14  H    1.000000
    15  N    7.000000
    16  C    6.000000
    17  C    6.000000
    18  C    6.000000
    19  C    6.000000
    20  C    6.000000
    21  C    6.000000
    22  O    8.000000
    23  C    6.000000
    24  N    7.000000
    25  C    6.000000
    26  C    6.000000
    27  C    6.000000
    28  C    6.000000
    29  C    6.000000
    30  C    6.000000
    31  C    6.000000
    32  N    7.000000
    33  C    6.000000
    34  C    6.000000
    35  C    6.000000
    36  C    6.000000
    37  C    6.000000
    38  C    6.000000
    39  O    8.000000
    40  C    6.000000
    41  C    6.000000
    42  O    8.000000
    43  O    8.000000
    44  C    6.000000
    45  H    1.000000
    46  H    1.000000
    47  H    1.000000
    48  H    1.000000
    49  H    1.000000
    50  H    1.000000
    51  H    1.000000
    52  H    1.000000
    53  H    1.000000
    54  H    1.000000
    55  H    1.000000
    56  H    1.000000
    57  H    1.000000
    58  H    1.000000
    59  H    1.000000
    60  H    1.000000
    61  H    1.000000
    62  H    1.000000
    63  H    1.000000
    64  H    1.000000
    65  H    1.000000
    66  H    1.000000
    67  H    1.000000
    68  H    1.000000
    69  H    1.000000
    70  H    1.000000
    71  H    1.000000
    72  H    1.000000
    73  H    1.000000
    74  H    1.000000
    75  H    1.000000
    76  H    1.000000
    77  H    1.000000
    78  H    1.000000
    79  H    1.000000
    80  Mg  12.000000
    81  C    6.000000
    82  C    6.000000
    83  C    6.000000
    84  C    6.000000
    85  N    7.000000
    86  C    6.000000
    87  C    6.000000
    88  C    6.000000
    89  C    6.000000
    90  C    6.000000
    91  C    6.000000
    92  C    6.000000
    93  H    1.000000
    94  N    7.000000
    95  C    6.000000
    96  C    6.000000
    97  C    6.000000
    98  C    6.000000
    99  C    6.000000
   100  C    6.000000
   101  O    8.000000
   102  C    6.000000
   103  N    7.000000
   104  C    6.000000
   105  C    6.000000
   106  C    6.000000
   107  C    6.000000
   108  C    6.000000
   109  C    6.000000
   110  C    6.000000
   111  N    7.000000
   112  C    6.000000
   113  C    6.000000
   114  C    6.000000
   115  C    6.000000
   116  C    6.000000
   117  C    6.000000
   118  O    8.000000
   119  C    6.000000
   120  C    6.000000
   121  O    8.000000
   122  O    8.000000
   123  C    6.000000
   124  H    1.000000
   125  H    1.000000
   126  H    1.000000
   127  H    1.000000
   128  H    1.000000
   129  H    1.000000
   130  H    1.000000
   131  H    1.000000
   132  H    1.000000
   133  H    1.000000
   134  H    1.000000
   135  H    1.000000
   136  H    1.000000
   137  H    1.000000
   138  H    1.000000
   139  H    1.000000
   140  H    1.000000
   141  H    1.000000
   142  H    1.000000
   143  H    1.000000
   144  H    1.000000
   145  H    1.000000
   146  H    1.000000
   147  H    1.000000
   148  H    1.000000
   149  H    1.000000
   150  H    1.000000
   151  H    1.000000
   152  H    1.000000
   153  H    1.000000
   154  H    1.000000
   155  H    1.000000
   156  H    1.000000
   157  H    1.000000
   158  H    1.000000
 Sum of Mulliken charges = 624.00000

 Dipole moment (field-independent basis, Debye):
    X=             -0.0000    Y=             -0.0000    Z=             -0.0000  Tot=              0.0000
 Quadrupole moment (field-independent basis, Debye-Ang):
   XX=              0.0000   YY=             -0.0000   ZZ=             -0.0000
   XY=              0.0000   XZ=              0.0000   YZ=              0.0000

 Normal termination of Gaussian 16 at Fri Oct 15 06:34:49 2021.
