 Gaussian 16, Revision A.03,
 Gaussian 16:  ES64L-G16RevA.03 25-Dec-2016

 --------------------------------------------------------
 #p PBE1PBE/Def2SVP td=(nstates=5) density=(transition=1)
 --------------------------------------------------------

 --------------------------------
 TDDFT excited states in gaussian
 --------------------------------
 Symbolic Z-matrix:
 Charge =  0 Multiplicity = 1

                         Standard orientation:
 ---------------------------------------------------------------------
 Center     Atomic      Atomic             Coordinates (Angstroms)
 Number     Number       Type             X           Y           Z
 ---------------------------------------------------------------------
      1         12           0       13.530536   -0.684373    0.121859
      2          6           0       12.056415    2.025921   -1.692938
      3          6           0       16.091702    1.429539    0.905996
      4          6           0       15.067988   -3.174794    1.342786
      5          6           0       11.488154   -2.830198   -1.713834
      6          7           0       13.911301    1.436323   -0.386386
      7          6           0       13.238781    2.379270   -1.038873
      8          6           0       13.869690    3.796942   -0.899109
      9          6           0       15.371161    3.373006   -0.570690
     10          6           0       15.108855    2.013399    0.052678
     11          6           0       16.236729    3.185254   -1.812481
     12          6           0       13.235988    4.616603    0.274905
     13          6           0       13.559219    6.113558    0.275691
     14          1           0       12.539132    7.050012    0.722709
     15          7           0       15.045694   -0.760010    1.387334
     16          6           0       15.981692    0.198550    1.588222
     17          6           0       16.891126   -0.331150    2.626985
     18          6           0       16.518456   -1.751288    2.876827
     19          6           0       15.533488   -1.962700    1.847011
     20          6           0       17.941730    0.497042    3.300838
     21          6           0       16.984798   -2.761205    3.877189
     22          8           0       16.700358   -4.003306    3.773008
     23          6           0       17.868697   -2.265698    4.947813
     24          7           0       13.476646   -2.729439   -0.293394
     25          6           0       14.199491   -3.598125    0.422053
     26          6           0       13.790426   -5.013045    0.138141
     27          6           0       12.463759   -4.920783   -0.745711
     28          6           0       12.384026   -3.381103   -0.891651
     29          6           0       14.829583   -5.876888   -0.589830
     30          6           0       11.216852   -5.677722   -0.223517
     31          6           0       10.720658   -5.031727    1.050680
     32          7           0       11.907811   -0.465247   -1.302849
     33          6           0       11.217059   -1.494407   -1.958871
     34          6           0       10.284114   -0.854225   -2.904307
     35          6           0       10.510202    0.511370   -2.743442
     36          6           0       11.538841    0.710753   -1.778849
     37          6           0        9.417421   -1.531145   -3.807112
     38          6           0       10.139347    1.847703   -3.179949
     39          8           0        9.260866    2.308872   -3.910078
     40          6           0       11.210214    2.877360   -2.606469
     41          6           0       10.454607    4.026480   -1.996641
     42          8           0        9.756739    3.862996   -0.975065
     43          8           0       10.856919    5.174054   -2.563880
     44          6           0       10.167094    6.356857   -1.983128
     45          1           0       17.056806    1.927603    1.017570
     46          1           0       15.495028   -4.060187    1.818344
     47          1           0       10.759856   -3.433408   -2.258971
     48          1           0       13.842922    4.397965   -1.808218
     49          1           0       15.832712    4.040645    0.156600
     50          1           0       15.643651    3.248178   -2.724742
     51          1           0       16.677599    2.193201   -1.712693
     52          1           0       17.072156    3.885852   -1.811873
     53          1           0       13.707889    4.324412    1.212985
     54          1           0       12.154134    4.481356    0.299920
     55          1           0       13.977271    6.431550   -0.679831
     56          1           0       14.360139    6.289654    0.993827
     57          1           0       18.088248    1.449195    2.792426
     58          1           0       18.889173   -0.026646    3.175087
     59          1           0       17.736504    0.635873    4.362412
     60          1           0       18.761535   -1.826053    4.502727
     61          1           0       18.028752   -3.108236    5.619648
     62          1           0       17.362125   -1.459371    5.479010
     63          1           0       13.568713   -5.548558    1.060364
     64          1           0       12.613432   -5.316352   -1.750597
     65          1           0       15.097823   -6.786108   -0.051248
     66          1           0       15.708034   -5.260310   -0.778102
     67          1           0       14.551050   -6.171847   -1.601183
     68          1           0       11.472831   -6.708741    0.018187
     69          1           0       10.395220   -5.699125   -0.939559
     70          1           0       11.351258   -5.484752    1.814842
     71          1           0        9.670603   -5.274835    1.216493
     72          1           0       10.919725   -3.959899    1.057288
     73          1           0        8.459777   -1.013101   -3.756926
     74          1           0        9.313089   -2.583084   -3.542267
     75          1           0        9.952090   -1.387968   -4.745987
     76          1           0       11.824558    3.192627   -3.449268
     77          1           0        9.697421    6.891861   -2.808605
     78          1           0       10.911749    6.890843   -1.392576
     79          1           0        9.301249    6.148890   -1.353524
     80         12           0      -13.559635   -0.671263   -0.178783
     81          6           0      -11.910555    2.375864    0.742367
     82          6           0      -16.459135    1.155512   -0.562609
     83          6           0      -15.146031   -3.519390   -0.394946
     84          6           0      -10.571923   -2.296875    0.485593
     85          7           0      -14.195625    1.543833    0.344812
     86          6           0      -13.291169    2.544633    0.576063
     87          6           0      -13.984322    3.921280    0.392268
     88          6           0      -15.479660    3.538584    0.027824
     89          6           0      -15.438682    1.969465   -0.062475
     90          6           0      -16.626783    3.999957    1.022026
     91          6           0      -13.352545    4.839934   -0.687427
     92          6           0      -13.154934    6.274546   -0.348465
     93          1           0      -13.913779    7.004119    0.825020
     94          7           0      -15.584487   -1.168473   -0.440047
     95          6           0      -16.633739   -0.292735   -0.717806
     96          6           0      -17.879144   -1.071618   -0.857102
     97          6           0      -17.462867   -2.456763   -0.921155
     98          6           0      -16.023107   -2.436205   -0.573098
     99          6           0      -19.261597   -0.508565   -0.991307
    100          6           0      -18.263231   -3.744660   -1.227064
    101          8           0      -17.759627   -4.839832   -1.554590
    102          6           0      -19.732695   -3.630174   -1.302193
    103          7           0      -12.951387   -2.556124    0.075180
    104          6           0      -13.864917   -3.583585   -0.011652
    105          6           0      -13.154623   -4.965387   -0.034908
    106          6           0      -11.629597   -4.514249   -0.122446
    107          6           0      -11.703336   -3.021299    0.146984
    108          6           0      -13.448531   -5.977804    1.146151
    109          6           0      -10.898004   -4.798206   -1.424746
    110          6           0       -9.738653   -5.812268   -1.331734
    111          7           0      -11.578262   -0.103436    0.290883
    112          6           0      -10.480287   -0.886243    0.558843
    113          6           0       -9.350598   -0.042465    0.970079
    114          6           0       -9.878034    1.236520    0.989601
    115          6           0      -11.226304    1.157005    0.575184
    116          6           0       -7.967999   -0.445142    1.364515
    117          6           0       -9.503955    2.582401    1.237339
    118          8           0       -8.387528    3.120454    1.485559
    119          6           0      -10.747843    3.353908    1.102103
    120          6           0      -10.974775    4.192076    2.331077
    121          8           0      -11.276310    3.777322    3.397702
    122          8           0      -10.854878    5.484352    2.027574
    123          6           0      -10.721826    6.439480    3.074728
    124          1           0      -17.422005    1.653628   -0.695050
    125          1           0      -15.529966   -4.538332   -0.487514
    126          1           0       -9.659783   -2.825499    0.767345
    127          1           0      -13.920548    4.416920    1.361673
    128          1           0      -15.730839    3.924575   -0.959657
    129          1           0      -16.313656    4.683010    1.811145
    130          1           0      -16.963588    3.104810    1.546906
    131          1           0      -17.469354    4.412472    0.466214
    132          1           0      -13.940119    4.880793   -1.605334
    133          1           0      -12.353512    4.519313   -0.981381
    134          1           0      -13.458287    6.896049   -1.191513
    135          1           0      -12.088906    6.420664   -0.176509
    136          1           0      -19.904616   -0.943076   -0.226223
    137          1           0      -19.623320   -0.819540   -1.971389
    138          1           0      -19.246529    0.579313   -1.065247
    139          1           0      -20.088584   -3.333206   -0.315607
    140          1           0      -20.090984   -4.644144   -1.478287
    141          1           0      -20.054566   -3.031404   -2.153800
    142          1           0      -13.433845   -5.416626   -0.987557
    143          1           0      -11.102809   -5.037753    0.675325
    144          1           0      -14.159019   -5.540293    1.846587
    145          1           0      -12.542886   -6.354272    1.623278
    146          1           0      -13.876559   -6.874954    0.698636
    147          1           0      -10.580801   -3.932341   -2.006091
    148          1           0      -11.619796   -5.271940   -2.089264
    149          1           0       -8.818353   -5.560702   -1.858481
    150          1           0      -10.039553   -6.680754   -1.918262
    151          1           0       -9.429573   -6.080081   -0.322267
    152          1           0       -7.714754   -1.453301    1.035267
    153          1           0       -7.904346   -0.548373    2.447651
    154          1           0       -7.311788    0.370628    1.061440
    155          1           0      -10.603254    3.999443    0.236199
    156          1           0       -9.707627    6.326928    3.460507
    157          1           0      -11.365259    6.186566    3.917551
    158          1           0      -10.817833    7.456942    2.694781
 ---------------------------------------------------------------------

 SCF Done:  E(RPBE1PBE) =  -4067.37788042     A.U. after   16 cycles

 Excitation energies and oscillator strengths:

 Excited State   1:      Singlet-A      1.8412 eV  673.38 nm  f=0.4434  <S**2>=0.000
     310 -> 315       -0.16102
     312 -> 314        0.69004
     312 <- 314       -0.11051
 This state for optimization and/or second-order correction.
 Total Energy, E(TD-HF/TD-DFT) =  -4067.31021631
 Copying the excited state density for this state as the 1-particle RhoCI density.

 Excited State   2:      Singlet-A      1.8644 eV  664.99 nm  f=0.3461  <S**2>=0.000
     309 -> 316        0.17254
     311 -> 313        0.69081
     311 <- 313       -0.11059

 Excited State   3:      Singlet-A      1.8818 eV  658.87 nm  f=0.0000  <S**2>=0.000
     312 -> 313        0.70709

 Excited State   4:      Singlet-A      1.9582 eV  633.17 nm  f=0.0000  <S**2>=0.000
     311 -> 314        0.70710

 Excited State   5:      Singlet-A      2.1929 eV  565.40 nm  f=0.0839  <S**2>=0.000
     310 -> 314        0.65122
     312 -> 315        0.24136

 The electronic state is 1-A.
 Alpha  occ. eigenvalues --  -46.92232 -46.91145 -19.26866 -19.25453 -19.19653
 Alpha  occ. eigenvalues --  -19.19246 -19.18969 -19.18940 -19.18925 -19.18366
 Alpha  occ. eigenvalues --  -14.41900 -14.41460 -14.41086 -14.40915 -14.39270
 Alpha  occ. eigenvalues --  -14.39144 -14.39007 -14.38210 -10.36050 -10.35831
 Alpha  occ. eigenvalues --  -10.32451 -10.32235 -10.31522 -10.31493 -10.29188
 Alpha  occ. eigenvalues --  -10.29100 -10.28845 -10.28809 -10.28589 -10.28556
 Alpha  occ. eigenvalues --  -10.28475 -10.28183 -10.28174 -10.28092 -10.27959
 Alpha  occ. eigenvalues --  -10.27883 -10.27509 -10.27501 -10.27404 -10.27214
 Alpha  occ. eigenvalues --  -10.26992 -10.26671 -10.26644 -10.26520 -10.26066
 Alpha  occ. eigenvalues --  -10.26016 -10.26012 -10.26003 -10.25967 -10.25855
 Alpha  occ. eigenvalues --  -10.25789 -10.25736 -10.25578 -10.25408 -10.25352
 Alpha  occ. eigenvalues --  -10.25336 -10.25305 -10.25229 -10.25217 -10.25215
 Alpha  occ. eigenvalues --  -10.25165 -10.25042 -10.24925 -10.24810 -10.24726
 Alpha  occ. eigenvalues --  -10.24542 -10.24231 -10.24225 -10.24217 -10.23755
 Alpha  occ. eigenvalues --  -10.23737 -10.23645 -10.23593 -10.23574 -10.23570
 Alpha  occ. eigenvalues --  -10.23380 -10.23372 -10.23231 -10.22955 -10.22878
 Alpha  occ. eigenvalues --  -10.22850 -10.22791 -10.22548 -10.22516 -10.22358
 Alpha  occ. eigenvalues --  -10.22050  -3.14389  -3.13463  -1.87212  -1.86777
 Alpha  occ. eigenvalues --   -1.86610  -1.86285  -1.85851  -1.85697  -1.13230
 Alpha  occ. eigenvalues --   -1.11364  -1.04347  -1.03317  -1.03158  -1.02456
 Alpha  occ. eigenvalues --   -1.01796  -1.01392  -0.99268  -0.99127  -0.98324
 Alpha  occ. eigenvalues --   -0.98291  -0.97854  -0.97168  -0.97044  -0.96464
 Alpha  occ. eigenvalues --   -0.87704  -0.86283  -0.83790  -0.83407  -0.83401
 Alpha  occ. eigenvalues --   -0.82665  -0.82625  -0.82550  -0.82158  -0.81929
 Alpha  occ. eigenvalues --   -0.81818  -0.81395  -0.81226  -0.80556  -0.79187
 Alpha  occ. eigenvalues --   -0.78766  -0.78182  -0.77732  -0.77114  -0.76827
 Alpha  occ. eigenvalues --   -0.76799  -0.76284  -0.75958  -0.75843  -0.74895
 Alpha  occ. eigenvalues --   -0.74781  -0.73060  -0.72611  -0.71927  -0.71501
 Alpha  occ. eigenvalues --   -0.71381  -0.71183  -0.70534  -0.70194  -0.69543
 Alpha  occ. eigenvalues --   -0.69183  -0.67469  -0.67197  -0.66043  -0.65900
 Alpha  occ. eigenvalues --   -0.64178  -0.63658  -0.63321  -0.63186  -0.62074
 Alpha  occ. eigenvalues --   -0.61798  -0.61507  -0.60696  -0.60291  -0.59659
 Alpha  occ. eigenvalues --   -0.59372  -0.59371  -0.59174  -0.59051  -0.58894
 Alpha  occ. eigenvalues --   -0.58724  -0.57438  -0.56823  -0.54902  -0.54664
 Alpha  occ. eigenvalues --   -0.54409  -0.54260  -0.53837  -0.53577  -0.53412
 Alpha  occ. eigenvalues --   -0.53073  -0.52727  -0.52297  -0.52058  -0.51753
 Alpha  occ. eigenvalues --   -0.50828  -0.50802  -0.50667  -0.50321  -0.50008
 Alpha  occ. eigenvalues --   -0.49787  -0.49574  -0.49426  -0.49031  -0.48413
 Alpha  occ. eigenvalues --   -0.48255  -0.47910  -0.47907  -0.47705  -0.47681
 Alpha  occ. eigenvalues --   -0.47568  -0.47507  -0.47250  -0.47059  -0.46936
 Alpha  occ. eigenvalues --   -0.46896  -0.46371  -0.46138  -0.46134  -0.46057
 Alpha  occ. eigenvalues --   -0.45862  -0.45812  -0.45752  -0.45041  -0.44687
 Alpha  occ. eigenvalues --   -0.44592  -0.44541  -0.44439  -0.44297  -0.44083
 Alpha  occ. eigenvalues --   -0.43817  -0.43809  -0.43662  -0.43640  -0.43332
 Alpha  occ. eigenvalues --   -0.43191  -0.43172  -0.43071  -0.42967  -0.42910
 Alpha  occ. eigenvalues --   -0.42863  -0.42336  -0.42291  -0.42032  -0.41906
 Alpha  occ. eigenvalues --   -0.41520  -0.41474  -0.41429  -0.41198  -0.41027
 Alpha  occ. eigenvalues --   -0.40861  -0.40828  -0.40828  -0.40534  -0.40506
 Alpha  occ. eigenvalues --   -0.40375  -0.39992  -0.39899  -0.39468  -0.39254
 Alpha  occ. eigenvalues --   -0.39200  -0.39178  -0.39013  -0.38856  -0.38793
 Alpha  occ. eigenvalues --   -0.38698  -0.38390  -0.38246  -0.38233  -0.38193
 Alpha  occ. eigenvalues --   -0.37941  -0.37814  -0.37543  -0.37437  -0.37400
 Alpha  occ. eigenvalues --   -0.37355  -0.36815  -0.36773  -0.36524  -0.36516
 Alpha  occ. eigenvalues --   -0.36436  -0.36322  -0.36228  -0.36061  -0.35918
 Alpha  occ. eigenvalues --   -0.35752  -0.35733  -0.35550  -0.35439  -0.35124
 Alpha  occ. eigenvalues --   -0.34962  -0.34884  -0.34567  -0.34294  -0.33866
 Alpha  occ. eigenvalues --   -0.33375  -0.33131  -0.32795  -0.32677  -0.32339
 Alpha  occ. eigenvalues --   -0.32208  -0.31920  -0.31655  -0.31297  -0.31207
 Alpha  occ. eigenvalues --   -0.31171  -0.30827  -0.29464  -0.29410  -0.29178
 Alpha  occ. eigenvalues --   -0.28871  -0.28421  -0.28360  -0.27021  -0.26675
 Alpha  occ. eigenvalues --   -0.26044  -0.25961  -0.25944  -0.25614  -0.25253
 Alpha  occ. eigenvalues --   -0.25069  -0.24909  -0.24779  -0.20935  -0.20932
 Alpha  occ. eigenvalues --   -0.18859  -0.18715
 Alpha virt. eigenvalues --   -0.11301  -0.11179  -0.05301  -0.04974  -0.04281
 Alpha virt. eigenvalues --   -0.04110  -0.02317  -0.02129  -0.00439   0.00400
 Alpha virt. eigenvalues --    0.00478   0.00500   0.01250   0.01733   0.01812

 Mulliken charges:
               1
     1  Mg  12.000648
     2  C    5.985488
     3  C    6.011781
     4  C    6.011981
     5  C    5.985785
     6  N    6.991950
     7  C    6.031656
     8  C    5.991615
     9  C    6.008593
    10  C    5.973041
    11  C    6.000773
    12  C    5.996410
    13  C    5.998956
    14  H    0.999682
    15  N    7.003379
    16  C    5.963753
    17  C    5.971103
    18  C    5.984875
    19  C    5.979407
    20  C    6.005127
    21  C    5.985753
    22  O    7.969565
    23  C    6.004846
    24  N    7.000662
    25  C    5.973778
    26  C    6.011203
    27  C    5.988308
    28  C    6.031139
    29  C    5.999496
    30  C    5.996314
    31  C    5.999009
    32  N    6.996876
    33  C    6.043678
    34  C    6.022289
    35  C    6.006127
    36  C    6.028479
    37  C    5.996729
    38  C    6.014847
    39  O    8.030177
    40  C    6.001395
    41  C    6.003365
    42  O    8.004277
    43  O    8.001856
    44  C    5.998749
    45  H    0.992195
    46  H    0.994156
    47  H    1.008848
    48  H    0.999254
    49  H    1.000425
    50  H    0.984643
    51  H    1.004443
    52  H    0.996747
    53  H    1.013135
    54  H    0.994467
    55  H    1.000756
    56  H    1.006547
    57  H    0.980733
    58  H    0.980296
    59  H    0.979525
    60  H    0.994811
    61  H    0.985656
    62  H    0.992904
    63  H    1.000973
    64  H    1.003987
    65  H    1.000021
    66  H    1.005238
    67  H    0.990609
    68  H    1.008927
    69  H    0.997180
    70  H    1.011161
    71  H    1.001373
    72  H    0.997333
    73  H    1.015537
    74  H    1.016496
    75  H    1.018138
    76  H    1.007676
    77  H    1.002860
    78  H    1.005841
    79  H    1.002191
    80  Mg  11.999944
    81  C    6.001873
    82  C    5.999694
    83  C    5.997520
    84  C    6.000003
    85  N    7.000645
    86  C    5.997298
    87  C    6.000926
    88  C    5.999390
    89  C    6.002429
    90  C    5.999741
    91  C    6.000257
    92  C    5.999997
    93  H    0.999770
    94  N    6.999704
    95  C    6.003722
    96  C    6.002006
    97  C    6.001387
    98  C    6.003100
    99  C    5.999772
   100  C    6.001311
   101  O    8.002909
   102  C    5.999248
   103  N    6.999368
   104  C    6.003365
   105  C    5.998842
   106  C    6.000706
   107  C    5.997396
   108  C    6.000082
   109  C    6.000836
   110  C    6.000206
   111  N    7.000357
   112  C    5.997190
   113  C    5.996453
   114  C    6.000099
   115  C    5.997051
   116  C    6.000213
   117  C    5.998261
   118  O    7.996821
   119  C    6.000570
   120  C    5.999403
   121  O    7.999730
   122  O    7.999798
   123  C    6.000113
   124  H    1.001115
   125  H    1.000616
   126  H    0.998677
   127  H    1.000128
   128  H    1.000176
   129  H    1.001211
   130  H    0.999734
   131  H    1.000201
   132  H    0.999205
   133  H    1.000508
   134  H    0.999708
   135  H    1.000369
   136  H    1.001808
   137  H    1.001762
   138  H    1.001609
   139  H    1.000842
   140  H    1.001517
   141  H    1.000756
   142  H    0.999930
   143  H    0.999850
   144  H    0.999848
   145  H    1.000886
   146  H    1.000009
   147  H    0.999962
   148  H    0.998774
   149  H    0.999635
   150  H    0.999452
   151  H    0.999978
   152  H    0.998055
   153  H    0.997955
   154  H    0.998173
   155  H    0.998886
   156  H    0.999890
   157  H    0.999725
   158  H    0.999543
 Sum of Mulliken charges = 624.00000

 Dipole moment (field-independent basis, Debye):
    X=             -9.0509    Y=              0.8434    Z=             -6.6620  Tot=             11.2700
 Quadrupole moment (field-independent basis, Debye-Ang):
   XX=           -189.8261   YY=              3.3479   ZZ=             -1.7730
   XY=             22.5389   XZ=            -85.6749   YZ=              4.6484

 Normal termination of Gaussian 16 at Thu Oct 14 16:52:02 2021.
