 Gaussian 16, Revision A.03,
 Gaussian 16:  ES64L-G16RevA.03 25-Dec-2016

 --------------------------------------------------------
 #p PBE1PBE/Def2SVP td=(nstates=5) density=(transition=1)
 --------------------------------------------------------

 --------------------------------
 TDDFT excited states in gaussian
 --------------------------------
 Symbolic Z-matrix:
 Charge =  0 Multiplicity = 1

                         Standard orientation:
 ---------------------------------------------------------------------
 Center     Atomic      Atomic             Coordinates (Angstroms)
 Number     Number       Type             X           Y           Z
 ---------------------------------------------------------------------
      1         12           0       -9.272037   -0.876942    0.489398
      2          6           0       -9.962236    2.416665   -0.178102
      3          6           0       -7.087173    0.140806    2.928247
      4          6           0       -8.477007   -4.196716    1.101918
      5          6           0      -11.144724   -1.831496   -2.267816
      6          7           0       -8.532811    1.086884    1.284317
      7          6           0       -9.061695    2.279351    0.879682
      8          6           0       -8.494961    3.383623    1.632789
      9          6           0       -7.411575    2.767352    2.503712
     10          6           0       -7.632298    1.215825    2.228371
     11          6           0       -5.923536    3.208356    2.281916
     12          6           0       -9.591814    4.158340    2.439794
     13          6           0       -9.379726    5.699794    2.631913
     14          1           0       -7.926807    6.213918    2.650312
     15          7           0       -8.033213   -1.866556    1.926392
     16          6           0       -7.225704   -1.234298    2.856229
     17          6           0       -6.512694   -2.259654    3.644736
     18          6           0       -6.920506   -3.560207    3.117434
     19          6           0       -7.860949   -3.257896    2.024412
     20          6           0       -5.518455   -1.960299    4.754778
     21          6           0       -6.569065   -4.925816    3.660029
     22          8           0       -7.072349   -5.932958    3.132002
     23          6           0       -5.624063   -5.174797    4.775393
     24          7           0       -9.672308   -2.753919   -0.485925
     25          6           0       -9.280681   -3.935687   -0.000946
     26          6           0       -9.917332   -5.088844   -0.794437
     27          6           0      -11.008680   -4.365944   -1.757299
     28          6           0      -10.638682   -2.877924   -1.423130
     29          6           0       -8.836863   -5.927409   -1.544346
     30          6           0      -12.496396   -4.653775   -1.415737
     31          6           0      -13.266529   -5.491103   -2.447805
     32          7           0      -10.304879    0.064955   -1.010715
     33          6           0      -11.020213   -0.447118   -2.095662
     34          6           0      -11.619723    0.657060   -2.877404
     35          6           0      -11.189283    1.781581   -2.134440
     36          6           0      -10.395613    1.372628   -1.029503
     37          6           0      -12.473517    0.576593   -4.045336
     38          6           0      -11.342391    3.247005   -2.023811
     39          8           0      -11.990973    4.033086   -2.661900
     40          6           0      -10.512758    3.706758   -0.772405
     41          6           0       -9.577030    4.760458   -1.196551
     42          8           0       -8.592068    4.478516   -1.897898
     43          8           0       -9.807756    5.986008   -0.650694
     44          6           0       -8.818092    7.039992   -0.850292
     45          1           0       -6.400093    0.497967    3.698200
     46          1           0       -8.185700   -5.233096    1.286301
     47          1           0      -11.825221   -2.185060   -3.045100
     48          1           0       -8.034327    4.070551    0.921990
     49          1           0       -7.667218    2.834216    3.561839
     50          1           0       -5.650532    3.963069    1.543652
     51          1           0       -5.342501    2.315973    2.050505
     52          1           0       -5.428116    3.539334    3.195000
     53          1           0       -9.762745    3.660918    3.394571
     54          1           0      -10.566684    3.938841    2.004826
     55          1           0       -9.859777    6.030103    3.553512
     56          1           0       -9.770498    6.288437    1.802441
     57          1           0       -5.467859   -0.903844    5.016039
     58          1           0       -4.504831   -2.229894    4.456822
     59          1           0       -5.871892   -2.380974    5.695999
     60          1           0       -5.662893   -6.245103    4.975714
     61          1           0       -5.860270   -4.613712    5.680492
     62          1           0       -4.636417   -4.801743    4.503770
     63          1           0      -10.510589   -5.667588   -0.086361
     64          1           0      -10.815218   -4.544022   -2.815051
     65          1           0       -8.934418   -7.001713   -1.387398
     66          1           0       -7.834742   -5.653712   -1.213151
     67          1           0       -8.948086   -5.626054   -2.586210
     68          1           0      -13.087602   -3.750324   -1.270970
     69          1           0      -12.601004   -5.173395   -0.463040
     70          1           0      -12.571536   -6.143654   -2.976383
     71          1           0      -13.710349   -4.806825   -3.170230
     72          1           0      -14.078920   -5.976959   -1.908946
     73          1           0      -13.044213    1.489338   -4.215085
     74          1           0      -13.177804   -0.254261   -4.008218
     75          1           0      -11.828871    0.579817   -4.924389
     76          1           0      -11.309107    4.068602   -0.121136
     77          1           0       -8.717740    7.371084   -1.884290
     78          1           0       -7.860402    6.765323   -0.408253
     79          1           0       -9.136739    7.940080   -0.324781
     80         12           0        9.325154   -0.648452   -0.174381
     81          6           0        8.048439    2.701602   -0.184609
     82          6           0       12.219417    0.587622    1.235190
     83          6           0       10.674555   -3.566899   -0.754891
     84          6           0        6.405014   -1.591463   -1.784954
     85          7           0       10.175293    1.522420    0.212746
     86          6           0        9.386947    2.641125    0.224014
     87          6           0       10.119824    3.783147    0.977722
     88          6           0       11.503342    3.127284    1.391284
     89          6           0       11.352357    1.636401    0.915431
     90          6           0       12.831295    3.759904    0.796704
     91          6           0        9.367216    4.349793    2.211134
     92          6           0        9.318644    5.827150    2.375789
     93          1           0       10.312260    6.816346    1.655088
     94          7           0       11.240132   -1.438403    0.178231
     95          6           0       12.276414   -0.837617    0.892497
     96          6           0       13.429295   -1.757969    0.922686
     97          6           0       12.925091   -3.024206    0.434384
     98          6           0       11.571428   -2.718541   -0.083922
     99          6           0       14.799061   -1.439647    1.440981
    100          6           0       13.580779   -4.424036    0.376162
    101          8           0       12.962610   -5.498393    0.221510
    102          6           0       15.019147   -4.514775    0.693866
    103          7           0        8.657121   -2.251230   -1.160281
    104          6           0        9.477814   -3.347047   -1.313252
    105          6           0        8.691873   -4.561903   -1.879692
    106          6           0        7.204941   -3.991527   -1.855245
    107          6           0        7.414579   -2.515018   -1.567318
    108          6           0        9.124258   -5.142215   -3.287724
    109          6           0        6.242769   -4.611396   -0.854331
    110          6           0        5.057847   -5.390924   -1.462085
    111          7           0        7.493330    0.272829   -0.688694
    112          6           0        6.413085   -0.238788   -1.368000
    113          6           0        5.425038    0.820574   -1.610460
    114          6           0        6.024358    1.959596   -1.102701
    115          6           0        7.273009    1.587159   -0.556754
    116          6           0        4.109969    0.740036   -2.312895
    117          6           0        5.781127    3.343930   -0.909929
    118          8           0        4.759329    4.061135   -1.107591
    119          6           0        7.027133    3.872785   -0.336735
    120          6           0        7.514086    5.044490   -1.145677
    121          8           0        7.970327    4.982639   -2.235931
    122          8           0        7.421877    6.162536   -0.425998
    123          6           0        7.530527    7.424145   -1.076415
    124          1           0       13.173111    0.895083    1.669603
    125          1           0       10.974184   -4.594630   -0.974450
    126          1           0        5.525230   -1.882856   -2.361060
    127          1           0       10.255259    4.581299    0.246912
    128          1           0       11.602393    3.124266    2.476354
    129          1           0       12.701709    4.701298    0.263502
    130          1           0       13.199166    3.062126    0.043044
    131          1           0       13.588137    3.858341    1.575499
    132          1           0        9.788098    4.008617    3.157666
    133          1           0        8.314787    4.068085    2.228621
    134          1           0        9.508293    6.086774    3.417733
    135          1           0        8.309423    6.146689    2.117523
    136          1           0       15.537490   -1.661958    0.670963
    137          1           0       14.965840   -2.103902    2.288954
    138          1           0       14.837323   -0.447098    1.891040
    139          1           0       15.558050   -3.945506   -0.063573
    140          1           0       15.279385   -5.563109    0.549692
    141          1           0       15.224138   -4.281443    1.738327
    142          1           0        8.773816   -5.338180   -1.118246
    143          1           0        6.793744   -4.148772   -2.852337
    144          1           0        9.970619   -4.580060   -3.680756
    145          1           0        8.293954   -5.226215   -3.989943
    146          1           0        9.413058   -6.181447   -3.129772
    147          1           0        5.882602   -3.962356   -0.056003
    148          1           0        6.808353   -5.363095   -0.304735
    149          1           0        4.077102   -5.226325   -1.016275
    150          1           0        5.199313   -6.435509   -1.183419
    151          1           0        4.912851   -5.263336   -2.533988
    152          1           0        3.742872   -0.282999   -2.399849
    153          1           0        4.228969    1.017452   -3.360164
    154          1           0        3.461782    1.476153   -1.837572
    155          1           0        6.773953    4.199619    0.671476
    156          1           0        6.593663    7.568400   -1.616384
    157          1           0        8.293843    7.397642   -1.854211
    158          1           0        7.620646    8.234426   -0.352446
 ---------------------------------------------------------------------

 SCF Done:  E(RPBE1PBE) =  -4067.41164959     A.U. after   16 cycles

 Excitation energies and oscillator strengths:

 Excited State   1:      Singlet-A      1.7235 eV  719.35 nm  f=0.0000  <S**2>=0.000
     312 -> 313        0.70707
 This state for optimization and/or second-order correction.
 Total Energy, E(TD-HF/TD-DFT) =  -4067.34831039
 Copying the excited state density for this state as the 1-particle RhoCI density.

 Excited State   2:      Singlet-A      1.8636 eV  665.28 nm  f=0.4685  <S**2>=0.000
     309 -> 316        0.17263
     311 -> 313        0.69146
     311 <- 313       -0.11067

 Excited State   3:      Singlet-A      1.8896 eV  656.14 nm  f=0.3167  <S**2>=0.000
     310 -> 315        0.17923
     312 -> 314        0.68702
     312 <- 314       -0.10404

 Excited State   4:      Singlet-A      2.0414 eV  607.36 nm  f=0.0000  <S**2>=0.000
     311 -> 314        0.70708

 Excited State   5:      Singlet-A      2.2042 eV  562.50 nm  f=0.1130  <S**2>=0.000
     309 -> 313        0.66049
     311 -> 316       -0.24056

 The electronic state is 1-A.
 Alpha  occ. eigenvalues --  -46.92321 -46.92233 -19.26493 -19.25556 -19.19751
 Alpha  occ. eigenvalues --  -19.19442 -19.19205 -19.19043 -19.19002 -19.18543
 Alpha  occ. eigenvalues --  -14.41550 -14.41274 -14.41171 -14.41169 -14.39356
 Alpha  occ. eigenvalues --  -14.39236 -14.39141 -14.38849 -10.36470 -10.35930
 Alpha  occ. eigenvalues --  -10.32311 -10.32031 -10.31966 -10.31596 -10.29430
 Alpha  occ. eigenvalues --  -10.29279 -10.28900 -10.28701 -10.28660 -10.28557
 Alpha  occ. eigenvalues --  -10.28286 -10.28271 -10.28269 -10.28068 -10.27970
 Alpha  occ. eigenvalues --  -10.27787 -10.27661 -10.27628 -10.27593 -10.27491
 Alpha  occ. eigenvalues --  -10.26778 -10.26757 -10.26737 -10.26728 -10.26326
 Alpha  occ. eigenvalues --  -10.26159 -10.26103 -10.26094 -10.26031 -10.25986
 Alpha  occ. eigenvalues --  -10.25887 -10.25850 -10.25770 -10.25682 -10.25579
 Alpha  occ. eigenvalues --  -10.25552 -10.25424 -10.25305 -10.25221 -10.25185
 Alpha  occ. eigenvalues --  -10.25126 -10.25015 -10.24997 -10.24920 -10.24742
 Alpha  occ. eigenvalues --  -10.24621 -10.24581 -10.24336 -10.24302 -10.24066
 Alpha  occ. eigenvalues --  -10.23812 -10.23678 -10.23657 -10.23641 -10.23467
 Alpha  occ. eigenvalues --  -10.23452 -10.23432 -10.23425 -10.23333 -10.23024
 Alpha  occ. eigenvalues --  -10.22997 -10.22968 -10.22933 -10.22851 -10.22777
 Alpha  occ. eigenvalues --  -10.22609  -3.14478  -3.14240  -1.87301  -1.87103
 Alpha  occ. eigenvalues --   -1.86866  -1.86699  -1.86597  -1.86470  -1.13331
 Alpha  occ. eigenvalues --   -1.11103  -1.05654  -1.04447  -1.03578  -1.03233
 Alpha  occ. eigenvalues --   -1.02560  -1.01821  -0.99685  -0.99357  -0.98673
 Alpha  occ. eigenvalues --   -0.98377  -0.98015  -0.97256  -0.96553  -0.95555
 Alpha  occ. eigenvalues --   -0.87800  -0.86781  -0.83483  -0.83353  -0.82765
 Alpha  occ. eigenvalues --   -0.82703  -0.82541  -0.81978  -0.81909  -0.81467
 Alpha  occ. eigenvalues --   -0.81308  -0.81023  -0.80644  -0.80426  -0.78860
 Alpha  occ. eigenvalues --   -0.78190  -0.77818  -0.77790  -0.76883  -0.76523
 Alpha  occ. eigenvalues --   -0.76363  -0.76048  -0.75971  -0.75460  -0.74868
 Alpha  occ. eigenvalues --   -0.74854  -0.72716  -0.72696  -0.72012  -0.71790
 Alpha  occ. eigenvalues --   -0.71566  -0.71471  -0.70617  -0.70486  -0.69625
 Alpha  occ. eigenvalues --   -0.69199  -0.67558  -0.67018  -0.65986  -0.65929
 Alpha  occ. eigenvalues --   -0.63739  -0.63483  -0.63401  -0.62713  -0.62415
 Alpha  occ. eigenvalues --   -0.61895  -0.61323  -0.60783  -0.60370  -0.60197
 Alpha  occ. eigenvalues --   -0.59819  -0.59553  -0.59460  -0.59273  -0.58985
 Alpha  occ. eigenvalues --   -0.58833  -0.57534  -0.57248  -0.54753  -0.54496
 Alpha  occ. eigenvalues --   -0.54342  -0.54072  -0.53925  -0.53726  -0.53509
 Alpha  occ. eigenvalues --   -0.53157  -0.52856  -0.52812  -0.52388  -0.51826
 Alpha  occ. eigenvalues --   -0.50899  -0.50752  -0.50641  -0.50243  -0.49882
 Alpha  occ. eigenvalues --   -0.49664  -0.49521  -0.49194  -0.48448  -0.48335
 Alpha  occ. eigenvalues --   -0.48018  -0.48007  -0.47773  -0.47659  -0.47576
 Alpha  occ. eigenvalues --   -0.47327  -0.47310  -0.46988  -0.46890  -0.46578
 Alpha  occ. eigenvalues --   -0.46218  -0.46213  -0.46139  -0.46074  -0.45955
 Alpha  occ. eigenvalues --   -0.45837  -0.45765  -0.45667  -0.44834  -0.44765
 Alpha  occ. eigenvalues --   -0.44616  -0.44481  -0.44388  -0.44382  -0.43897
 Alpha  occ. eigenvalues --   -0.43868  -0.43732  -0.43509  -0.43418  -0.43278
 Alpha  occ. eigenvalues --   -0.43101  -0.42988  -0.42980  -0.42956  -0.42696
 Alpha  occ. eigenvalues --   -0.42559  -0.42414  -0.42110  -0.42078  -0.41812
 Alpha  occ. eigenvalues --   -0.41713  -0.41562  -0.41507  -0.41295  -0.40945
 Alpha  occ. eigenvalues --   -0.40925  -0.40925  -0.40621  -0.40606  -0.40463
 Alpha  occ. eigenvalues --   -0.40403  -0.40215  -0.40079  -0.39858  -0.39690
 Alpha  occ. eigenvalues --   -0.39550  -0.39293  -0.39273  -0.39104  -0.39087
 Alpha  occ. eigenvalues --   -0.38554  -0.38481  -0.38384  -0.38318  -0.38280
 Alpha  occ. eigenvalues --   -0.38025  -0.37940  -0.37779  -0.37620  -0.37449
 Alpha  occ. eigenvalues --   -0.37446  -0.36903  -0.36868  -0.36625  -0.36522
 Alpha  occ. eigenvalues --   -0.36509  -0.36320  -0.36313  -0.36142  -0.35935
 Alpha  occ. eigenvalues --   -0.35840  -0.35716  -0.35493  -0.35233  -0.35203
 Alpha  occ. eigenvalues --   -0.34966  -0.34800  -0.34644  -0.34485  -0.33970
 Alpha  occ. eigenvalues --   -0.33212  -0.33124  -0.32880  -0.32429  -0.32122
 Alpha  occ. eigenvalues --   -0.32008  -0.31668  -0.31582  -0.31401  -0.31276
 Alpha  occ. eigenvalues --   -0.31023  -0.30909  -0.29504  -0.29270  -0.29215
 Alpha  occ. eigenvalues --   -0.28861  -0.28511  -0.28421  -0.27109  -0.26644
 Alpha  occ. eigenvalues --   -0.26143  -0.26043  -0.25748  -0.25690  -0.25651
 Alpha  occ. eigenvalues --   -0.25494  -0.25337  -0.25085  -0.21024  -0.20765
 Alpha  occ. eigenvalues --   -0.18946  -0.18451
 Alpha virt. eigenvalues --   -0.11390  -0.10737  -0.05168  -0.05061  -0.04373
 Alpha virt. eigenvalues --   -0.03602  -0.02404  -0.01778  -0.00541  -0.00157
 Alpha virt. eigenvalues --    0.00397   0.01143   0.01404   0.01641   0.01715

 Mulliken charges:
               1
     1  Mg  12.000000
     2  C    6.000000
     3  C    6.000000
     4  C    6.000000
     5  C    6.000000
     6  N    7.000000
     7  C    6.000000
     8  C    6.000000
     9  C    6.000000
    10  C    6.000000
    11  C    6.000000
    12  C    6.000000
    13  C    6.000000
    14  H    1.000000
    15  N    7.000000
    16  C    6.000000
    17  C    6.000000
    18  C    6.000000
    19  C    6.000000
    20  C    6.000000
    21  C    6.000000
    22  O    8.000000
    23  C    6.000000
    24  N    7.000000
    25  C    6.000000
    26  C    6.000000
    27  C    6.000000
    28  C    6.000000
    29  C    6.000000
    30  C    6.000000
    31  C    6.000000
    32  N    7.000000
    33  C    6.000000
    34  C    6.000000
    35  C    6.000000
    36  C    6.000000
    37  C    6.000000
    38  C    6.000000
    39  O    8.000000
    40  C    6.000000
    41  C    6.000000
    42  O    8.000000
    43  O    8.000000
    44  C    6.000000
    45  H    1.000000
    46  H    1.000000
    47  H    1.000000
    48  H    1.000000
    49  H    1.000000
    50  H    1.000000
    51  H    1.000000
    52  H    1.000000
    53  H    1.000000
    54  H    1.000000
    55  H    1.000000
    56  H    1.000000
    57  H    1.000000
    58  H    1.000000
    59  H    1.000000
    60  H    1.000000
    61  H    1.000000
    62  H    1.000000
    63  H    1.000000
    64  H    1.000000
    65  H    1.000000
    66  H    1.000000
    67  H    1.000000
    68  H    1.000000
    69  H    1.000000
    70  H    1.000000
    71  H    1.000000
    72  H    1.000000
    73  H    1.000000
    74  H    1.000000
    75  H    1.000000
    76  H    1.000000
    77  H    1.000000
    78  H    1.000000
    79  H    1.000000
    80  Mg  12.000000
    81  C    6.000000
    82  C    6.000000
    83  C    6.000000
    84  C    6.000000
    85  N    7.000000
    86  C    6.000000
    87  C    6.000000
    88  C    6.000000
    89  C    6.000000
    90  C    6.000000
    91  C    6.000000
    92  C    6.000000
    93  H    1.000000
    94  N    7.000000
    95  C    6.000000
    96  C    6.000000
    97  C    6.000000
    98  C    6.000000
    99  C    6.000000
   100  C    6.000000
   101  O    8.000000
   102  C    6.000000
   103  N    7.000000
   104  C    6.000000
   105  C    6.000000
   106  C    6.000000
   107  C    6.000000
   108  C    6.000000
   109  C    6.000000
   110  C    6.000000
   111  N    7.000000
   112  C    6.000000
   113  C    6.000000
   114  C    6.000000
   115  C    6.000000
   116  C    6.000000
   117  C    6.000000
   118  O    8.000000
   119  C    6.000000
   120  C    6.000000
   121  O    8.000000
   122  O    8.000000
   123  C    6.000000
   124  H    1.000000
   125  H    1.000000
   126  H    1.000000
   127  H    1.000000
   128  H    1.000000
   129  H    1.000000
   130  H    1.000000
   131  H    1.000000
   132  H    1.000000
   133  H    1.000000
   134  H    1.000000
   135  H    1.000000
   136  H    1.000000
   137  H    1.000000
   138  H    1.000000
   139  H    1.000000
   140  H    1.000000
   141  H    1.000000
   142  H    1.000000
   143  H    1.000000
   144  H    1.000000
   145  H    1.000000
   146  H    1.000000
   147  H    1.000000
   148  H    1.000000
   149  H    1.000000
   150  H    1.000000
   151  H    1.000000
   152  H    1.000000
   153  H    1.000000
   154  H    1.000000
   155  H    1.000000
   156  H    1.000000
   157  H    1.000000
   158  H    1.000000
 Sum of Mulliken charges = 624.00000

 Dipole moment (field-independent basis, Debye):
    X=              0.0000    Y=             -0.0000    Z=              0.0000  Tot=              0.0000
 Quadrupole moment (field-independent basis, Debye-Ang):
   XX=             -0.0000   YY=              0.0000   ZZ=              0.0000
   XY=             -0.0000   XZ=             -0.0000   YZ=             -0.0000

 Normal termination of Gaussian 16 at Fri Oct 15 03:08:39 2021.
