 Gaussian 16, Revision A.03,
 Gaussian 16:  ES64L-G16RevA.03 25-Dec-2016

 --------------------------------------------------------
 #p PBE1PBE/Def2SVP td=(nstates=5) density=(transition=1)
 --------------------------------------------------------

 --------------------------------
 TDDFT excited states in gaussian
 --------------------------------
 Symbolic Z-matrix:
 Charge =  0 Multiplicity = 1

                         Standard orientation:
 ---------------------------------------------------------------------
 Center     Atomic      Atomic             Coordinates (Angstroms)
 Number     Number       Type             X           Y           Z
 ---------------------------------------------------------------------
      1         12           0       26.111398   -0.817887    0.260122
      2          6           0       26.937585    2.270651   -1.108003
      3          6           0       25.047080    0.777402    3.100042
      4          6           0       25.624139   -3.884843    1.663899
      5          6           0       27.504559   -2.260826   -2.674219
      6          7           0       26.036785    1.268166    0.931812
      7          6           0       26.319807    2.347290    0.136720
      8          6           0       25.962046    3.592077    0.952503
      9          6           0       25.662654    3.094076    2.355226
     10          6           0       25.537869    1.596337    2.099922
     11          6           0       26.594471    3.435185    3.486971
     12          6           0       24.823402    4.527008    0.321916
     13          6           0       24.295649    5.674070    1.242447
     14          1           0       24.982153    7.062855    1.164652
     15          7           0       25.293528   -1.432708    2.065644
     16          6           0       24.947518   -0.639319    3.109845
     17          6           0       24.524650   -1.515801    4.170990
     18          6           0       24.701803   -2.865453    3.746413
     19          6           0       25.244452   -2.789060    2.464990
     20          6           0       24.020724   -0.952469    5.463853
     21          6           0       24.494901   -4.140162    4.615302
     22          8           0       24.985887   -5.212012    4.309297
     23          6           0       23.816549   -4.135720    5.901262
     24          7           0       26.489023   -2.665504   -0.391832
     25          6           0       26.168911   -3.817090    0.326575
     26          6           0       26.493695   -5.105248   -0.449553
     27          6           0       26.804387   -4.542401   -1.878148
     28          6           0       26.893157   -3.044883   -1.634374
     29          6           0       27.421570   -6.049636    0.195493
     30          6           0       25.836268   -4.945662   -3.123239
     31          6           0       26.402240   -5.670265   -4.348178
     32          7           0       27.117566   -0.147670   -1.573037
     33          6           0       27.618466   -0.866972   -2.621626
     34          6           0       28.168858   -0.011013   -3.617906
     35          6           0       27.853151    1.300243   -3.093122
     36          6           0       27.289305    1.139520   -1.796430
     37          6           0       28.771629   -0.483972   -4.885598
     38          6           0       27.870837    2.708794   -3.414501
     39          8           0       28.186186    3.347612   -4.399171
     40          6           0       27.256036    3.409678   -2.065211
     41          6           0       28.132834    4.501899   -1.571167
     42          8           0       29.241318    4.321308   -1.116875
     43          8           0       27.554649    5.711705   -1.670720
     44          6           0       28.238159    6.865310   -0.969176
     45          1           0       24.656831    1.282778    3.986217
     46          1           0       25.464673   -4.854551    2.139656
     47          1           0       27.856610   -2.887841   -3.496249
     48          1           0       26.913850    4.121317    0.909107
     49          1           0       24.715548    3.515134    2.691645
     50          1           0       27.063143    2.460987    3.622768
     51          1           0       26.070909    3.827653    4.358843
     52          1           0       27.403150    4.096493    3.175084
     53          1           0       24.030482    3.803524    0.131135
     54          1           0       25.180608    4.967719   -0.608079
     55          1           0       24.377951    5.413757    2.296957
     56          1           0       23.234064    5.806195    1.033489
     57          1           0       23.903585    0.128561    5.545858
     58          1           0       24.782214   -1.196619    6.203806
     59          1           0       23.108702   -1.435977    5.814462
     60          1           0       24.077261   -3.391923    6.653485
     61          1           0       23.791225   -5.093206    6.421368
     62          1           0       22.776328   -4.005007    5.603745
     63          1           0       25.487314   -5.524821   -0.451583
     64          1           0       27.834033   -4.886942   -1.972813
     65          1           0       27.023081   -7.027480    0.467260
     66          1           0       27.791392   -5.573882    1.104160
     67          1           0       28.282078   -6.316948   -0.417706
     68          1           0       25.387592   -4.025009   -3.495832
     69          1           0       24.963884   -5.561748   -2.902048
     70          1           0       26.542284   -5.042917   -5.228861
     71          1           0       25.911509   -6.612534   -4.590273
     72          1           0       27.434149   -5.935392   -4.117609
     73          1           0       29.438322   -1.316181   -4.660898
     74          1           0       29.271181    0.312293   -5.436769
     75          1           0       27.991840   -1.011360   -5.435988
     76          1           0       26.326470    3.879730   -2.384601
     77          1           0       27.816094    7.725598   -1.488172
     78          1           0       29.314635    6.769515   -1.109593
     79          1           0       27.899443    6.844066    0.066747
     80         12           0      -26.827225   -0.555136   -0.192789
     81          6           0      -25.205511    2.602815   -0.456361
     82          6           0      -28.289839    0.535042    2.721805
     83          6           0      -28.193930   -3.561560   -0.081376
     84          6           0      -24.851262   -1.731282   -2.955320
     85          7           0      -26.708702    1.387105    1.083340
     86          6           0      -26.050432    2.528551    0.663703
     87          6           0      -26.375423    3.633186    1.726825
     88          6           0      -27.364257    2.942973    2.809785
     89          6           0      -27.445627    1.547921    2.181693
     90          6           0      -26.911895    3.011136    4.283286
     91          6           0      -26.854820    5.041055    1.180131
     92          6           0      -26.010286    6.215911    1.579785
     93          1           0      -25.199416    6.268775    2.847656
     94          7           0      -28.229380   -1.389668    1.130087
     95          6           0      -28.682461   -0.777433    2.256000
     96          6           0      -29.726133   -1.625303    2.772160
     97          6           0      -29.648757   -2.839559    2.056467
     98          6           0      -28.634588   -2.686491    0.963137
     99          6           0      -30.535243   -1.186546    4.004351
    100          6           0      -30.338649   -4.128749    2.385429
    101          8           0      -30.102964   -5.180994    1.745521
    102          6           0      -31.280249   -4.178263    3.531021
    103          7           0      -26.466009   -2.406227   -1.368009
    104          6           0      -27.208023   -3.437576   -1.159764
    105          6           0      -27.020647   -4.693306   -2.167337
    106          6           0      -25.930531   -4.089729   -3.065943
    107          6           0      -25.727004   -2.715378   -2.476775
    108          6           0      -26.591367   -5.965892   -1.349179
    109          6           0      -26.234900   -4.025760   -4.603976
    110          6           0      -27.277206   -2.977304   -5.060114
    111          7           0      -25.299729    0.194399   -1.326787
    112          6           0      -24.597551   -0.428174   -2.385544
    113          6           0      -23.697800    0.571796   -2.976506
    114          6           0      -23.911390    1.772039   -2.257022
    115          6           0      -24.932640    1.504220   -1.283864
    116          6           0      -22.746471    0.329169   -4.186346
    117          6           0      -23.510056    3.076998   -2.206574
    118          8           0      -22.668708    3.697432   -2.824139
    119          6           0      -24.350360    3.744345   -1.082200
    120          6           0      -23.446351    4.381221   -0.152533
    121          8           0      -22.930733    3.825168    0.823745
    122          8           0      -23.060915    5.631339   -0.651024
    123          6           0      -21.986480    6.294824    0.128375
    124          1           0      -28.608859    0.658004    3.759266
    125          1           0      -28.528310   -4.590396    0.067970
    126          1           0      -24.229751   -2.035940   -3.799870
    127          1           0      -25.356697    3.824951    2.061272
    128          1           0      -28.308880    3.484980    2.816267
    129          1           0      -27.682689    3.472505    4.901957
    130          1           0      -25.963620    3.509634    4.483504
    131          1           0      -26.788363    1.965421    4.564936
    132          1           0      -27.885428    5.227358    1.482827
    133          1           0      -26.777275    4.967390    0.095363
    134          1           0      -26.704168    7.005266    1.871012
    135          1           0      -25.376997    6.473643    0.731628
    136          1           0      -30.443713   -0.117258    4.196380
    137          1           0      -30.199568   -1.740993    4.879774
    138          1           0      -31.565200   -1.439594    3.754905
    139          1           0      -32.053679   -3.435411    3.335791
    140          1           0      -30.790034   -3.890548    4.461871
    141          1           0      -31.653955   -5.190821    3.677825
    142          1           0      -27.930902   -4.885345   -2.735904
    143          1           0      -24.974656   -4.566518   -2.847767
    144          1           0      -26.035963   -5.626062   -0.475070
    145          1           0      -25.906349   -6.549107   -1.965586
    146          1           0      -27.374991   -6.639697   -1.001781
    147          1           0      -26.421673   -5.029262   -4.985028
    148          1           0      -25.296419   -3.803638   -5.110964
    149          1           0      -28.084106   -2.751716   -4.363692
    150          1           0      -27.647196   -3.274238   -6.042112
    151          1           0      -26.699388   -2.071875   -5.245008
    152          1           0      -22.834982    1.091098   -4.960836
    153          1           0      -22.861561   -0.657199   -4.634300
    154          1           0      -21.726873    0.574520   -3.888089
    155          1           0      -24.916081    4.485535   -1.645776
    156          1           0      -21.042321    5.764248    0.007944
    157          1           0      -22.158903    6.320386    1.203736
    158          1           0      -22.022374    7.350830   -0.139875
 ---------------------------------------------------------------------

 SCF Done:  E(RPBE1PBE) =  -4067.37958593     A.U. after   16 cycles

 Excitation energies and oscillator strengths:

 Excited State   1:      Singlet-A      1.8570 eV  667.66 nm  f=0.3788  <S**2>=0.000
     309 -> 315       -0.17292
     312 -> 313        0.69304
     312 <- 313       -0.11171
 This state for optimization and/or second-order correction.
 Total Energy, E(TD-HF/TD-DFT) =  -4067.31134274
 Copying the excited state density for this state as the 1-particle RhoCI density.

 Excited State   2:      Singlet-A      1.8677 eV  663.83 nm  f=0.3670  <S**2>=0.000
     310 -> 316       -0.18707
     311 -> 314        0.68777

 Excited State   3:      Singlet-A      2.0106 eV  616.66 nm  f=0.0000  <S**2>=0.000
     311 -> 313        0.70711

 Excited State   4:      Singlet-A      2.0225 eV  613.02 nm  f=0.0000  <S**2>=0.000
     312 -> 314        0.70711

 Excited State   5:      Singlet-A      2.2069 eV  561.81 nm  f=0.1029  <S**2>=0.000
     310 -> 314        0.65388
     311 -> 316        0.25872

 The electronic state is 1-A.
 Alpha  occ. eigenvalues --  -46.93216 -46.91253 -19.25049 -19.25023 -19.19616
 Alpha  occ. eigenvalues --  -19.19264 -19.18913 -19.18709 -19.18463 -19.18149
 Alpha  occ. eigenvalues --  -14.42206 -14.42075 -14.41533 -14.41446 -14.39547
 Alpha  occ. eigenvalues --  -14.39312 -14.38716 -14.38089 -10.35698 -10.34940
 Alpha  occ. eigenvalues --  -10.32679 -10.31899 -10.31797 -10.30701 -10.29447
 Alpha  occ. eigenvalues --  -10.29346 -10.29317 -10.29184 -10.29033 -10.28916
 Alpha  occ. eigenvalues --  -10.28836 -10.28818 -10.28243 -10.28183 -10.28100
 Alpha  occ. eigenvalues --  -10.28086 -10.28079 -10.27431 -10.27309 -10.27117
 Alpha  occ. eigenvalues --  -10.26771 -10.26726 -10.26632 -10.26588 -10.26182
 Alpha  occ. eigenvalues --  -10.26141 -10.26010 -10.25990 -10.25978 -10.25928
 Alpha  occ. eigenvalues --  -10.25791 -10.25745 -10.25522 -10.25490 -10.25325
 Alpha  occ. eigenvalues --  -10.25320 -10.25320 -10.25315 -10.25147 -10.25116
 Alpha  occ. eigenvalues --  -10.25028 -10.25000 -10.24950 -10.24902 -10.24900
 Alpha  occ. eigenvalues --  -10.24754 -10.24710 -10.24698 -10.24657 -10.24574
 Alpha  occ. eigenvalues --  -10.24499 -10.24494 -10.24342 -10.24235 -10.23774
 Alpha  occ. eigenvalues --  -10.23691 -10.23681 -10.23427 -10.23402 -10.23399
 Alpha  occ. eigenvalues --  -10.23352 -10.23188 -10.23026 -10.23018 -10.22939
 Alpha  occ. eigenvalues --  -10.22030  -3.15139  -3.13490  -1.87994  -1.87548
 Alpha  occ. eigenvalues --   -1.87318  -1.86348  -1.85867  -1.85716  -1.10600
 Alpha  occ. eigenvalues --   -1.09182  -1.05682  -1.04333  -1.04262  -1.02881
 Alpha  occ. eigenvalues --   -1.01538  -1.01219  -1.00757  -0.99844  -0.98788
 Alpha  occ. eigenvalues --   -0.98203  -0.97934  -0.97611  -0.96987  -0.96616
 Alpha  occ. eigenvalues --   -0.86886  -0.86789  -0.84080  -0.83467  -0.83012
 Alpha  occ. eigenvalues --   -0.82635  -0.82399  -0.82061  -0.81869  -0.81416
 Alpha  occ. eigenvalues --   -0.81243  -0.81128  -0.80984  -0.79951  -0.78892
 Alpha  occ. eigenvalues --   -0.78575  -0.77983  -0.77714  -0.76859  -0.76782
 Alpha  occ. eigenvalues --   -0.76697  -0.76232  -0.75701  -0.75085  -0.75053
 Alpha  occ. eigenvalues --   -0.74413  -0.73116  -0.72456  -0.72106  -0.71903
 Alpha  occ. eigenvalues --   -0.71561  -0.70802  -0.70193  -0.70120  -0.69510
 Alpha  occ. eigenvalues --   -0.69337  -0.67225  -0.67093  -0.66259  -0.66010
 Alpha  occ. eigenvalues --   -0.64806  -0.63667  -0.63559  -0.63258  -0.62709
 Alpha  occ. eigenvalues --   -0.62284  -0.61336  -0.61241  -0.60082  -0.59900
 Alpha  occ. eigenvalues --   -0.59811  -0.59448  -0.59138  -0.59100  -0.58802
 Alpha  occ. eigenvalues --   -0.58743  -0.56112  -0.55991  -0.55057  -0.54614
 Alpha  occ. eigenvalues --   -0.54273  -0.54141  -0.53580  -0.53434  -0.53283
 Alpha  occ. eigenvalues --   -0.52730  -0.52561  -0.52474  -0.52147  -0.51682
 Alpha  occ. eigenvalues --   -0.50961  -0.50851  -0.50580  -0.50316  -0.49887
 Alpha  occ. eigenvalues --   -0.49749  -0.49455  -0.49343  -0.49071  -0.48390
 Alpha  occ. eigenvalues --   -0.48187  -0.47777  -0.47666  -0.47576  -0.47353
 Alpha  occ. eigenvalues --   -0.47328  -0.47221  -0.47122  -0.46892  -0.46722
 Alpha  occ. eigenvalues --   -0.46616  -0.46129  -0.45865  -0.45843  -0.45598
 Alpha  occ. eigenvalues --   -0.45526  -0.45422  -0.45058  -0.44847  -0.44797
 Alpha  occ. eigenvalues --   -0.44548  -0.44480  -0.44127  -0.44043  -0.43927
 Alpha  occ. eigenvalues --   -0.43859  -0.43783  -0.43683  -0.43588  -0.43543
 Alpha  occ. eigenvalues --   -0.43367  -0.43231  -0.43209  -0.42847  -0.42674
 Alpha  occ. eigenvalues --   -0.42511  -0.42401  -0.42205  -0.42130  -0.42032
 Alpha  occ. eigenvalues --   -0.41794  -0.41573  -0.41452  -0.41345  -0.41333
 Alpha  occ. eigenvalues --   -0.41248  -0.41206  -0.40966  -0.40912  -0.40777
 Alpha  occ. eigenvalues --   -0.40624  -0.40302  -0.39895  -0.39818  -0.39815
 Alpha  occ. eigenvalues --   -0.39563  -0.39494  -0.39227  -0.39134  -0.39037
 Alpha  occ. eigenvalues --   -0.38857  -0.38674  -0.38513  -0.38494  -0.38080
 Alpha  occ. eigenvalues --   -0.38061  -0.38008  -0.37664  -0.37660  -0.37534
 Alpha  occ. eigenvalues --   -0.37409  -0.37223  -0.36778  -0.36760  -0.36704
 Alpha  occ. eigenvalues --   -0.36632  -0.36528  -0.36318  -0.36212  -0.36127
 Alpha  occ. eigenvalues --   -0.36084  -0.35981  -0.35803  -0.35521  -0.35281
 Alpha  occ. eigenvalues --   -0.35075  -0.35046  -0.34682  -0.34449  -0.34197
 Alpha  occ. eigenvalues --   -0.34079  -0.33744  -0.32717  -0.32290  -0.31953
 Alpha  occ. eigenvalues --   -0.31907  -0.31724  -0.31515  -0.31332  -0.31093
 Alpha  occ. eigenvalues --   -0.30978  -0.30588  -0.29473  -0.29241  -0.29152
 Alpha  occ. eigenvalues --   -0.28691  -0.28477  -0.27872  -0.26876  -0.26602
 Alpha  occ. eigenvalues --   -0.26049  -0.25773  -0.25640  -0.25523  -0.25334
 Alpha  occ. eigenvalues --   -0.25203  -0.25184  -0.24665  -0.21107  -0.20730
 Alpha  occ. eigenvalues --   -0.18859  -0.18759
 Alpha virt. eigenvalues --   -0.11219  -0.11079  -0.05360  -0.05285  -0.04054
 Alpha virt. eigenvalues --   -0.03580  -0.02090  -0.01709  -0.00189   0.00347
 Alpha virt. eigenvalues --    0.00570   0.00821   0.01358   0.01459   0.01704

 Mulliken charges:
               1
     1  Mg  12.002833
     2  C    6.016700
     3  C    5.985252
     4  C    5.985111
     5  C    6.009595
     6  N    7.005065
     7  C    5.967889
     8  C    6.006512
     9  C    5.993433
    10  C    6.027320
    11  C    5.998949
    12  C    6.004785
    13  C    5.998184
    14  H    1.001209
    15  N    6.996273
    16  C    6.034496
    17  C    6.028002
    18  C    6.008290
    19  C    6.031782
    20  C    5.995461
    21  C    6.011943
    22  O    8.020860
    23  C    5.993039
    24  N    6.996235
    25  C    6.040431
    26  C    5.991385
    27  C    6.013402
    28  C    5.964733
    29  C    5.997684
    30  C    6.002736
    31  C    6.000317
    32  N    7.002367
    33  C    5.969871
    34  C    5.969191
    35  C    5.997310
    36  C    5.970734
    37  C    6.000985
    38  C    5.983699
    39  O    7.970102
    40  C    5.997109
    41  C    5.996587
    42  O    7.995171
    43  O    7.998908
    44  C    6.000851
    45  H    1.008246
    46  H    1.008966
    47  H    0.989071
    48  H    1.000861
    49  H    0.999435
    50  H    0.995565
    51  H    1.000253
    52  H    1.011844
    53  H    0.993939
    54  H    1.005555
    55  H    0.993565
    56  H    0.997875
    57  H    1.019629
    58  H    1.021058
    59  H    1.019323
    60  H    1.004797
    61  H    1.013370
    62  H    1.007292
    63  H    0.999106
    64  H    0.998092
    65  H    1.001626
    66  H    0.996780
    67  H    1.011995
    68  H    1.002949
    69  H    0.988800
    70  H    1.004212
    71  H    0.994648
    72  H    0.998149
    73  H    0.982126
    74  H    0.986842
    75  H    0.979785
    76  H    0.992990
    77  H    0.996606
    78  H    0.998258
    79  H    0.993601
    80  Mg  11.999996
    81  C    5.999950
    82  C    6.000015
    83  C    5.999998
    84  C    5.999988
    85  N    6.999984
    86  C    6.000085
    87  C    5.999969
    88  C    6.000067
    89  C    5.999887
    90  C    6.000002
    91  C    5.999999
    92  C    5.999994
    93  H    0.999995
    94  N    7.000050
    95  C    5.999872
    96  C    5.999950
    97  C    5.999957
    98  C    5.999896
    99  C    5.999993
   100  C    5.999931
   101  O    7.999881
   102  C    6.000016
   103  N    6.999971
   104  C    5.999904
   105  C    6.000035
   106  C    5.999972
   107  C    6.000117
   108  C    6.000021
   109  C    5.999982
   110  C    5.999984
   111  N    6.999994
   112  C    6.000135
   113  C    6.000075
   114  C    5.999997
   115  C    6.000103
   116  C    6.000006
   117  C    6.000066
   118  O    8.000133
   119  C    6.000014
   120  C    6.000019
   121  O    8.000017
   122  O    8.000008
   123  C    5.999992
   124  H    0.999970
   125  H    0.999962
   126  H    1.000039
   127  H    0.999975
   128  H    0.999994
   129  H    0.999995
   130  H    0.999939
   131  H    0.999998
   132  H    1.000046
   133  H    0.999986
   134  H    1.000028
   135  H    0.999986
   136  H    0.999930
   137  H    0.999910
   138  H    0.999950
   139  H    0.999983
   140  H    0.999956
   141  H    0.999937
   142  H    1.000011
   143  H    0.999994
   144  H    0.999983
   145  H    0.999947
   146  H    1.000019
   147  H    1.000046
   148  H    0.999988
   149  H    1.000048
   150  H    1.000041
   151  H    0.999969
   152  H    1.000103
   153  H    1.000086
   154  H    1.000067
   155  H    1.000051
   156  H    0.999992
   157  H    1.000014
   158  H    1.000037
 Sum of Mulliken charges = 624.00000

 Dipole moment (field-independent basis, Debye):
    X=             -3.7612    Y=             -3.6478    Z=              8.9510  Tot=             10.3718
 Quadrupole moment (field-independent basis, Debye-Ang):
   XX=           -201.1466   YY=              2.5448   ZZ=              5.8023
   XY=            -94.5444   XZ=            235.6298   YZ=             -8.8387

 Normal termination of Gaussian 16 at Fri Oct 15 04:37:37 2021.
