 Gaussian 16, Revision A.03,
 Gaussian 16:  ES64L-G16RevA.03 25-Dec-2016

 --------------------------------------------------------
 #p PBE1PBE/Def2SVP td=(nstates=5) density=(transition=1)
 --------------------------------------------------------

 --------------------------------
 TDDFT excited states in gaussian
 --------------------------------
 Symbolic Z-matrix:
 Charge =  0 Multiplicity = 1

                         Standard orientation:
 ---------------------------------------------------------------------
 Center     Atomic      Atomic             Coordinates (Angstroms)
 Number     Number       Type             X           Y           Z
 ---------------------------------------------------------------------
      1         12           0       11.002543    0.092162   -0.069410
      2          6           0        7.960058    0.865769    1.345193
      3          6           0       10.374650   -3.206587    0.553730
      4          6           0       13.176325   -0.621639   -2.452239
      5          6           0       11.464230    3.520446   -0.670406
      6          7           0        9.108494   -1.012833    0.437173
      7          6           0        8.109324   -0.491268    1.194563
      8          6           0        7.204759   -1.542785    1.765956
      9          6           0        8.209618   -2.736171    1.861544
     10          6           0        9.343045   -2.273929    0.957792
     11          6           0        8.619151   -3.072692    3.324091
     12          6           0        5.973489   -1.885479    0.785917
     13          6           0        4.595775   -2.243014    1.514318
     14          1           0        4.206386   -3.643236    1.109604
     15          7           0       11.814273   -1.681867   -0.691635
     16          6           0       11.409244   -2.942202   -0.421332
     17          6           0       12.214002   -3.910485   -1.155485
     18          6           0       13.056208   -3.169012   -2.009378
     19          6           0       12.689727   -1.750986   -1.735934
     20          6           0       12.000717   -5.432763   -0.972581
     21          6           0       13.899687   -3.806018   -3.078328
     22          8           0       13.932391   -5.005378   -3.171648
     23          6           0       14.714664   -3.029248   -4.130010
     24          7           0       12.293585    1.271590   -1.329143
     25          6           0       13.043587    0.748890   -2.194069
     26          6           0       13.698459    1.738735   -3.084942
     27          6           0       13.167293    3.112307   -2.514753
     28          6           0       12.264865    2.643188   -1.457731
     29          6           0       15.251460    1.541136   -3.129249
     30          6           0       12.412799    3.974340   -3.629792
     31          6           0       12.230516    5.509902   -3.357505
     32          7           0       10.021281    1.867496    0.310974
     33          6           0       10.388188    3.183837    0.097584
     34          6           0        9.456817    4.077046    0.729001
     35          6           0        8.478076    3.187232    1.295243
     36          6           0        8.812990    1.899619    0.923102
     37          6           0        9.507251    5.570135    0.778900
     38          6           0        7.293650    3.148252    2.081548
     39          8           0        6.566769    3.997614    2.612849
     40          6           0        6.802175    1.666033    1.984067
     41          6           0        6.392380    1.261552    3.360891
     42          8           0        5.236739    1.326696    3.803000
     43          8           0        7.490780    0.865210    4.072749
     44          6           0        7.068679    0.512106    5.457312
     45          1           0       10.343100   -4.264969    0.822136
     46          1           0       13.844588   -0.889391   -3.272650
     47          1           0       11.539182    4.567918   -0.972327
     48          1           0        6.956101   -1.163471    2.756307
     49          1           0        7.722603   -3.640065    1.495259
     50          1           0        8.268499   -4.073519    3.574399
     51          1           0        8.070546   -2.390538    3.974377
     52          1           0        9.694887   -2.920140    3.405598
     53          1           0        6.164223   -2.631275    0.014372
     54          1           0        5.745783   -1.028546    0.152764
     55          1           0        3.875505   -1.557830    1.067039
     56          1           0        4.495346   -2.089460    2.588826
     57          1           0       11.737567   -5.972375   -1.882271
     58          1           0       11.278128   -5.690546   -0.197502
     59          1           0       12.930767   -5.832388   -0.569718
     60          1           0       15.517985   -2.433366   -3.698001
     61          1           0       14.105582   -2.400412   -4.779870
     62          1           0       15.046658   -3.792731   -4.834214
     63          1           0       13.242332    1.539423   -4.054554
     64          1           0       13.866553    3.760182   -1.986720
     65          1           0       15.515404    1.357093   -4.170441
     66          1           0       15.575887    0.719500   -2.490432
     67          1           0       15.822207    2.455258   -2.966498
     68          1           0       11.416498    3.567801   -3.804882
     69          1           0       12.992628    3.830734   -4.540360
     70          1           0       12.652482    6.255237   -4.031130
     71          1           0       12.686987    5.785765   -2.407892
     72          1           0       11.170946    5.756340   -3.288879
     73          1           0       10.421818    6.040961    0.418890
     74          1           0        9.347071    5.712503    1.846866
     75          1           0        8.585005    5.803906    0.246846
     76          1           0        5.982026    1.510417    1.282368
     77          1           0        6.777251    1.418237    5.987484
     78          1           0        7.899149    0.176485    6.078460
     79          1           0        6.285769   -0.242599    5.379792
     80         12           0      -10.722103    0.050314   -0.462993
     81          6           0       -8.071560   -1.358862    1.278620
     82          6           0      -10.137254    3.022230    1.020176
     83          6           0      -13.407738    1.247472   -2.062699
     84          6           0      -11.348842   -3.113361   -1.826933
     85          7           0       -9.205633    0.692600    0.976892
     86          6           0       -8.194900    0.020776    1.474206
     87          6           0       -7.354284    1.024368    2.390524
     88          6           0       -8.483940    1.954408    2.779577
     89          6           0       -9.349419    1.940452    1.479547
     90          6           0       -9.174778    1.449476    4.064683
     91          6           0       -6.071761    1.551591    1.614362
     92          6           0       -4.968309    2.115295    2.514919
     93          1           0       -5.269514    2.343842    3.986050
     94          7           0      -11.526977    1.896936   -0.651975
     95          6           0      -11.073985    3.038370    0.005340
     96          6           0      -11.793699    4.209242   -0.579661
     97          6           0      -12.831297    3.688513   -1.464395
     98          6           0      -12.632154    2.220956   -1.330061
     99          6           0      -11.477004    5.636771   -0.201383
    100          6           0      -13.893405    4.432026   -2.398945
    101          8           0      -14.669188    3.842610   -3.158967
    102          6           0      -13.905735    5.945073   -2.334538
    103          7           0      -12.197825   -0.803930   -1.635326
    104          6           0      -13.208077   -0.123600   -2.170382
    105          6           0      -14.218697   -1.038317   -2.928835
    106          6           0      -13.392751   -2.329219   -3.023289
    107          6           0      -12.196379   -2.079761   -2.159721
    108          6           0      -15.596167   -1.204595   -2.228392
    109          6           0      -13.105358   -2.942035   -4.465750
    110          6           0      -11.740032   -2.744996   -5.037851
    111          7           0      -10.047502   -1.908149   -0.182916
    112          6           0      -10.335312   -3.060259   -0.833854
    113          6           0       -9.568187   -4.165250   -0.380587
    114          6           0       -8.618743   -3.534969    0.483939
    115          6           0       -8.985586   -2.209204    0.525123
    116          6           0       -9.605829   -5.647864   -0.646395
    117          6           0       -7.470008   -3.696393    1.324627
    118          8           0       -6.812302   -4.670459    1.621114
    119          6           0       -6.951392   -2.289856    1.763439
    120          6           0       -6.746314   -2.273002    3.214914
    121          8           0       -7.658037   -2.454978    4.007394
    122          8           0       -5.382941   -2.210776    3.601077
    123          6           0       -5.115617   -2.310192    5.044499
    124          1           0       -9.957374    3.947206    1.569984
    125          1           0      -14.300804    1.659165   -2.535844
    126          1           0      -11.605326   -4.093312   -2.233967
    127          1           0       -6.935667    0.484831    3.239020
    128          1           0       -8.186793    2.995459    2.903640
    129          1           0       -8.913030    2.226144    4.784066
    130          1           0       -8.801475    0.479663    4.396259
    131          1           0      -10.245482    1.521842    3.875029
    132          1           0       -6.353569    2.344112    0.920537
    133          1           0       -5.653017    0.666544    1.134786
    134          1           0       -4.652558    3.056296    2.065504
    135          1           0       -4.119380    1.437110    2.431946
    136          1           0      -10.415837    5.765716    0.014729
    137          1           0      -12.034865    6.065991    0.630248
    138          1           0      -11.659071    6.269365   -1.070034
    139          1           0      -13.988720    6.151477   -1.267743
    140          1           0      -14.768503    6.412953   -2.807804
    141          1           0      -13.010744    6.342373   -2.813615
    142          1           0      -14.439414   -0.648125   -3.922262
    143          1           0      -13.924070   -3.055190   -2.408934
    144          1           0      -15.832027   -2.265167   -2.319218
    145          1           0      -16.418697   -0.598866   -2.605536
    146          1           0      -15.483963   -0.876986   -1.194828
    147          1           0      -13.891155   -2.607450   -5.143105
    148          1           0      -13.164488   -4.028452   -4.404243
    149          1           0      -11.258283   -3.722454   -5.071809
    150          1           0      -11.024988   -2.216308   -4.406328
    151          1           0      -11.727263   -2.359543   -6.057402
    152          1           0      -10.453114   -5.937413   -1.268982
    153          1           0       -9.540939   -6.178942    0.303705
    154          1           0       -8.803858   -6.051692   -1.264722
    155          1           0       -6.008204   -2.037175    1.279756
    156          1           0       -4.090556   -2.087784    5.339928
    157          1           0       -5.362055   -3.348530    5.268022
    158          1           0       -5.861551   -1.673733    5.519074
 ---------------------------------------------------------------------

 SCF Done:  E(RPBE1PBE) =  -4067.37441642     A.U. after   17 cycles

 Excitation energies and oscillator strengths:

 Excited State   1:      Singlet-A      1.7987 eV  689.29 nm  f=0.3309  <S**2>=0.000
     309 -> 315        0.16131
     312 -> 313        0.69465
     312 <- 313       -0.10903
 This state for optimization and/or second-order correction.
 Total Energy, E(TD-HF/TD-DFT) =  -4067.30831475
 Copying the excited state density for this state as the 1-particle RhoCI density.

 Excited State   2:      Singlet-A      1.8721 eV  662.29 nm  f=0.3889  <S**2>=0.000
     310 -> 316        0.17530
     311 -> 314        0.69299
     311 <- 314       -0.10657

 Excited State   3:      Singlet-A      1.8749 eV  661.29 nm  f=0.0000  <S**2>=0.000
     311 -> 313        0.70709

 Excited State   4:      Singlet-A      1.9034 eV  651.38 nm  f=0.0000  <S**2>=0.000
     312 -> 314        0.70709

 Excited State   5:      Singlet-A      2.1987 eV  563.90 nm  f=0.1093  <S**2>=0.000
     309 -> 313        0.65257
     312 -> 315       -0.25014

 The electronic state is 1-A.
 Alpha  occ. eigenvalues --  -46.92579 -46.91028 -19.26305 -19.24418 -19.20359
 Alpha  occ. eigenvalues --  -19.19538 -19.19454 -19.19402 -19.18475 -19.18186
 Alpha  occ. eigenvalues --  -14.41504 -14.41457 -14.41225 -14.40953 -14.39733
 Alpha  occ. eigenvalues --  -14.39491 -14.38444 -14.38280 -10.35844 -10.35731
 Alpha  occ. eigenvalues --  -10.34063 -10.32600 -10.31494 -10.31273 -10.29757
 Alpha  occ. eigenvalues --  -10.29021 -10.29007 -10.28715 -10.28394 -10.28305
 Alpha  occ. eigenvalues --  -10.28249 -10.28184 -10.28161 -10.28108 -10.28096
 Alpha  occ. eigenvalues --  -10.28015 -10.27872 -10.27675 -10.27509 -10.26705
 Alpha  occ. eigenvalues --  -10.26617 -10.26514 -10.26336 -10.26293 -10.26156
 Alpha  occ. eigenvalues --  -10.26144 -10.26097 -10.25924 -10.25884 -10.25819
 Alpha  occ. eigenvalues --  -10.25758 -10.25635 -10.25545 -10.25394 -10.25360
 Alpha  occ. eigenvalues --  -10.25329 -10.25235 -10.25215 -10.25213 -10.25146
 Alpha  occ. eigenvalues --  -10.25098 -10.25088 -10.25056 -10.24922 -10.24630
 Alpha  occ. eigenvalues --  -10.24619 -10.24614 -10.24577 -10.24424 -10.24375
 Alpha  occ. eigenvalues --  -10.24345 -10.24155 -10.23931 -10.23922 -10.23847
 Alpha  occ. eigenvalues --  -10.23752 -10.23743 -10.23614 -10.23592 -10.23307
 Alpha  occ. eigenvalues --  -10.23135 -10.23111 -10.22894 -10.22555 -10.22041
 Alpha  occ. eigenvalues --  -10.21903  -3.14731  -3.13367  -1.87558  -1.87120
 Alpha  occ. eigenvalues --   -1.86946  -1.86222  -1.85706  -1.85640  -1.10824
 Alpha  occ. eigenvalues --   -1.09066  -1.06402  -1.04886  -1.04366  -1.03132
 Alpha  occ. eigenvalues --   -1.01675  -1.01412  -1.01385  -1.00222  -0.99274
 Alpha  occ. eigenvalues --   -0.99064  -0.98650  -0.98530  -0.97691  -0.97569
 Alpha  occ. eigenvalues --   -0.87071  -0.86441  -0.84099  -0.83418  -0.82934
 Alpha  occ. eigenvalues --   -0.82617  -0.82504  -0.82353  -0.81635  -0.81436
 Alpha  occ. eigenvalues --   -0.81200  -0.81137  -0.80791  -0.80607  -0.78503
 Alpha  occ. eigenvalues --   -0.78318  -0.78201  -0.77891  -0.76840  -0.76535
 Alpha  occ. eigenvalues --   -0.76451  -0.75850  -0.75179  -0.75168  -0.74701
 Alpha  occ. eigenvalues --   -0.74278  -0.72827  -0.72604  -0.71954  -0.71473
 Alpha  occ. eigenvalues --   -0.71085  -0.70836  -0.70356  -0.69936  -0.69776
 Alpha  occ. eigenvalues --   -0.69274  -0.67215  -0.67191  -0.66619  -0.65470
 Alpha  occ. eigenvalues --   -0.64907  -0.63638  -0.63568  -0.62994  -0.62574
 Alpha  occ. eigenvalues --   -0.62161  -0.62006  -0.61348  -0.60720  -0.59778
 Alpha  occ. eigenvalues --   -0.59435  -0.59429  -0.59052  -0.59019  -0.58621
 Alpha  occ. eigenvalues --   -0.58216  -0.57078  -0.55712  -0.54928  -0.54917
 Alpha  occ. eigenvalues --   -0.54216  -0.54055  -0.53730  -0.53585  -0.53386
 Alpha  occ. eigenvalues --   -0.52578  -0.52526  -0.52401  -0.51931  -0.51438
 Alpha  occ. eigenvalues --   -0.51291  -0.50783  -0.50296  -0.50251  -0.50080
 Alpha  occ. eigenvalues --   -0.49862  -0.49542  -0.49176  -0.48830  -0.48271
 Alpha  occ. eigenvalues --   -0.48205  -0.48011  -0.47561  -0.47546  -0.47327
 Alpha  occ. eigenvalues --   -0.47148  -0.46996  -0.46792  -0.46776  -0.46472
 Alpha  occ. eigenvalues --   -0.46463  -0.46284  -0.46256  -0.45935  -0.45787
 Alpha  occ. eigenvalues --   -0.45685  -0.45372  -0.45053  -0.44932  -0.44888
 Alpha  occ. eigenvalues --   -0.44793  -0.44745  -0.44496  -0.44204  -0.44126
 Alpha  occ. eigenvalues --   -0.43966  -0.43883  -0.43702  -0.43644  -0.43452
 Alpha  occ. eigenvalues --   -0.43320  -0.43314  -0.43099  -0.42971  -0.42953
 Alpha  occ. eigenvalues --   -0.42430  -0.42364  -0.42167  -0.42015  -0.41839
 Alpha  occ. eigenvalues --   -0.41585  -0.41509  -0.41425  -0.41122  -0.41044
 Alpha  occ. eigenvalues --   -0.41016  -0.40980  -0.40656  -0.40583  -0.40525
 Alpha  occ. eigenvalues --   -0.40375  -0.40327  -0.40054  -0.39773  -0.39502
 Alpha  occ. eigenvalues --   -0.39465  -0.39278  -0.39219  -0.39125  -0.38982
 Alpha  occ. eigenvalues --   -0.38905  -0.38700  -0.38685  -0.38373  -0.38325
 Alpha  occ. eigenvalues --   -0.38192  -0.38031  -0.37912  -0.37741  -0.37645
 Alpha  occ. eigenvalues --   -0.37555  -0.37460  -0.37249  -0.37052  -0.36911
 Alpha  occ. eigenvalues --   -0.36800  -0.36796  -0.36444  -0.36245  -0.36127
 Alpha  occ. eigenvalues --   -0.36120  -0.35762  -0.35756  -0.35614  -0.35376
 Alpha  occ. eigenvalues --   -0.34961  -0.34807  -0.34675  -0.34607  -0.33937
 Alpha  occ. eigenvalues --   -0.33598  -0.33240  -0.32989  -0.32867  -0.32654
 Alpha  occ. eigenvalues --   -0.32402  -0.31912  -0.31818  -0.31502  -0.31471
 Alpha  occ. eigenvalues --   -0.31071  -0.30361  -0.30193  -0.29529  -0.29083
 Alpha  occ. eigenvalues --   -0.28872  -0.28397  -0.28393  -0.26839  -0.26713
 Alpha  occ. eigenvalues --   -0.26476  -0.26280  -0.26101  -0.25849  -0.25353
 Alpha  occ. eigenvalues --   -0.25320  -0.25092  -0.24757  -0.21037  -0.20684
 Alpha  occ. eigenvalues --   -0.18820  -0.18752
 Alpha virt. eigenvalues --   -0.11319  -0.11143  -0.05332  -0.04649  -0.04051
 Alpha virt. eigenvalues --   -0.03995  -0.02271  -0.01875  -0.00809   0.00246
 Alpha virt. eigenvalues --    0.00315   0.01032   0.01190   0.01577   0.02312

 Mulliken charges:
               1
     1  Mg  11.999361
     2  C    5.987247
     3  C    6.007442
     4  C    6.015205
     5  C    5.996703
     6  N    6.991780
     7  C    6.033653
     8  C    5.989645
     9  C    6.013784
    10  C    5.968144
    11  C    6.003022
    12  C    6.001052
    13  C    5.997857
    14  H    1.008848
    15  N    7.004727
    16  C    5.964371
    17  C    5.977714
    18  C    5.986491
    19  C    5.970646
    20  C    6.003792
    21  C    5.990764
    22  O    7.981144
    23  C    6.001627
    24  N    6.999431
    25  C    5.970989
    26  C    6.008346
    27  C    5.989896
    28  C    6.034019
    29  C    6.002657
    30  C    5.993670
    31  C    5.998640
    32  N    7.000436
    33  C    6.026822
    34  C    6.031532
    35  C    5.999859
    36  C    6.024433
    37  C    6.000856
    38  C    6.015876
    39  O    8.028895
    40  C    5.998661
    41  C    6.003810
    42  O    8.007071
    43  O    7.999002
    44  C    5.999197
    45  H    0.989711
    46  H    0.993783
    47  H    1.008327
    48  H    0.997159
    49  H    0.994809
    50  H    0.996566
    51  H    0.984993
    52  H    1.000391
    53  H    1.010624
    54  H    0.995061
    55  H    0.997935
    56  H    0.999537
    57  H    0.982723
    58  H    0.982817
    59  H    0.983077
    60  H    0.989432
    61  H    0.988999
    62  H    0.989242
    63  H    1.001927
    64  H    1.001632
    65  H    0.999992
    66  H    1.005806
    67  H    0.991212
    68  H    1.002804
    69  H    1.011847
    70  H    1.005721
    71  H    0.998496
    72  H    0.996494
    73  H    1.017215
    74  H    1.015047
    75  H    1.017068
    76  H    1.008346
    77  H    0.999968
    78  H    1.006268
    79  H    1.005851
    80  Mg  12.000044
    81  C    5.999505
    82  C    5.999727
    83  C    6.000757
    84  C    6.000344
    85  N    6.999621
    86  C    6.000489
    87  C    6.000062
    88  C    6.000030
    89  C    5.999515
    90  C    6.000017
    91  C    5.999861
    92  C    6.000199
    93  H    0.999953
    94  N    7.000035
    95  C    5.999336
    96  C    5.999434
    97  C    5.999762
    98  C    5.999403
    99  C    6.000200
   100  C    5.999748
   101  O    7.999594
   102  C    6.000072
   103  N    7.000294
   104  C    5.999347
   105  C    6.000144
   106  C    5.999758
   107  C    6.000471
   108  C    5.999952
   109  C    5.999936
   110  C    5.999844
   111  N    7.000093
   112  C    6.000462
   113  C    6.000768
   114  C    6.000069
   115  C    6.000498
   116  C    5.999872
   117  C    6.000433
   118  O    8.000844
   119  C    5.999920
   120  C    6.000094
   121  O    8.000261
   122  O    7.999831
   123  C    5.999959
   124  H    0.999455
   125  H    1.000128
   126  H    1.000595
   127  H    0.999813
   128  H    0.999611
   129  H    0.999686
   130  H    0.999800
   131  H    1.000264
   132  H    1.000135
   133  H    0.999932
   134  H    0.999316
   135  H    0.999402
   136  H    0.999341
   137  H    0.999575
   138  H    0.999637
   139  H    0.999925
   140  H    0.999863
   141  H    0.999734
   142  H    1.000164
   143  H    1.000205
   144  H    1.000031
   145  H    1.000195
   146  H    1.000039
   147  H    1.000361
   148  H    1.000218
   149  H    1.000188
   150  H    0.999789
   151  H    1.000332
   152  H    1.000525
   153  H    1.000545
   154  H    1.000771
   155  H    0.999843
   156  H    0.999564
   157  H    1.000420
   158  H    1.000041
 Sum of Mulliken charges = 624.00000

 Dipole moment (field-independent basis, Debye):
    X=             -4.2425    Y=              8.4933    Z=              2.6227  Tot=              9.8495
 Quadrupole moment (field-independent basis, Debye-Ang):
   XX=            -88.2811   YY=              1.1720   ZZ=             -1.2189
   XY=             98.4237   XZ=             29.7632   YZ=             -2.5035

 Normal termination of Gaussian 16 at Fri Oct 15 09:22:41 2021.
