 Gaussian 16, Revision A.03,
 Gaussian 16:  ES64L-G16RevA.03 25-Dec-2016

 --------------------------------------------------------
 #p PBE1PBE/Def2SVP td=(nstates=5) density=(transition=1)
 --------------------------------------------------------

 --------------------------------
 TDDFT excited states in gaussian
 --------------------------------
 Symbolic Z-matrix:
 Charge =  0 Multiplicity = 1

                         Standard orientation:
 ---------------------------------------------------------------------
 Center     Atomic      Atomic             Coordinates (Angstroms)
 Number     Number       Type             X           Y           Z
 ---------------------------------------------------------------------
      1         12           0      -11.199715    0.288225   -0.369277
      2          6           0       -9.258577   -2.503596   -0.535751
      3          6           0      -13.789927   -1.747034    0.715974
      4          6           0      -12.987014    3.081276    0.157053
      5          6           0       -8.356062    2.312197   -0.819766
      6          7           0      -11.397408   -1.861043    0.289161
      7          6           0      -10.442753   -2.785920    0.064188
      8          6           0      -10.820332   -4.129287    0.572298
      9          6           0      -12.460498   -3.929964    0.623530
     10          6           0      -12.596773   -2.395160    0.537905
     11          6           0      -13.201053   -4.721872   -0.494260
     12          6           0      -10.217517   -4.344585    1.951436
     13          6           0      -10.516105   -3.283235    3.109070
     14          1           0      -10.777527   -3.750988    4.535346
     15          7           0      -13.107532    0.631024    0.333730
     16          6           0      -14.089686   -0.354594    0.606139
     17          6           0      -15.326846    0.328465    0.787840
     18          6           0      -15.147222    1.702718    0.690320
     19          6           0      -13.729517    1.897605    0.342887
     20          6           0      -16.564171   -0.501611    1.063139
     21          6           0      -16.164726    2.785763    0.958511
     22          8           0      -17.307052    2.386648    1.296171
     23          6           0      -15.897049    4.180776    1.064925
     24          7           0      -10.663002    2.394496   -0.126763
     25          6           0      -11.621613    3.353148    0.022755
     26          6           0      -11.000014    4.770188    0.040493
     27          6           0       -9.493984    4.483661   -0.278510
     28          6           0       -9.473085    2.965812   -0.342523
     29          6           0      -11.665633    5.734108   -0.918342
     30          6           0       -8.524025    5.109986    0.859221
     31          6           0       -7.263127    5.782542    0.304436
     32          7           0       -9.133509    0.036808   -0.646932
     33          6           0       -8.146476    0.895065   -1.012722
     34          6           0       -7.034349    0.093164   -1.445159
     35          6           0       -7.389453   -1.295733   -1.333996
     36          6           0       -8.673319   -1.258357   -0.815593
     37          6           0       -5.654490    0.598435   -1.694080
     38          6           0       -6.989331   -2.662907   -1.427706
     39          8           0       -5.890193   -3.043624   -1.849973
     40          6           0       -8.180322   -3.476645   -0.956284
     41          6           0       -8.595888   -4.384208   -2.053294
     42          8           0       -7.788498   -5.167927   -2.512507
     43          8           0       -9.912804   -4.302999   -2.389022
     44          6           0      -10.340225   -5.210915   -3.455285
     45          1           0      -14.662574   -2.399671    0.785067
     46          1           0      -13.633175    3.959434    0.098503
     47          1           0       -7.472418    2.865964   -1.144744
     48          1           0      -10.527978   -5.001866   -0.011942
     49          1           0      -12.882085   -4.406561    1.509485
     50          1           0      -13.914968   -5.414039   -0.049291
     51          1           0      -12.446219   -5.312469   -1.014094
     52          1           0      -13.703346   -4.100520   -1.236831
     53          1           0       -9.148482   -4.504093    1.809146
     54          1           0      -10.528780   -5.364263    2.177999
     55          1           0      -11.375092   -2.632624    2.944381
     56          1           0       -9.574570   -2.736349    3.150051
     57          1           0      -16.560993   -0.675687    2.139308
     58          1           0      -16.460915   -1.464249    0.563932
     59          1           0      -17.516879   -0.067982    0.757662
     60          1           0      -16.587372    4.674849    1.749354
     61          1           0      -15.802069    4.682248    0.100940
     62          1           0      -14.954939    4.238376    1.608407
     63          1           0      -11.125700    5.079550    1.078674
     64          1           0       -9.267232    4.824289   -1.288603
     65          1           0      -12.551643    5.331516   -1.408541
     66          1           0      -11.088207    6.280013   -1.663956
     67          1           0      -12.134481    6.449154   -0.241699
     68          1           0       -8.176047    4.382065    1.592197
     69          1           0       -9.048111    5.821028    1.497607
     70          1           0       -7.381421    6.860374    0.412357
     71          1           0       -7.223609    5.596918   -0.769127
     72          1           0       -6.352059    5.462716    0.810409
     73          1           0       -5.497724    1.224144   -2.571897
     74          1           0       -5.031226   -0.294888   -1.749195
     75          1           0       -5.292050    1.221656   -0.876492
     76          1           0       -7.825507   -4.070727   -0.113594
     77          1           0      -10.109094   -6.228085   -3.137688
     78          1           0       -9.912859   -4.969096   -4.428547
     79          1           0      -11.395467   -5.063713   -3.684806
     80         12           0       10.607224    0.710279   -0.187384
     81          6           0       11.897654   -2.441524    0.413023
     82          6           0        7.600214   -0.308205    1.397987
     83          6           0        9.469923    3.942581   -0.217941
     84          6           0       13.684579    1.826151   -1.289076
     85          7           0        9.839425   -1.210323    0.660024
     86          6           0       10.602211   -2.337109    0.884246
     87          6           0        9.891875   -3.421683    1.777981
     88          6           0        8.381032   -2.892252    1.743046
     89          6           0        8.542247   -1.367204    1.194480
     90          6           0        7.300274   -3.698330    0.926590
     91          6           0       10.416520   -3.544789    3.165245
     92          6           0       11.020324   -4.847338    3.654092
     93          1           0       10.901754   -5.121773    5.161866
     94          7           0        8.730570    1.671214    0.417486
     95          6           0        7.630797    1.011920    0.998188
     96          6           0        6.551181    1.932927    1.160722
     97          6           0        7.141476    3.256484    0.829861
     98          6           0        8.528684    3.022473    0.321856
     99          6           0        5.215476    1.583303    1.825087
    100          6           0        6.335782    4.556248    1.000008
    101          8           0        5.191032    4.670697    1.428462
    102          6           0        7.096558    5.833618    0.946603
    103          7           0       11.542539    2.734012   -0.533095
    104          6           0       10.784571    3.832848   -0.650077
    105          6           0       11.747208    5.014185   -0.761955
    106          6           0       13.148479    4.384123   -1.207907
    107          6           0       12.792542    2.840494   -1.033500
    108          6           0       11.255474    5.989852   -1.889182
    109          6           0       14.472415    4.779522   -0.433703
    110          6           0       15.575557    5.557571   -1.135366
    111          7           0       12.457864   -0.151937   -0.486414
    112          6           0       13.635722    0.415728   -0.982281
    113          6           0       14.688726   -0.553088   -0.964967
    114          6           0       14.078848   -1.723421   -0.416391
    115          6           0       12.685095   -1.391592   -0.197301
    116          6           0       16.113866   -0.389373   -1.390292
    117          6           0       14.243778   -3.075339   -0.072416
    118          8           0       15.249098   -3.751723   -0.158662
    119          6           0       12.883776   -3.578086    0.549794
    120          6           0       12.564211   -4.894715   -0.023814
    121          8           0       12.700770   -5.947130    0.589702
    122          8           0       12.126298   -4.752693   -1.332080
    123          6           0       11.828616   -6.046547   -1.986560
    124          1           0        6.617863   -0.516428    1.826029
    125          1           0        8.997787    4.926109   -0.272904
    126          1           0       14.659064    2.208349   -1.599733
    127          1           0        9.948432   -4.390794    1.283493
    128          1           0        8.070185   -2.781545    2.782521
    129          1           0        7.739559   -4.666225    0.685325
    130          1           0        6.956319   -3.204919    0.017459
    131          1           0        6.423027   -3.787538    1.566268
    132          1           0        9.564775   -3.388884    3.829019
    133          1           0       11.202855   -2.809279    3.331532
    134          1           0       12.094101   -4.800840    3.474950
    135          1           0       10.574666   -5.729290    3.194600
    136          1           0        5.039292    0.601084    2.263044
    137          1           0        4.502555    1.834195    1.040046
    138          1           0        5.057659    2.414390    2.511723
    139          1           0        7.230927    6.341972   -0.007222
    140          1           0        8.050875    5.767315    1.469301
    141          1           0        6.501008    6.557613    1.503951
    142          1           0       11.852486    5.564991    0.173005
    143          1           0       13.287442    4.501113   -2.282095
    144          1           0       11.252405    6.990666   -1.457391
    145          1           0       10.275889    5.763872   -2.312315
    146          1           0       11.901273    5.992237   -2.767571
    147          1           0       14.863528    3.824342   -0.084022
    148          1           0       14.140990    5.434140    0.373551
    149          1           0       16.483185    5.323032   -0.578645
    150          1           0       15.383570    6.624354   -1.018324
    151          1           0       15.808392    5.352889   -2.179818
    152          1           0       16.586629   -1.357903   -1.225275
    153          1           0       16.535050    0.423013   -0.798839
    154          1           0       16.259941   -0.147695   -2.443230
    155          1           0       13.127578   -3.732841    1.601389
    156          1           0       12.720781   -6.429696   -2.481763
    157          1           0       10.970719   -5.861722   -2.633016
    158          1           0       11.471148   -6.788840   -1.273461
 ---------------------------------------------------------------------

 SCF Done:  E(RPBE1PBE) =  -4067.36209661     A.U. after   16 cycles

 Excitation energies and oscillator strengths:

 Excited State   1:      Singlet-A      1.7871 eV  693.78 nm  f=0.0000  <S**2>=0.000
     312 -> 313        0.70707
 This state for optimization and/or second-order correction.
 Total Energy, E(TD-HF/TD-DFT) =  -4067.29642301
 Copying the excited state density for this state as the 1-particle RhoCI density.

 Excited State   2:      Singlet-A      1.8575 eV  667.47 nm  f=0.4828  <S**2>=0.000
     309 -> 315        0.16766
     311 -> 313        0.68411
     312 -> 314       -0.10420
     311 <- 313       -0.10538

 Excited State   3:      Singlet-A      1.8913 eV  655.55 nm  f=0.2772  <S**2>=0.000
     310 -> 316       -0.16806
     311 -> 313        0.10345
     312 -> 314        0.68410
     312 <- 314       -0.10710

 Excited State   4:      Singlet-A      2.0383 eV  608.27 nm  f=0.0000  <S**2>=0.000
     311 -> 314        0.70707

 Excited State   5:      Singlet-A      2.1842 eV  567.65 nm  f=0.1393  <S**2>=0.000
     309 -> 313        0.65820
     311 -> 315       -0.23309

 The electronic state is 1-A.
 Alpha  occ. eigenvalues --  -46.93767 -46.92475 -19.27075 -19.25714 -19.20037
 Alpha  occ. eigenvalues --  -19.19779 -19.19088 -19.18700 -19.18698 -19.18251
 Alpha  occ. eigenvalues --  -14.42856 -14.41571 -14.41486 -14.41458 -14.39539
 Alpha  occ. eigenvalues --  -14.39536 -14.39387 -14.38385 -10.36537 -10.36096
 Alpha  occ. eigenvalues --  -10.32172 -10.31822 -10.31744 -10.31443 -10.30575
 Alpha  occ. eigenvalues --  -10.29997 -10.29444 -10.29421 -10.29238 -10.29161
 Alpha  occ. eigenvalues --  -10.28743 -10.28683 -10.28682 -10.28655 -10.28323
 Alpha  occ. eigenvalues --  -10.28114 -10.28031 -10.27874 -10.27713 -10.27142
 Alpha  occ. eigenvalues --  -10.27137 -10.27060 -10.26912 -10.26591 -10.26421
 Alpha  occ. eigenvalues --  -10.26395 -10.26262 -10.26244 -10.26207 -10.26198
 Alpha  occ. eigenvalues --  -10.26183 -10.26155 -10.26146 -10.26074 -10.26007
 Alpha  occ. eigenvalues --  -10.25887 -10.25697 -10.25693 -10.25667 -10.25574
 Alpha  occ. eigenvalues --  -10.25521 -10.25047 -10.25031 -10.24983 -10.24917
 Alpha  occ. eigenvalues --  -10.24910 -10.24887 -10.24872 -10.24680 -10.24648
 Alpha  occ. eigenvalues --  -10.24484 -10.24216 -10.24014 -10.23976 -10.23796
 Alpha  occ. eigenvalues --  -10.23723 -10.23659 -10.23612 -10.23606 -10.23338
 Alpha  occ. eigenvalues --  -10.23030 -10.22866 -10.22860 -10.22576 -10.22560
 Alpha  occ. eigenvalues --  -10.22469  -3.15569  -3.14510  -1.88436  -1.87917
 Alpha  occ. eigenvalues --   -1.87792  -1.87325  -1.86903  -1.86715  -1.12231
 Alpha  occ. eigenvalues --   -1.10236  -1.04665  -1.04561  -1.03916  -1.02957
 Alpha  occ. eigenvalues --   -1.02906  -1.02268  -0.99580  -0.99566  -0.99142
 Alpha  occ. eigenvalues --   -0.98681  -0.97555  -0.96956  -0.96162  -0.95981
 Alpha  occ. eigenvalues --   -0.88550  -0.86948  -0.83682  -0.83533  -0.83522
 Alpha  occ. eigenvalues --   -0.83307  -0.83045  -0.82419  -0.82091  -0.81924
 Alpha  occ. eigenvalues --   -0.81622  -0.80521  -0.80180  -0.79852  -0.79398
 Alpha  occ. eigenvalues --   -0.78619  -0.78442  -0.78141  -0.77506  -0.77055
 Alpha  occ. eigenvalues --   -0.77049  -0.76291  -0.75799  -0.75269  -0.75173
 Alpha  occ. eigenvalues --   -0.75022  -0.72983  -0.72251  -0.72173  -0.71381
 Alpha  occ. eigenvalues --   -0.71378  -0.71082  -0.70446  -0.70409  -0.69776
 Alpha  occ. eigenvalues --   -0.69284  -0.67931  -0.67006  -0.66639  -0.66553
 Alpha  occ. eigenvalues --   -0.64432  -0.63704  -0.63628  -0.63463  -0.63215
 Alpha  occ. eigenvalues --   -0.62317  -0.61539  -0.61436  -0.60963  -0.59997
 Alpha  occ. eigenvalues --   -0.59827  -0.59797  -0.59765  -0.59672  -0.59219
 Alpha  occ. eigenvalues --   -0.58916  -0.58414  -0.57496  -0.54787  -0.54727
 Alpha  occ. eigenvalues --   -0.54296  -0.54238  -0.53926  -0.53841  -0.53587
 Alpha  occ. eigenvalues --   -0.53243  -0.53010  -0.52678  -0.52368  -0.51406
 Alpha  occ. eigenvalues --   -0.51302  -0.51135  -0.51055  -0.50425  -0.50420
 Alpha  occ. eigenvalues --   -0.49921  -0.49722  -0.49253  -0.49156  -0.48878
 Alpha  occ. eigenvalues --   -0.48439  -0.48425  -0.48197  -0.47794  -0.47716
 Alpha  occ. eigenvalues --   -0.47698  -0.47322  -0.47237  -0.46967  -0.46915
 Alpha  occ. eigenvalues --   -0.46602  -0.46492  -0.46406  -0.46057  -0.46020
 Alpha  occ. eigenvalues --   -0.45873  -0.45786  -0.45599  -0.45520  -0.44896
 Alpha  occ. eigenvalues --   -0.44754  -0.44688  -0.44217  -0.44204  -0.44093
 Alpha  occ. eigenvalues --   -0.44052  -0.43795  -0.43552  -0.43462  -0.43373
 Alpha  occ. eigenvalues --   -0.43356  -0.43277  -0.43204  -0.42862  -0.42773
 Alpha  occ. eigenvalues --   -0.42569  -0.42262  -0.42260  -0.41841  -0.41761
 Alpha  occ. eigenvalues --   -0.41685  -0.41487  -0.41364  -0.41238  -0.41123
 Alpha  occ. eigenvalues --   -0.41013  -0.40749  -0.40705  -0.40665  -0.40523
 Alpha  occ. eigenvalues --   -0.40434  -0.40427  -0.40261  -0.40077  -0.39990
 Alpha  occ. eigenvalues --   -0.39875  -0.39580  -0.39480  -0.39442  -0.39353
 Alpha  occ. eigenvalues --   -0.39312  -0.39220  -0.38942  -0.38590  -0.38411
 Alpha  occ. eigenvalues --   -0.38397  -0.38340  -0.37688  -0.37681  -0.37467
 Alpha  occ. eigenvalues --   -0.37390  -0.37217  -0.37139  -0.37094  -0.36930
 Alpha  occ. eigenvalues --   -0.36769  -0.36642  -0.36354  -0.36294  -0.36098
 Alpha  occ. eigenvalues --   -0.36033  -0.35968  -0.35811  -0.35259  -0.35217
 Alpha  occ. eigenvalues --   -0.34882  -0.34558  -0.34491  -0.34300  -0.34103
 Alpha  occ. eigenvalues --   -0.33670  -0.33305  -0.32807  -0.32782  -0.32698
 Alpha  occ. eigenvalues --   -0.32472  -0.32362  -0.32111  -0.31964  -0.31677
 Alpha  occ. eigenvalues --   -0.31034  -0.30835  -0.29781  -0.29691  -0.29261
 Alpha  occ. eigenvalues --   -0.29189  -0.28678  -0.28569  -0.27376  -0.27345
 Alpha  occ. eigenvalues --   -0.26018  -0.25747  -0.25590  -0.25469  -0.25449
 Alpha  occ. eigenvalues --   -0.25360  -0.24940  -0.24813  -0.21488  -0.21203
 Alpha  occ. eigenvalues --   -0.19675  -0.19258
 Alpha virt. eigenvalues --   -0.12055  -0.11575  -0.05778  -0.05407  -0.04052
 Alpha virt. eigenvalues --   -0.04048  -0.02361  -0.02146  -0.01385  -0.00298
 Alpha virt. eigenvalues --    0.00465   0.00503   0.00716   0.01310   0.01862

 Mulliken charges:
               1
     1  Mg  12.000000
     2  C    6.000000
     3  C    6.000000
     4  C    6.000000
     5  C    6.000000
     6  N    7.000000
     7  C    6.000000
     8  C    6.000000
     9  C    6.000000
    10  C    6.000000
    11  C    6.000000
    12  C    6.000000
    13  C    6.000000
    14  H    1.000000
    15  N    7.000000
    16  C    6.000000
    17  C    6.000000
    18  C    6.000000
    19  C    6.000000
    20  C    6.000000
    21  C    6.000000
    22  O    8.000000
    23  C    6.000000
    24  N    7.000000
    25  C    6.000000
    26  C    6.000000
    27  C    6.000000
    28  C    6.000000
    29  C    6.000000
    30  C    6.000000
    31  C    6.000000
    32  N    7.000000
    33  C    6.000000
    34  C    6.000000
    35  C    6.000000
    36  C    6.000000
    37  C    6.000000
    38  C    6.000000
    39  O    8.000000
    40  C    6.000000
    41  C    6.000000
    42  O    8.000000
    43  O    8.000000
    44  C    6.000000
    45  H    1.000000
    46  H    1.000000
    47  H    1.000000
    48  H    1.000000
    49  H    1.000000
    50  H    1.000000
    51  H    1.000000
    52  H    1.000000
    53  H    1.000000
    54  H    1.000000
    55  H    1.000000
    56  H    1.000000
    57  H    1.000000
    58  H    1.000000
    59  H    1.000000
    60  H    1.000000
    61  H    1.000000
    62  H    1.000000
    63  H    1.000000
    64  H    1.000000
    65  H    1.000000
    66  H    1.000000
    67  H    1.000000
    68  H    1.000000
    69  H    1.000000
    70  H    1.000000
    71  H    1.000000
    72  H    1.000000
    73  H    1.000000
    74  H    1.000000
    75  H    1.000000
    76  H    1.000000
    77  H    1.000000
    78  H    1.000000
    79  H    1.000000
    80  Mg  12.000000
    81  C    6.000000
    82  C    6.000000
    83  C    6.000000
    84  C    6.000000
    85  N    7.000000
    86  C    6.000000
    87  C    6.000000
    88  C    6.000000
    89  C    6.000000
    90  C    6.000000
    91  C    6.000000
    92  C    6.000000
    93  H    1.000000
    94  N    7.000000
    95  C    6.000000
    96  C    6.000000
    97  C    6.000000
    98  C    6.000000
    99  C    6.000000
   100  C    6.000000
   101  O    8.000000
   102  C    6.000000
   103  N    7.000000
   104  C    6.000000
   105  C    6.000000
   106  C    6.000000
   107  C    6.000000
   108  C    6.000000
   109  C    6.000000
   110  C    6.000000
   111  N    7.000000
   112  C    6.000000
   113  C    6.000000
   114  C    6.000000
   115  C    6.000000
   116  C    6.000000
   117  C    6.000000
   118  O    8.000000
   119  C    6.000000
   120  C    6.000000
   121  O    8.000000
   122  O    8.000000
   123  C    6.000000
   124  H    1.000000
   125  H    1.000000
   126  H    1.000000
   127  H    1.000000
   128  H    1.000000
   129  H    1.000000
   130  H    1.000000
   131  H    1.000000
   132  H    1.000000
   133  H    1.000000
   134  H    1.000000
   135  H    1.000000
   136  H    1.000000
   137  H    1.000000
   138  H    1.000000
   139  H    1.000000
   140  H    1.000000
   141  H    1.000000
   142  H    1.000000
   143  H    1.000000
   144  H    1.000000
   145  H    1.000000
   146  H    1.000000
   147  H    1.000000
   148  H    1.000000
   149  H    1.000000
   150  H    1.000000
   151  H    1.000000
   152  H    1.000000
   153  H    1.000000
   154  H    1.000000
   155  H    1.000000
   156  H    1.000000
   157  H    1.000000
   158  H    1.000000
 Sum of Mulliken charges = 624.00000

 Dipole moment (field-independent basis, Debye):
    X=              0.0000    Y=             -0.0000    Z=             -0.0000  Tot=              0.0000
 Quadrupole moment (field-independent basis, Debye-Ang):
   XX=             -0.0000   YY=             -0.0000   ZZ=              0.0000
   XY=              0.0000   XZ=              0.0000   YZ=             -0.0000

 Normal termination of Gaussian 16 at Fri Oct 15 00:21:05 2021.
