 Gaussian 16, Revision A.03,
 Gaussian 16:  ES64L-G16RevA.03 25-Dec-2016

 --------------------------------------------------------
 #p PBE1PBE/Def2SVP td=(nstates=5) density=(transition=1)
 --------------------------------------------------------

 --------------------------------
 TDDFT excited states in gaussian
 --------------------------------
 Symbolic Z-matrix:
 Charge =  0 Multiplicity = 1

                         Standard orientation:
 ---------------------------------------------------------------------
 Center     Atomic      Atomic             Coordinates (Angstroms)
 Number     Number       Type             X           Y           Z
 ---------------------------------------------------------------------
      1         12           0       -9.287647   -0.060410   -0.411615
      2          6           0       -7.561713    0.774902    2.444479
      3          6           0       -9.359913    3.202190   -1.449701
      4          6           0      -10.871327   -0.964097   -3.402721
      5          6           0       -8.543299   -3.395358    0.088665
      6          7           0       -8.321329    1.715419    0.371932
      7          6           0       -7.802980    1.914779    1.654375
      8          6           0       -7.361536    3.365980    1.860324
      9          6           0       -8.124846    4.031676    0.687199
     10          6           0       -8.583827    2.917327   -0.275448
     11          6           0       -9.232186    5.000409    1.156709
     12          6           0       -5.830360    3.527013    1.783319
     13          6           0       -5.165250    4.478627    2.836789
     14          1           0       -3.946458    5.190533    2.395585
     15          7           0      -10.038998    0.972096   -2.106343
     16          6           0      -10.056203    2.309916   -2.305749
     17          6           0      -10.882690    2.700013   -3.408542
     18          6           0      -11.450845    1.521807   -3.920249
     19          6           0      -10.803257    0.408560   -3.110164
     20          6           0      -11.186864    4.150072   -3.790424
     21          6           0      -12.466621    1.398787   -5.113277
     22          8           0      -12.765446    2.439366   -5.753278
     23          6           0      -13.205713    0.048321   -5.507757
     24          7           0       -9.394503   -1.896692   -1.653967
     25          6           0      -10.211241   -2.015653   -2.728907
     26          6           0      -10.416935   -3.446609   -3.155054
     27          6           0       -9.642726   -4.245585   -2.084532
     28          6           0       -9.192564   -3.136653   -1.130064
     29          6           0      -11.913090   -3.863433   -3.345370
     30          6           0       -8.496502   -5.182152   -2.699089
     31          6           0       -8.834258   -6.677433   -2.718760
     32          7           0       -8.318896   -1.139285    0.990612
     33          6           0       -8.093696   -2.527323    1.121754
     34          6           0       -7.559736   -2.806580    2.461323
     35          6           0       -7.418226   -1.541474    3.014337
     36          6           0       -7.772949   -0.600037    2.034157
     37          6           0       -7.207623   -4.100844    3.102835
     38          6           0       -6.967545   -0.828905    4.218339
     39          8           0       -6.717411   -1.224658    5.368757
     40          6           0       -7.084564    0.718227    3.913079
     41          6           0       -8.059058    1.399572    4.864413
     42          8           0       -9.179289    1.006963    5.205477
     43          8           0       -7.370094    2.494922    5.293392
     44          6           0       -7.980132    3.267426    6.362611
     45          1           0       -9.394821    4.239570   -1.788664
     46          1           0      -11.417181   -1.373788   -4.255224
     47          1           0       -8.285592   -4.432394    0.312841
     48          1           0       -7.680108    3.708103    2.845550
     49          1           0       -7.355758    4.629162    0.197789
     50          1           0       -9.190296    5.416937    2.163091
     51          1           0      -10.151688    4.415312    1.149584
     52          1           0       -9.331216    5.863118    0.498317
     53          1           0       -5.482882    3.800166    0.787323
     54          1           0       -5.440103    2.510769    1.843567
     55          1           0       -4.919036    3.901461    3.728016
     56          1           0       -5.874480    5.270837    3.080615
     57          1           0      -12.272627    4.237976   -3.759108
     58          1           0      -10.638188    4.414740   -4.694390
     59          1           0      -10.812627    4.733855   -2.949493
     60          1           0      -12.519744   -0.489817   -6.160888
     61          1           0      -14.095045    0.342432   -6.064662
     62          1           0      -13.571405   -0.381814   -4.574973
     63          1           0       -9.941223   -3.577750   -4.127045
     64          1           0      -10.242209   -4.839066   -1.394636
     65          1           0      -12.124006   -4.825102   -2.878409
     66          1           0      -12.197953   -3.936482   -4.394792
     67          1           0      -12.553696   -3.070104   -2.962421
     68          1           0       -7.570797   -5.138429   -2.125423
     69          1           0       -8.215013   -4.825556   -3.689838
     70          1           0       -8.463773   -7.125200   -3.641071
     71          1           0       -9.914568   -6.810932   -2.666372
     72          1           0       -8.413689   -7.236983   -1.883423
     73          1           0       -7.519790   -4.895430    2.425100
     74          1           0       -7.534383   -4.101550    4.142894
     75          1           0       -6.118857   -4.157821    3.078487
     76          1           0       -6.117682    1.221467    3.939476
     77          1           0       -9.046960    3.447934    6.224732
     78          1           0       -7.531891    4.233508    6.594622
     79          1           0       -7.870707    2.734899    7.307703
     80         12           0        9.486877    0.215585   -0.201527
     81          6           0        7.398836   -2.057970    1.218520
     82          6           0        7.502871    2.902178    0.663930
     83          6           0       11.636434    2.292921   -1.871091
     84          6           0       11.415627   -2.535852   -1.543317
     85          7           0        7.572876    0.356501    0.635130
     86          6           0        6.984078   -0.704842    1.401129
     87          6           0        5.919592   -0.190172    2.285280
     88          6           0        5.754995    1.299991    1.742576
     89          6           0        7.009884    1.585421    0.947985
     90          6           0        4.443376    1.501009    0.830744
     91          6           0        6.173849   -0.406745    3.808771
     92          6           0        4.999683   -0.907545    4.586591
     93          1           0        3.597044   -0.292347    4.200558
     94          7           0        9.596734    2.321665   -0.492949
     95          6           0        8.650583    3.197208   -0.049567
     96          6           0        9.071995    4.505154   -0.418247
     97          6           0       10.346851    4.400665   -1.100189
     98          6           0       10.655901    2.931943   -1.134903
     99          6           0        8.191851    5.751099   -0.177450
    100          6           0       11.294922    5.415175   -1.659007
    101          8           0       12.320175    5.225270   -2.322975
    102          6           0       10.956269    6.912845   -1.305842
    103          7           0       11.260668   -0.075520   -1.644190
    104          6           0       11.986535    0.925959   -2.075079
    105          6           0       13.307086    0.466548   -2.689673
    106          6           0       13.216756   -1.082010   -2.574764
    107          6           0       11.864165   -1.262871   -1.888618
    108          6           0       13.521487    0.963606   -4.208831
    109          6           0       14.429434   -1.600699   -1.682803
    110          6           0       14.515805   -1.257799   -0.174999
    111          7           0        9.347366   -1.881688   -0.316345
    112          6           0       10.218565   -2.820721   -0.835426
    113          6           0        9.723797   -4.138641   -0.388124
    114          6           0        8.644330   -3.956846    0.423199
    115          6           0        8.454997   -2.527240    0.428949
    116          6           0       10.240869   -5.440507   -0.895633
    117          6           0        7.617590   -4.589896    1.250579
    118          8           0        7.393350   -5.763578    1.494752
    119          6           0        6.772728   -3.350100    1.782058
    120          6           0        5.403716   -3.495531    1.246971
    121          8           0        5.053801   -3.606725    0.059046
    122          8           0        4.602619   -3.490364    2.370835
    123          6           0        3.162023   -3.437831    2.089462
    124          1           0        6.930888    3.782418    0.964216
    125          1           0       12.342117    3.019702   -2.280440
    126          1           0       12.028996   -3.375979   -1.873721
    127          1           0        5.044913   -0.789482    2.029399
    128          1           0        5.716913    1.966356    2.603787
    129          1           0        3.725517    0.684800    0.911874
    130          1           0        4.782470    1.426101   -0.202362
    131          1           0        4.105332    2.502277    1.094500
    132          1           0        6.482969    0.533108    4.266267
    133          1           0        6.964278   -1.157149    3.812861
    134          1           0        5.057778   -0.668307    5.647696
    135          1           0        4.779117   -1.972144    4.665765
    136          1           0        8.164974    6.122883    0.846766
    137          1           0        7.223019    5.425274   -0.555639
    138          1           0        8.566157    6.640581   -0.683769
    139          1           0       10.092937    7.227117   -1.892403
    140          1           0       11.880432    7.487772   -1.361937
    141          1           0       10.730513    7.072511   -0.251298
    142          1           0       14.122681    0.825248   -2.062239
    143          1           0       13.270548   -1.595269   -3.534897
    144          1           0       14.270552    1.754709   -4.159389
    145          1           0       12.593827    1.380786   -4.601966
    146          1           0       13.907932    0.270179   -4.954682
    147          1           0       15.420568   -1.377827   -2.077543
    148          1           0       14.259285   -2.677397   -1.713324
    149          1           0       14.418536   -2.237101    0.293830
    150          1           0       13.753165   -0.546323    0.139185
    151          1           0       15.461888   -0.805188    0.121847
    152          1           0       10.113008   -6.096741   -0.035307
    153          1           0       11.280049   -5.386956   -1.220727
    154          1           0        9.495758   -5.836539   -1.584372
    155          1           0        6.771166   -3.585063    2.846102
    156          1           0        2.732490   -3.560165    3.084186
    157          1           0        2.939827   -4.334012    1.510155
    158          1           0        2.825726   -2.589801    1.492574
 ---------------------------------------------------------------------

 SCF Done:  E(RPBE1PBE) =  -4067.38939757     A.U. after   16 cycles

 Excitation energies and oscillator strengths:

 Excited State   1:      Singlet-A      1.8346 eV  675.82 nm  f=0.1424  <S**2>=0.000
     309 -> 315       -0.12998
     310 -> 316        0.11424
     311 -> 313        0.47466
     312 -> 314        0.50426
 This state for optimization and/or second-order correction.
 Total Energy, E(TD-HF/TD-DFT) =  -4067.32197855
 Copying the excited state density for this state as the 1-particle RhoCI density.

 Excited State   2:      Singlet-A      1.8404 eV  673.68 nm  f=0.0000  <S**2>=0.000
     312 -> 313        0.70708

 Excited State   3:      Singlet-A      1.8416 eV  673.25 nm  f=0.5703  <S**2>=0.000
     309 -> 315        0.12398
     310 -> 316        0.12335
     311 -> 313        0.50456
     312 -> 314       -0.47369

 Excited State   4:      Singlet-A      1.9159 eV  647.15 nm  f=0.0000  <S**2>=0.000
     311 -> 314        0.70710

 Excited State   5:      Singlet-A      2.2421 eV  552.99 nm  f=0.0964  <S**2>=0.000
     310 -> 313        0.63977
     311 -> 316       -0.28283

 The electronic state is 1-A.
 Alpha  occ. eigenvalues --  -46.92642 -46.92626 -19.27181 -19.26304 -19.20674
 Alpha  occ. eigenvalues --  -19.20517 -19.19919 -19.19744 -19.19543 -19.18998
 Alpha  occ. eigenvalues --  -14.42068 -14.41952 -14.41695 -14.41564 -14.39781
 Alpha  occ. eigenvalues --  -14.39209 -14.39070 -14.38955 -10.37146 -10.36564
 Alpha  occ. eigenvalues --  -10.33743 -10.32691 -10.32660 -10.32204 -10.29794
 Alpha  occ. eigenvalues --  -10.29617 -10.29568 -10.29413 -10.29090 -10.29069
 Alpha  occ. eigenvalues --  -10.29012 -10.28783 -10.28529 -10.28498 -10.28099
 Alpha  occ. eigenvalues --  -10.27909 -10.27867 -10.27785 -10.27595 -10.27324
 Alpha  occ. eigenvalues --  -10.26720 -10.26633 -10.26511 -10.26501 -10.26449
 Alpha  occ. eigenvalues --  -10.26285 -10.26122 -10.26044 -10.25983 -10.25964
 Alpha  occ. eigenvalues --  -10.25922 -10.25867 -10.25854 -10.25848 -10.25819
 Alpha  occ. eigenvalues --  -10.25773 -10.25708 -10.25568 -10.25541 -10.25411
 Alpha  occ. eigenvalues --  -10.25386 -10.25366 -10.25318 -10.25126 -10.25067
 Alpha  occ. eigenvalues --  -10.24957 -10.24867 -10.24764 -10.24727 -10.24652
 Alpha  occ. eigenvalues --  -10.24645 -10.24349 -10.24217 -10.24215 -10.24047
 Alpha  occ. eigenvalues --  -10.23712 -10.23655 -10.23578 -10.23544 -10.23335
 Alpha  occ. eigenvalues --  -10.23231 -10.23118 -10.23005 -10.22937 -10.22682
 Alpha  occ. eigenvalues --  -10.22645  -3.14753  -3.14615  -1.87559  -1.87458
 Alpha  occ. eigenvalues --   -1.87114  -1.87006  -1.86979  -1.86838  -1.11788
 Alpha  occ. eigenvalues --   -1.10725  -1.05072  -1.04150  -1.03349  -1.03179
 Alpha  occ. eigenvalues --   -1.02765  -1.02286  -0.99758  -0.99489  -0.98794
 Alpha  occ. eigenvalues --   -0.98580  -0.98078  -0.97424  -0.96818  -0.96299
 Alpha  occ. eigenvalues --   -0.86803  -0.85957  -0.83386  -0.83209  -0.83156
 Alpha  occ. eigenvalues --   -0.83072  -0.83068  -0.82289  -0.81842  -0.81703
 Alpha  occ. eigenvalues --   -0.81315  -0.81242  -0.80644  -0.80391  -0.78921
 Alpha  occ. eigenvalues --   -0.78657  -0.78262  -0.77656  -0.76863  -0.76666
 Alpha  occ. eigenvalues --   -0.75870  -0.75851  -0.75466  -0.75375  -0.74596
 Alpha  occ. eigenvalues --   -0.74125  -0.72381  -0.72333  -0.71791  -0.71650
 Alpha  occ. eigenvalues --   -0.71461  -0.71062  -0.70323  -0.70123  -0.69684
 Alpha  occ. eigenvalues --   -0.69299  -0.67273  -0.66925  -0.66637  -0.66217
 Alpha  occ. eigenvalues --   -0.64177  -0.63628  -0.63565  -0.63454  -0.62806
 Alpha  occ. eigenvalues --   -0.62447  -0.61813  -0.61642  -0.60616  -0.59800
 Alpha  occ. eigenvalues --   -0.59751  -0.59519  -0.59448  -0.59210  -0.59200
 Alpha  occ. eigenvalues --   -0.58925  -0.57416  -0.57090  -0.54818  -0.54561
 Alpha  occ. eigenvalues --   -0.54257  -0.53979  -0.53622  -0.53487  -0.53362
 Alpha  occ. eigenvalues --   -0.53258  -0.52480  -0.52424  -0.52101  -0.51852
 Alpha  occ. eigenvalues --   -0.50566  -0.50546  -0.50505  -0.50070  -0.49894
 Alpha  occ. eigenvalues --   -0.49658  -0.49490  -0.49437  -0.49010  -0.48463
 Alpha  occ. eigenvalues --   -0.48087  -0.48033  -0.47913  -0.47907  -0.47648
 Alpha  occ. eigenvalues --   -0.47344  -0.47014  -0.46962  -0.46906  -0.46636
 Alpha  occ. eigenvalues --   -0.46466  -0.46306  -0.46243  -0.46204  -0.45977
 Alpha  occ. eigenvalues --   -0.45823  -0.45635  -0.45632  -0.45529  -0.45390
 Alpha  occ. eigenvalues --   -0.44625  -0.44516  -0.44259  -0.44179  -0.44057
 Alpha  occ. eigenvalues --   -0.43932  -0.43744  -0.43463  -0.43262  -0.43252
 Alpha  occ. eigenvalues --   -0.43172  -0.43103  -0.42938  -0.42828  -0.42743
 Alpha  occ. eigenvalues --   -0.42595  -0.42334  -0.42293  -0.42159  -0.42066
 Alpha  occ. eigenvalues --   -0.42054  -0.41981  -0.41595  -0.41574  -0.41388
 Alpha  occ. eigenvalues --   -0.41335  -0.41230  -0.40872  -0.40750  -0.40580
 Alpha  occ. eigenvalues --   -0.40455  -0.40293  -0.40148  -0.39933  -0.39583
 Alpha  occ. eigenvalues --   -0.39483  -0.39283  -0.39281  -0.38809  -0.38752
 Alpha  occ. eigenvalues --   -0.38716  -0.38661  -0.38369  -0.38241  -0.38221
 Alpha  occ. eigenvalues --   -0.38005  -0.37773  -0.37725  -0.37671  -0.37625
 Alpha  occ. eigenvalues --   -0.37379  -0.37202  -0.37072  -0.37052  -0.37049
 Alpha  occ. eigenvalues --   -0.36880  -0.36840  -0.36823  -0.36604  -0.36494
 Alpha  occ. eigenvalues --   -0.36393  -0.36151  -0.35795  -0.35635  -0.35593
 Alpha  occ. eigenvalues --   -0.35353  -0.34730  -0.34713  -0.34453  -0.34293
 Alpha  occ. eigenvalues --   -0.33792  -0.33458  -0.33194  -0.32849  -0.32500
 Alpha  occ. eigenvalues --   -0.32474  -0.32128  -0.32005  -0.31705  -0.31536
 Alpha  occ. eigenvalues --   -0.31442  -0.31335  -0.30120  -0.29844  -0.29608
 Alpha  occ. eigenvalues --   -0.29366  -0.28999  -0.28737  -0.27023  -0.26860
 Alpha  occ. eigenvalues --   -0.26319  -0.26318  -0.25931  -0.25844  -0.25669
 Alpha  occ. eigenvalues --   -0.25650  -0.25487  -0.25426  -0.21284  -0.21154
 Alpha  occ. eigenvalues --   -0.18793  -0.18649
 Alpha virt. eigenvalues --   -0.11190  -0.11053  -0.05777  -0.05595  -0.04438
 Alpha virt. eigenvalues --   -0.04065  -0.02565  -0.02260  -0.01180  -0.00849
 Alpha virt. eigenvalues --    0.00105   0.00139   0.00620   0.00862   0.01086

 Mulliken charges:
               1
     1  Mg  12.000691
     2  C    5.981574
     3  C    6.006160
     4  C    6.016686
     5  C    6.000923
     6  N    6.989142
     7  C    6.023349
     8  C    5.994900
     9  C    6.005856
    10  C    5.979156
    11  C    6.002068
    12  C    6.000344
    13  C    5.999450
    14  H    1.001410
    15  N    7.003176
    16  C    5.977541
    17  C    5.986059
    18  C    5.991608
    19  C    5.974355
    20  C    6.001145
    21  C    5.992540
    22  O    7.985615
    23  C    5.998689
    24  N    7.004831
    25  C    5.976251
    26  C    6.007392
    27  C    5.994646
    28  C    6.021381
    29  C    6.000423
    30  C    5.997762
    31  C    5.999595
    32  N    6.999955
    33  C    6.024169
    34  C    6.016783
    35  C    6.002148
    36  C    6.018195
    37  C    5.998803
    38  C    6.012253
    39  O    8.020829
    40  C    6.000254
    41  C    6.003729
    42  O    8.001615
    43  O    8.001021
    44  C    5.998975
    45  H    0.992600
    46  H    0.996373
    47  H    1.009211
    48  H    0.998699
    49  H    0.996149
    50  H    0.991139
    51  H    0.999585
    52  H    1.000272
    53  H    1.005371
    54  H    0.995338
    55  H    0.996979
    56  H    1.002531
    57  H    0.990576
    58  H    0.988733
    59  H    0.989729
    60  H    0.993260
    61  H    0.992676
    62  H    0.994382
    63  H    0.999531
    64  H    0.998397
    65  H    0.993592
    66  H    1.001605
    67  H    1.002213
    68  H    0.998235
    69  H    1.007580
    70  H    1.003780
    71  H    1.003443
    72  H    0.998909
    73  H    1.010210
    74  H    1.010345
    75  H    1.013264
    76  H    1.004999
    77  H    1.003266
    78  H    1.003189
    79  H    1.000396
    80  Mg  12.002282
    81  C    6.014194
    82  C    5.985985
    83  C    5.998156
    84  C    6.012240
    85  N    7.001492
    86  C    5.974535
    87  C    6.008564
    88  C    5.992705
    89  C    6.024951
    90  C    5.999291
    91  C    6.001751
    92  C    6.003447
    93  H    0.992766
    94  N    6.994490
    95  C    6.025963
    96  C    6.015810
    97  C    6.012357
    98  C    6.017473
    99  C    5.999991
   100  C    6.008809
   101  O    8.022149
   102  C    5.996862
   103  N    7.002539
   104  C    6.018221
   105  C    5.993374
   106  C    6.007678
   107  C    5.976518
   108  C    5.999162
   109  C    6.001545
   110  C    6.003059
   111  N    7.001679
   112  C    5.969071
   113  C    5.980916
   114  C    5.997506
   115  C    5.977756
   116  C    6.001000
   117  C    5.987213
   118  O    7.980391
   119  C    5.998471
   120  C    5.997696
   121  O    7.996979
   122  O    7.998728
   123  C    6.001220
   124  H    1.005476
   125  H    1.005222
   126  H    0.994248
   127  H    0.998634
   128  H    1.000511
   129  H    1.009172
   130  H    1.000563
   131  H    0.999408
   132  H    0.991466
   133  H    1.003828
   134  H    0.997325
   135  H    1.001997
   136  H    1.014170
   137  H    1.010524
   138  H    1.009375
   139  H    1.006584
   140  H    1.010172
   141  H    1.005655
   142  H    1.000238
   143  H    0.998466
   144  H    0.998634
   145  H    0.997939
   146  H    1.006700
   147  H    0.993458
   148  H    1.003209
   149  H    1.003885
   150  H    0.993821
   151  H    0.995423
   152  H    0.989448
   153  H    0.987363
   154  H    0.985973
   155  H    0.994405
   156  H    0.996001
   157  H    0.998667
   158  H    0.995055
 Sum of Mulliken charges = 624.00000

 Dipole moment (field-independent basis, Debye):
    X=              3.6849    Y=              3.5199    Z=              3.8703  Tot=              6.3990
 Quadrupole moment (field-independent basis, Debye-Ang):
   XX=            -41.4950   YY=              6.1185   ZZ=             -3.3748
   XY=            107.4324   XZ=            -56.6574   YZ=             -0.5655

 Normal termination of Gaussian 16 at Fri Oct 15 14:41:42 2021.
