 Gaussian 16, Revision A.03,
 Gaussian 16:  ES64L-G16RevA.03 25-Dec-2016

 --------------------------------------------------------
 #p PBE1PBE/Def2SVP td=(nstates=5) density=(transition=1)
 --------------------------------------------------------

 --------------------------------
 TDDFT excited states in gaussian
 --------------------------------
 Symbolic Z-matrix:
 Charge =  0 Multiplicity = 1

                         Standard orientation:
 ---------------------------------------------------------------------
 Center     Atomic      Atomic             Coordinates (Angstroms)
 Number     Number       Type             X           Y           Z
 ---------------------------------------------------------------------
      1         12           0       19.950575    0.227914    0.338332
      2          6           0       17.367816   -1.392047   -1.206664
      3          6           0       20.469924    2.129853   -2.347783
      4          6           0       22.519150    1.489778    1.898032
      5          6           0       19.688408   -2.249556    2.887050
      6          7           0       19.121179    0.245955   -1.667123
      7          6           0       17.919394   -0.316184   -1.949483
      8          6           0       17.278587    0.307513   -3.159046
      9          6           0       18.448110    1.244266   -3.664519
     10          6           0       19.461995    1.156744   -2.544450
     11          6           0       18.997794    0.891694   -5.067551
     12          6           0       15.822463    1.021986   -2.864731
     13          6           0       14.654041    0.727094   -3.817661
     14          1           0       15.020510    0.275192   -5.266241
     15          7           0       21.146770    1.675874   -0.066230
     16          6           0       21.263571    2.382071   -1.220935
     17          6           0       22.382469    3.292728   -1.220635
     18          6           0       22.850983    3.266003    0.058163
     19          6           0       22.246072    2.029581    0.643979
     20          6           0       22.732157    3.962103   -2.537155
     21          6           0       23.938218    4.144919    0.707814
     22          8           0       24.333676    4.005969    1.841845
     23          6           0       24.505885    5.186720   -0.210328
     24          7           0       21.046087   -0.448417    2.069776
     25          6           0       22.000278    0.374135    2.541464
     26          6           0       22.511764   -0.105809    3.903369
     27          6           0       21.396517   -1.105351    4.362618
     28          6           0       20.663428   -1.317685    3.022190
     29          6           0       23.973985   -0.719403    3.987860
     30          6           0       20.377680   -0.571030    5.438536
     31          6           0       19.519533    0.646453    5.215915
     32          7           0       18.754797   -1.447355    0.881354
     33          6           0       18.798784   -2.422688    1.882821
     34          6           0       17.732800   -3.418644    1.715114
     35          6           0       17.130539   -3.044423    0.504544
     36          6           0       17.801256   -1.854964    0.078482
     37          6           0       17.339177   -4.534089    2.649120
     38          6           0       16.148434   -3.359035   -0.429117
     39          8           0       15.352318   -4.279944   -0.525147
     40          6           0       16.093710   -2.189799   -1.446196
     41          6           0       16.054836   -2.898769   -2.745790
     42          8           0       17.029173   -3.385504   -3.324565
     43          8           0       14.771865   -3.053506   -3.184820
     44          6           0       14.493665   -3.979404   -4.287284
     45          1           0       20.485546    2.859829   -3.160061
     46          1           0       23.332066    1.895125    2.502879
     47          1           0       19.697377   -2.913067    3.755171
     48          1           0       17.153582   -0.430797   -3.951189
     49          1           0       18.099123    2.276631   -3.656792
     50          1           0       19.951503    0.376677   -4.952894
     51          1           0       19.174440    1.819438   -5.611806
     52          1           0       18.255836    0.245417   -5.536665
     53          1           0       16.034025    2.091242   -2.878228
     54          1           0       15.442223    0.724152   -1.888097
     55          1           0       14.081025    1.635351   -4.002363
     56          1           0       13.954510    0.040144   -3.341517
     57          1           0       23.011668    3.282929   -3.342725
     58          1           0       23.635566    4.564896   -2.627920
     59          1           0       21.839697    4.565702   -2.702449
     60          1           0       23.714609    5.822327   -0.607100
     61          1           0       25.063730    4.575898   -0.919818
     62          1           0       25.175092    5.941549    0.201036
     63          1           0       22.539516    0.827620    4.466673
     64          1           0       21.865971   -2.052421    4.629573
     65          1           0       24.433843   -0.696986    3.000160
     66          1           0       23.933108   -1.784083    4.214748
     67          1           0       24.646913   -0.274299    4.722350
     68          1           0       21.062051   -0.427140    6.275009
     69          1           0       19.642895   -1.324882    5.719397
     70          1           0       19.836895    1.153960    4.304034
     71          1           0       19.649394    1.359330    6.030048
     72          1           0       18.456725    0.468703    5.052987
     73          1           0       17.620311   -5.514565    2.267328
     74          1           0       16.264318   -4.502286    2.828165
     75          1           0       17.964700   -4.351193    3.523191
     76          1           0       15.250722   -1.524987   -1.256899
     77          1           0       13.471845   -4.359561   -4.257939
     78          1           0       15.272668   -4.732772   -4.393843
     79          1           0       14.592503   -3.507322   -5.264594
     80         12           0      -19.536531   -0.459955   -0.333462
     81          6           0      -18.927262    2.942434    0.378523
     82          6           0      -16.104250   -1.053940   -0.148232
     83          6           0      -20.250593   -3.774958    0.006029
     84          6           0      -23.017055    0.297516    0.043428
     85          7           0      -17.777986    0.799737    0.028769
     86          6           0      -17.769034    2.118584    0.316664
     87          6           0      -16.325432    2.608026    0.664000
     88          6           0      -15.467760    1.381493    0.104785
     89          6           0      -16.528816    0.246537   -0.065884
     90          6           0      -14.712572    1.489873   -1.239335
     91          6           0      -16.220148    2.819823    2.221654
     92          6           0      -15.325034    4.019633    2.638670
     93          1           0      -14.398523    3.775228    3.898629
     94          7           0      -18.318467   -2.247802   -0.303373
     95          6           0      -16.949134   -2.224430   -0.283679
     96          6           0      -16.521083   -3.570976   -0.325946
     97          6           0      -17.659682   -4.423160   -0.214113
     98          6           0      -18.845932   -3.502974   -0.215681
     99          6           0      -15.079930   -4.020063   -0.379323
    100          6           0      -17.655705   -5.895458    0.019468
    101          8           0      -16.621647   -6.516751    0.205107
    102          6           0      -18.834307   -6.716237    0.119703
    103          7           0      -21.419055   -1.555320    0.095627
    104          6           0      -21.415455   -2.955441    0.010319
    105          6           0      -22.814992   -3.486087    0.007910
    106          6           0      -23.727491   -2.206586    0.086387
    107          6           0      -22.703830   -1.084411    0.078184
    108          6           0      -23.024056   -4.336761   -1.251418
    109          6           0      -24.820814   -2.275708    1.218159
    110          6           0      -26.248481   -2.114919    0.791653
    111          7           0      -20.798198    1.279528    0.087451
    112          6           0      -22.164965    1.400708    0.144060
    113          6           0      -22.553094    2.824811    0.244155
    114          6           0      -21.274121    3.421402    0.402797
    115          6           0      -20.282174    2.477123    0.215453
    116          6           0      -23.935907    3.445119    0.368354
    117          6           0      -20.638130    4.663890    0.751952
    118          8           0      -21.139921    5.759218    1.049139
    119          6           0      -19.122696    4.465061    0.742191
    120          6           0      -18.464022    5.417975   -0.170613
    121          8           0      -17.649419    6.185531    0.195262
    122          8           0      -18.738224    5.192573   -1.488561
    123          6           0      -17.852294    6.001735   -2.353370
    124          1           0      -15.032499   -1.263828   -0.174172
    125          1           0      -20.409338   -4.854423    0.017247
    126          1           0      -24.013030    0.711188    0.218065
    127          1           0      -16.148116    3.541955    0.130389
    128          1           0      -14.867579    0.856577    0.847806
    129          1           0      -15.192317    2.225592   -1.885835
    130          1           0      -14.584598    0.563730   -1.799768
    131          1           0      -13.726575    1.880631   -0.990167
    132          1           0      -15.889949    1.905334    2.715202
    133          1           0      -17.246433    3.001380    2.540981
    134          1           0      -16.047027    4.809768    2.845604
    135          1           0      -14.801684    4.258814    1.712664
    136          1           0      -14.899823   -5.022366   -0.768187
    137          1           0      -14.756733   -3.952400    0.659107
    138          1           0      -14.362821   -3.310980   -0.792960
    139          1           0      -19.354232   -6.636516   -0.835840
    140          1           0      -19.453011   -6.416329    0.965981
    141          1           0      -18.522670   -7.746958    0.289062
    142          1           0      -23.026630   -4.013559    0.937701
    143          1           0      -24.212107   -1.874506   -0.832012
    144          1           0      -22.092094   -4.607157   -1.748433
    145          1           0      -23.611692   -3.808656   -2.002344
    146          1           0      -23.363946   -5.331562   -0.964948
    147          1           0      -24.539128   -1.486841    1.915623
    148          1           0      -24.893317   -3.247993    1.704136
    149          1           0      -26.668645   -1.301095    1.382018
    150          1           0      -26.842716   -2.999860    1.020150
    151          1           0      -26.365577   -2.009391   -0.286932
    152          1           0      -24.314544    3.428594    1.390544
    153          1           0      -24.662537    3.019228   -0.324690
    154          1           0      -23.708791    4.491145    0.162939
    155          1           0      -18.710608    4.746356    1.710440
    156          1           0      -18.112822    5.783349   -3.389330
    157          1           0      -16.805682    5.766461   -2.160604
    158          1           0      -18.028734    7.075370   -2.297815
 ---------------------------------------------------------------------

 SCF Done:  E(RPBE1PBE) =  -4067.34539201     A.U. after   17 cycles

 Excitation energies and oscillator strengths:

 Excited State   1:      Singlet-A      1.6736 eV  740.83 nm  f=0.0000  <S**2>=0.000
     312 -> 313        0.70711
 This state for optimization and/or second-order correction.
 Total Energy, E(TD-HF/TD-DFT) =  -4067.28388910
 Copying the excited state density for this state as the 1-particle RhoCI density.

 Excited State   2:      Singlet-A      1.8469 eV  671.32 nm  f=0.3895  <S**2>=0.000
     309 -> 315        0.16870
     311 -> 313        0.69409
     311 <- 313       -0.11312

 Excited State   3:      Singlet-A      1.8950 eV  654.27 nm  f=0.3662  <S**2>=0.000
     310 -> 316        0.18686
     312 -> 314        0.68799

 Excited State   4:      Singlet-A      2.2122 eV  560.46 nm  f=0.1077  <S**2>=0.000
     309 -> 313        0.65179
     311 -> 315       -0.25480

 Excited State   5:      Singlet-A      2.2581 eV  549.07 nm  f=0.0658  <S**2>=0.000
     310 -> 314        0.63636
     312 -> 316       -0.29839

 The electronic state is 1-A.
 Alpha  occ. eigenvalues --  -46.94194 -46.91350 -19.25711 -19.24607 -19.20110
 Alpha  occ. eigenvalues --  -19.19919 -19.18983 -19.18632 -19.18081 -19.17623
 Alpha  occ. eigenvalues --  -14.42419 -14.42296 -14.41166 -14.40555 -14.39587
 Alpha  occ. eigenvalues --  -14.39528 -14.38880 -14.38481 -10.35709 -10.35312
 Alpha  occ. eigenvalues --  -10.32890 -10.31829 -10.30815 -10.30687 -10.29926
 Alpha  occ. eigenvalues --  -10.29672 -10.29652 -10.29029 -10.28897 -10.28799
 Alpha  occ. eigenvalues --  -10.28306 -10.28282 -10.28069 -10.27917 -10.27820
 Alpha  occ. eigenvalues --  -10.27795 -10.27674 -10.27507 -10.26920 -10.26865
 Alpha  occ. eigenvalues --  -10.26848 -10.26843 -10.26720 -10.26619 -10.26534
 Alpha  occ. eigenvalues --  -10.26289 -10.26287 -10.26283 -10.26267 -10.26102
 Alpha  occ. eigenvalues --  -10.26020 -10.25929 -10.25819 -10.25728 -10.25688
 Alpha  occ. eigenvalues --  -10.25563 -10.25479 -10.25410 -10.25400 -10.25311
 Alpha  occ. eigenvalues --  -10.25267 -10.25229 -10.25121 -10.25026 -10.25003
 Alpha  occ. eigenvalues --  -10.24981 -10.24578 -10.24513 -10.24411 -10.24379
 Alpha  occ. eigenvalues --  -10.24074 -10.24032 -10.23965 -10.23909 -10.23646
 Alpha  occ. eigenvalues --  -10.23511 -10.23471 -10.23458 -10.23156 -10.23124
 Alpha  occ. eigenvalues --  -10.23043 -10.22818 -10.22719 -10.22642 -10.22638
 Alpha  occ. eigenvalues --  -10.22009  -3.15933  -3.13777  -1.88784  -1.88286
 Alpha  occ. eigenvalues --   -1.88148  -1.86585  -1.86168  -1.86034  -1.12721
 Alpha  occ. eigenvalues --   -1.09651  -1.06069  -1.04362  -1.03908  -1.03865
 Alpha  occ. eigenvalues --   -1.03591  -1.00774  -1.00133  -0.99732  -0.99267
 Alpha  occ. eigenvalues --   -0.98831  -0.98397  -0.98023  -0.97774  -0.97264
 Alpha  occ. eigenvalues --   -0.86933  -0.86810  -0.83785  -0.83702  -0.83360
 Alpha  occ. eigenvalues --   -0.82684  -0.82554  -0.82347  -0.82267  -0.82238
 Alpha  occ. eigenvalues --   -0.81810  -0.81268  -0.81008  -0.80212  -0.79167
 Alpha  occ. eigenvalues --   -0.78927  -0.78628  -0.77888  -0.77009  -0.76865
 Alpha  occ. eigenvalues --   -0.76745  -0.76712  -0.75394  -0.75220  -0.74918
 Alpha  occ. eigenvalues --   -0.74818  -0.73205  -0.72992  -0.71898  -0.71847
 Alpha  occ. eigenvalues --   -0.71310  -0.71187  -0.70785  -0.70023  -0.69809
 Alpha  occ. eigenvalues --   -0.69538  -0.67596  -0.67145  -0.66982  -0.66107
 Alpha  occ. eigenvalues --   -0.63989  -0.63786  -0.63630  -0.63425  -0.62625
 Alpha  occ. eigenvalues --   -0.62414  -0.61654  -0.61326  -0.60766  -0.60151
 Alpha  occ. eigenvalues --   -0.59830  -0.59588  -0.59470  -0.59248  -0.59218
 Alpha  occ. eigenvalues --   -0.58332  -0.57825  -0.56347  -0.55536  -0.54673
 Alpha  occ. eigenvalues --   -0.54551  -0.53912  -0.53803  -0.53582  -0.53492
 Alpha  occ. eigenvalues --   -0.52857  -0.52570  -0.52371  -0.52119  -0.51662
 Alpha  occ. eigenvalues --   -0.51007  -0.50832  -0.50612  -0.50172  -0.49865
 Alpha  occ. eigenvalues --   -0.49632  -0.49621  -0.49168  -0.49108  -0.48722
 Alpha  occ. eigenvalues --   -0.48209  -0.48207  -0.47987  -0.47809  -0.47773
 Alpha  occ. eigenvalues --   -0.47403  -0.47298  -0.47088  -0.47035  -0.46880
 Alpha  occ. eigenvalues --   -0.46876  -0.46825  -0.46308  -0.46143  -0.46017
 Alpha  occ. eigenvalues --   -0.45877  -0.45819  -0.45567  -0.45238  -0.44974
 Alpha  occ. eigenvalues --   -0.44837  -0.44714  -0.44513  -0.44216  -0.43995
 Alpha  occ. eigenvalues --   -0.43923  -0.43899  -0.43724  -0.43678  -0.43404
 Alpha  occ. eigenvalues --   -0.43246  -0.43146  -0.43083  -0.42786  -0.42717
 Alpha  occ. eigenvalues --   -0.42655  -0.42384  -0.42249  -0.41993  -0.41847
 Alpha  occ. eigenvalues --   -0.41658  -0.41568  -0.41486  -0.41428  -0.41339
 Alpha  occ. eigenvalues --   -0.41236  -0.41085  -0.41017  -0.40518  -0.40502
 Alpha  occ. eigenvalues --   -0.40247  -0.40043  -0.39930  -0.39807  -0.39662
 Alpha  occ. eigenvalues --   -0.39662  -0.39482  -0.39270  -0.39150  -0.38870
 Alpha  occ. eigenvalues --   -0.38838  -0.38707  -0.38611  -0.38465  -0.38230
 Alpha  occ. eigenvalues --   -0.38106  -0.37929  -0.37857  -0.37743  -0.37678
 Alpha  occ. eigenvalues --   -0.37664  -0.37502  -0.37206  -0.37062  -0.37056
 Alpha  occ. eigenvalues --   -0.36756  -0.36632  -0.36416  -0.36159  -0.36082
 Alpha  occ. eigenvalues --   -0.35927  -0.35915  -0.35630  -0.35589  -0.35409
 Alpha  occ. eigenvalues --   -0.35018  -0.34572  -0.34480  -0.34155  -0.34148
 Alpha  occ. eigenvalues --   -0.33641  -0.33460  -0.33178  -0.32890  -0.32551
 Alpha  occ. eigenvalues --   -0.32235  -0.32065  -0.31950  -0.31497  -0.31433
 Alpha  occ. eigenvalues --   -0.31372  -0.30109  -0.29811  -0.29572  -0.29354
 Alpha  occ. eigenvalues --   -0.29052  -0.28722  -0.27860  -0.27675  -0.27140
 Alpha  occ. eigenvalues --   -0.26348  -0.26129  -0.25976  -0.25710  -0.25518
 Alpha  occ. eigenvalues --   -0.25113  -0.25053  -0.24601  -0.21449  -0.20665
 Alpha  occ. eigenvalues --   -0.19248  -0.18267
 Alpha virt. eigenvalues --   -0.11782  -0.10437  -0.05756  -0.05219  -0.03922
 Alpha virt. eigenvalues --   -0.03901  -0.02004  -0.01859  -0.01528  -0.00049
 Alpha virt. eigenvalues --    0.00579   0.00952   0.01293   0.01425   0.01671

 Mulliken charges:
               1
     1  Mg  12.000000
     2  C    6.000000
     3  C    6.000000
     4  C    6.000000
     5  C    6.000000
     6  N    7.000000
     7  C    6.000000
     8  C    6.000000
     9  C    6.000000
    10  C    6.000000
    11  C    6.000000
    12  C    6.000000
    13  C    6.000000
    14  H    1.000000
    15  N    7.000000
    16  C    6.000000
    17  C    6.000000
    18  C    6.000000
    19  C    6.000000
    20  C    6.000000
    21  C    6.000000
    22  O    8.000000
    23  C    6.000000
    24  N    7.000000
    25  C    6.000000
    26  C    6.000000
    27  C    6.000000
    28  C    6.000000
    29  C    6.000000
    30  C    6.000000
    31  C    6.000000
    32  N    7.000000
    33  C    6.000000
    34  C    6.000000
    35  C    6.000000
    36  C    6.000000
    37  C    6.000000
    38  C    6.000000
    39  O    8.000000
    40  C    6.000000
    41  C    6.000000
    42  O    8.000000
    43  O    8.000000
    44  C    6.000000
    45  H    1.000000
    46  H    1.000000
    47  H    1.000000
    48  H    1.000000
    49  H    1.000000
    50  H    1.000000
    51  H    1.000000
    52  H    1.000000
    53  H    1.000000
    54  H    1.000000
    55  H    1.000000
    56  H    1.000000
    57  H    1.000000
    58  H    1.000000
    59  H    1.000000
    60  H    1.000000
    61  H    1.000000
    62  H    1.000000
    63  H    1.000000
    64  H    1.000000
    65  H    1.000000
    66  H    1.000000
    67  H    1.000000
    68  H    1.000000
    69  H    1.000000
    70  H    1.000000
    71  H    1.000000
    72  H    1.000000
    73  H    1.000000
    74  H    1.000000
    75  H    1.000000
    76  H    1.000000
    77  H    1.000000
    78  H    1.000000
    79  H    1.000000
    80  Mg  12.000000
    81  C    6.000000
    82  C    6.000000
    83  C    6.000000
    84  C    6.000000
    85  N    7.000000
    86  C    6.000000
    87  C    6.000000
    88  C    6.000000
    89  C    6.000000
    90  C    6.000000
    91  C    6.000000
    92  C    6.000000
    93  H    1.000000
    94  N    7.000000
    95  C    6.000000
    96  C    6.000000
    97  C    6.000000
    98  C    6.000000
    99  C    6.000000
   100  C    6.000000
   101  O    8.000000
   102  C    6.000000
   103  N    7.000000
   104  C    6.000000
   105  C    6.000000
   106  C    6.000000
   107  C    6.000000
   108  C    6.000000
   109  C    6.000000
   110  C    6.000000
   111  N    7.000000
   112  C    6.000000
   113  C    6.000000
   114  C    6.000000
   115  C    6.000000
   116  C    6.000000
   117  C    6.000000
   118  O    8.000000
   119  C    6.000000
   120  C    6.000000
   121  O    8.000000
   122  O    8.000000
   123  C    6.000000
   124  H    1.000000
   125  H    1.000000
   126  H    1.000000
   127  H    1.000000
   128  H    1.000000
   129  H    1.000000
   130  H    1.000000
   131  H    1.000000
   132  H    1.000000
   133  H    1.000000
   134  H    1.000000
   135  H    1.000000
   136  H    1.000000
   137  H    1.000000
   138  H    1.000000
   139  H    1.000000
   140  H    1.000000
   141  H    1.000000
   142  H    1.000000
   143  H    1.000000
   144  H    1.000000
   145  H    1.000000
   146  H    1.000000
   147  H    1.000000
   148  H    1.000000
   149  H    1.000000
   150  H    1.000000
   151  H    1.000000
   152  H    1.000000
   153  H    1.000000
   154  H    1.000000
   155  H    1.000000
   156  H    1.000000
   157  H    1.000000
   158  H    1.000000
 Sum of Mulliken charges = 624.00000

 Dipole moment (field-independent basis, Debye):
    X=             -0.0000    Y=              0.0000    Z=             -0.0000  Tot=              0.0000
 Quadrupole moment (field-independent basis, Debye-Ang):
   XX=              0.0000   YY=             -0.0000   ZZ=             -0.0000
   XY=              0.0000   XZ=             -0.0000   YZ=              0.0000

 Normal termination of Gaussian 16 at Wed Oct 13 20:31:59 2021.
