 Gaussian 16, Revision A.03,
 Gaussian 16:  ES64L-G16RevA.03 25-Dec-2016

 --------------------------------------------------------
 #p PBE1PBE/Def2SVP td=(nstates=5) density=(transition=1)
 --------------------------------------------------------

 --------------------------------
 TDDFT excited states in gaussian
 --------------------------------
 Symbolic Z-matrix:
 Charge =  0 Multiplicity = 1

                         Standard orientation:
 ---------------------------------------------------------------------
 Center     Atomic      Atomic             Coordinates (Angstroms)
 Number     Number       Type             X           Y           Z
 ---------------------------------------------------------------------
      1         12           0       -4.890387   -0.654754    0.115303
      2          6           0       -3.168949    2.272152    0.955259
      3          6           0       -7.672923    1.051462   -0.225384
      4          6           0       -6.644250   -3.608345    0.051535
      5          6           0       -2.031840   -2.538588    0.978664
      6          7           0       -5.286418    1.410775    0.249766
      7          6           0       -4.466458    2.479648    0.537684
      8          6           0       -5.169167    3.810609    0.303264
      9          6           0       -6.656179    3.355970    0.150848
     10          6           0       -6.532233    1.886464   -0.055474
     11          6           0       -7.677806    3.775981    1.185443
     12          6           0       -4.589377    4.662046   -0.871103
     13          6           0       -5.273363    6.014972   -1.095878
     14          1           0       -4.353855    7.225839   -1.157539
     15          7           0       -6.996437   -1.220859   -0.009178
     16          6           0       -7.969699   -0.330449   -0.293166
     17          6           0       -9.198156   -1.034542   -0.536286
     18          6           0       -8.932301   -2.401980   -0.349316
     19          6           0       -7.470577   -2.450606   -0.073896
     20          6           0      -10.511642   -0.353558   -0.858131
     21          6           0       -9.836633   -3.581273   -0.499029
     22          8           0       -9.569839   -4.770087   -0.177472
     23          6           0      -11.213085   -3.414072   -1.131008
     24          7           0       -4.413336   -2.725446    0.488414
     25          6           0       -5.327527   -3.723040    0.461846
     26          6           0       -4.571431   -5.155440    0.561217
     27          6           0       -3.068381   -4.741749    0.383211
     28          6           0       -3.135425   -3.257816    0.552386
     29          6           0       -4.925242   -5.829333    1.944336
     30          6           0       -2.585387   -5.009815   -1.088989
     31          6           0       -3.400909   -4.465293   -2.251390
     32          7           0       -2.896365   -0.249558    0.789273
     33          6           0       -1.896002   -1.137324    1.076012
     34          6           0       -0.790011   -0.392047    1.464112
     35          6           0       -1.172157    0.980263    1.479769
     36          6           0       -2.475475    1.016702    1.058764
     37          6           0        0.544536   -0.865356    1.921598
     38          6           0       -0.782620    2.380513    1.761806
     39          8           0        0.233021    2.900511    2.209495
     40          6           0       -2.060631    3.286503    1.325467
     41          6           0       -2.358372    4.305151    2.367332
     42          8           0       -2.229291    4.123711    3.614472
     43          8           0       -2.603904    5.444244    1.734107
     44          6           0       -2.458186    6.625215    2.563413
     45          1           0       -8.600203    1.577208   -0.462953
     46          1           0       -7.180676   -4.558734   -0.001335
     47          1           0       -1.133462   -3.143432    1.111356
     48          1           0       -4.931733    4.393348    1.193491
     49          1           0       -7.113409    3.702161   -0.776716
     50          1           0       -7.423138    4.632852    1.809123
     51          1           0       -7.920088    2.918975    1.814460
     52          1           0       -8.635061    3.855489    0.669852
     53          1           0       -4.606892    4.076758   -1.790826
     54          1           0       -3.531709    4.846460   -0.685727
     55          1           0       -5.767380    6.364893   -0.189628
     56          1           0       -5.961087    5.976032   -1.941154
     57          1           0      -10.497669    0.732892   -0.772154
     58          1           0      -11.326974   -0.541142   -0.159882
     59          1           0      -10.888903   -0.586742   -1.854298
     60          1           0      -11.829387   -2.839999   -0.439673
     61          1           0      -11.780556   -4.344409   -1.124901
     62          1           0      -11.174754   -3.036442   -2.153425
     63          1           0       -4.945556   -5.820173   -0.217427
     64          1           0       -2.547012   -5.221024    1.211781
     65          1           0       -5.767145   -5.360563    2.454102
     66          1           0       -4.115225   -5.803416    2.673422
     67          1           0       -5.250455   -6.864759    1.853961
     68          1           0       -2.593350   -6.099698   -1.071714
     69          1           0       -1.562566   -4.696998   -1.296764
     70          1           0       -4.369290   -4.111539   -1.896909
     71          1           0       -3.500454   -5.114524   -3.120591
     72          1           0       -2.762299   -3.665667   -2.626808
     73          1           0        1.043497   -1.542035    1.227426
     74          1           0        0.344207   -1.432151    2.830375
     75          1           0        1.214741   -0.045266    2.177190
     76          1           0       -1.711047    3.808458    0.435080
     77          1           0       -1.928643    7.404302    2.013618
     78          1           0       -1.887921    6.502008    3.483819
     79          1           0       -3.471992    6.965092    2.777534
     80         12           0        5.182690   -0.646413   -0.236701
     81          6           0        3.072037    2.159543   -0.823073
     82          6           0        7.819976    1.525806    0.149014
     83          6           0        6.997316   -3.369835    0.220452
     84          6           0        2.462337   -2.807415   -1.158152
     85          7           0        5.454135    1.659282   -0.394635
     86          6           0        4.395549    2.537007   -0.540608
     87          6           0        5.004171    3.975965   -0.417938
     88          6           0        6.588074    3.775786   -0.138349
     89          6           0        6.624721    2.244148   -0.143712
     90          6           0        7.545991    4.492485   -1.112628
     91          6           0        4.271894    4.987691    0.557239
     92          6           0        3.777724    6.256919   -0.073718
     93          1           0        4.409155    6.887429   -1.286793
     94          7           0        7.204165   -0.891970    0.278883
     95          6           0        8.101755    0.124454    0.373802
     96          6           0        9.309867   -0.464493    0.891645
     97          6           0        9.136564   -1.863752    0.823372
     98          6           0        7.727794   -2.151027    0.398896
     99          6           0       10.521052    0.425282    1.218436
    100          6           0       10.190127   -2.915132    0.998817
    101          8           0        9.946054   -4.128570    0.798201
    102          6           0       11.569983   -2.508731    1.362517
    103          7           0        4.737964   -2.804811   -0.522521
    104          6           0        5.624267   -3.678163   -0.191830
    105          6           0        5.179109   -5.235585   -0.250475
    106          6           0        3.728985   -5.029492   -0.713961
    107          6           0        3.611909   -3.527763   -0.806079
    108          6           0        6.104949   -6.010691   -1.258031
    109          6           0        2.602434   -5.648219    0.186227
    110          6           0        2.334251   -4.946840    1.538955
    111          7           0        3.286937   -0.390428   -0.958912
    112          6           0        2.332272   -1.375985   -1.303743
    113          6           0        1.074905   -0.688679   -1.628344
    114          6           0        1.319336    0.693431   -1.444262
    115          6           0        2.675888    0.825188   -0.992465
    116          6           0       -0.255231   -1.385628   -2.043802
    117          6           0        0.700310    1.909455   -1.512299
    118          8           0       -0.413628    2.240586   -1.863986
    119          6           0        1.755626    2.957398   -1.060854
    120          6           0        1.858188    3.972776   -2.083406
    121          8           0        2.611575    3.915506   -3.061824
    122          8           0        0.822448    4.902152   -1.930588
    123          6           0        0.715013    5.884470   -3.037654
    124          1           0        8.761884    2.069195    0.045293
    125          1           0        7.646629   -4.247885    0.214312
    126          1           0        1.602668   -3.417792   -1.442346
    127          1           0        4.734053    4.338905   -1.408766
    128          1           0        6.832989    4.224425    0.823350
    129          1           0        8.235014    5.140047   -0.568891
    130          1           0        7.088387    5.070873   -1.915049
    131          1           0        8.096770    3.676905   -1.581219
    132          1           0        4.925428    5.239469    1.392695
    133          1           0        3.385432    4.457446    0.905359
    134          1           0        4.047137    7.062495    0.610264
    135          1           0        2.705285    6.152403   -0.234348
    136          1           0       10.245412    1.475899    1.312547
    137          1           0       11.275465    0.317880    0.440117
    138          1           0       10.887387    0.043221    2.170747
    139          1           0       11.499612   -1.958242    2.300679
    140          1           0       11.991693   -1.826231    0.623648
    141          1           0       12.229503   -3.374981    1.396058
    142          1           0        5.209820   -5.694739    0.737930
    143          1           0        3.636872   -5.322052   -1.760168
    144          1           0        6.431689   -5.302721   -2.019638
    145          1           0        5.501696   -6.770971   -1.755430
    146          1           0        6.993085   -6.503714   -0.861913
    147          1           0        2.745304   -6.725282    0.267621
    148          1           0        1.677803   -5.624059   -0.389615
    149          1           0        3.188550   -4.479921    2.027976
    150          1           0        1.818946   -5.654254    2.189652
    151          1           0        1.588506   -4.184337    1.314650
    152          1           0       -1.117676   -1.036573   -1.475863
    153          1           0       -0.205838   -2.472834   -1.995075
    154          1           0       -0.574500   -0.989943   -3.008289
    155          1           0        1.291913    3.357075   -0.159605
    156          1           0        0.373993    5.397020   -3.950642
    157          1           0        1.655209    6.363022   -3.309325
    158          1           0        0.130819    6.719058   -2.649612
 ---------------------------------------------------------------------

 SCF Done:  E(RPBE1PBE) =  -4067.39322530     A.U. after   17 cycles

 Excitation energies and oscillator strengths:

 Excited State   1:      Singlet-A      1.5428 eV  803.64 nm  f=0.0015  <S**2>=0.000
     312 -> 313        0.70246
 This state for optimization and/or second-order correction.
 Total Energy, E(TD-HF/TD-DFT) =  -4067.33652879
 Copying the excited state density for this state as the 1-particle RhoCI density.

 Excited State   2:      Singlet-A      1.8012 eV  688.35 nm  f=0.8661  <S**2>=0.000
     309 -> 316        0.10510
     310 -> 315        0.10276
     311 -> 313        0.52309
     312 -> 314       -0.45040

 Excited State   3:      Singlet-A      1.8300 eV  677.53 nm  f=0.0221  <S**2>=0.000
     311 -> 313        0.22733
     311 -> 314        0.64859
     312 -> 314        0.15457

 Excited State   4:      Singlet-A      1.8868 eV  657.12 nm  f=0.0259  <S**2>=0.000
     310 -> 315       -0.13924
     311 -> 313        0.39302
     311 -> 314       -0.26555
     312 -> 314        0.49663

 Excited State   5:      Singlet-A      2.0844 eV  594.81 nm  f=0.0035  <S**2>=0.000
     310 -> 313        0.70201

 The electronic state is 1-A.
 Alpha  occ. eigenvalues --  -46.92955 -46.92470 -19.27003 -19.24924 -19.19361
 Alpha  occ. eigenvalues --  -19.19094 -19.18986 -19.18900 -19.18506 -19.18138
 Alpha  occ. eigenvalues --  -14.42021 -14.41874 -14.41156 -14.41141 -14.39309
 Alpha  occ. eigenvalues --  -14.39066 -14.38975 -14.37622 -10.35965 -10.35428
 Alpha  occ. eigenvalues --  -10.32461 -10.32148 -10.31697 -10.30521 -10.29279
 Alpha  occ. eigenvalues --  -10.29264 -10.29059 -10.28897 -10.28678 -10.28599
 Alpha  occ. eigenvalues --  -10.28490 -10.28484 -10.28107 -10.28091 -10.27936
 Alpha  occ. eigenvalues --  -10.27926 -10.27892 -10.27851 -10.27697 -10.26813
 Alpha  occ. eigenvalues --  -10.26486 -10.26485 -10.26410 -10.26303 -10.26079
 Alpha  occ. eigenvalues --  -10.25982 -10.25965 -10.25964 -10.25895 -10.25770
 Alpha  occ. eigenvalues --  -10.25703 -10.25678 -10.25636 -10.25620 -10.25499
 Alpha  occ. eigenvalues --  -10.25310 -10.25092 -10.25028 -10.25018 -10.25016
 Alpha  occ. eigenvalues --  -10.24946 -10.24926 -10.24884 -10.24876 -10.24786
 Alpha  occ. eigenvalues --  -10.24774 -10.24771 -10.24408 -10.24340 -10.24269
 Alpha  occ. eigenvalues --  -10.24026 -10.23991 -10.23682 -10.23587 -10.23540
 Alpha  occ. eigenvalues --  -10.23528 -10.23488 -10.23424 -10.23211 -10.23130
 Alpha  occ. eigenvalues --  -10.23098 -10.23036 -10.22911 -10.22125 -10.21989
 Alpha  occ. eigenvalues --  -10.21767  -3.14879  -3.14447  -1.87732  -1.87295
 Alpha  occ. eigenvalues --   -1.87288  -1.87059  -1.86791  -1.86684  -1.12631
 Alpha  occ. eigenvalues --   -1.09002  -1.04242  -1.03807  -1.02680  -1.02642
 Alpha  occ. eigenvalues --   -1.01021  -1.00586  -1.00487  -0.99626  -0.98600
 Alpha  occ. eigenvalues --   -0.97926  -0.97841  -0.97340  -0.96984  -0.96351
 Alpha  occ. eigenvalues --   -0.86518  -0.85899  -0.84031  -0.83525  -0.83366
 Alpha  occ. eigenvalues --   -0.82376  -0.82170  -0.81844  -0.81598  -0.81240
 Alpha  occ. eigenvalues --   -0.81154  -0.80931  -0.79967  -0.79657  -0.78742
 Alpha  occ. eigenvalues --   -0.78257  -0.77849  -0.77627  -0.77061  -0.76578
 Alpha  occ. eigenvalues --   -0.76011  -0.75729  -0.75400  -0.74813  -0.74602
 Alpha  occ. eigenvalues --   -0.74189  -0.72699  -0.72231  -0.71826  -0.71766
 Alpha  occ. eigenvalues --   -0.71278  -0.70494  -0.70211  -0.69933  -0.69368
 Alpha  occ. eigenvalues --   -0.69091  -0.66987  -0.66845  -0.65866  -0.65785
 Alpha  occ. eigenvalues --   -0.64810  -0.63951  -0.63504  -0.63324  -0.62260
 Alpha  occ. eigenvalues --   -0.62021  -0.61941  -0.60940  -0.59720  -0.59535
 Alpha  occ. eigenvalues --   -0.59424  -0.59227  -0.59006  -0.58939  -0.58804
 Alpha  occ. eigenvalues --   -0.58421  -0.57106  -0.55913  -0.55182  -0.54419
 Alpha  occ. eigenvalues --   -0.53938  -0.53914  -0.53648  -0.53029  -0.52917
 Alpha  occ. eigenvalues --   -0.52458  -0.52152  -0.51893  -0.51814  -0.51531
 Alpha  occ. eigenvalues --   -0.50724  -0.50551  -0.50368  -0.50240  -0.50032
 Alpha  occ. eigenvalues --   -0.49881  -0.49681  -0.49661  -0.49225  -0.48540
 Alpha  occ. eigenvalues --   -0.47846  -0.47769  -0.47370  -0.47298  -0.47240
 Alpha  occ. eigenvalues --   -0.47153  -0.47087  -0.47034  -0.46868  -0.46422
 Alpha  occ. eigenvalues --   -0.46289  -0.46011  -0.45859  -0.45675  -0.45516
 Alpha  occ. eigenvalues --   -0.45327  -0.44976  -0.44679  -0.44643  -0.44481
 Alpha  occ. eigenvalues --   -0.44229  -0.43988  -0.43879  -0.43712  -0.43618
 Alpha  occ. eigenvalues --   -0.43476  -0.43336  -0.43292  -0.43152  -0.43124
 Alpha  occ. eigenvalues --   -0.43047  -0.42891  -0.42704  -0.42590  -0.42385
 Alpha  occ. eigenvalues --   -0.42308  -0.41920  -0.41793  -0.41688  -0.41464
 Alpha  occ. eigenvalues --   -0.41339  -0.41114  -0.41024  -0.40958  -0.40886
 Alpha  occ. eigenvalues --   -0.40825  -0.40761  -0.40517  -0.40471  -0.40422
 Alpha  occ. eigenvalues --   -0.40096  -0.39927  -0.39842  -0.39450  -0.39435
 Alpha  occ. eigenvalues --   -0.39149  -0.39093  -0.38944  -0.38768  -0.38555
 Alpha  occ. eigenvalues --   -0.38406  -0.38303  -0.38215  -0.37940  -0.37821
 Alpha  occ. eigenvalues --   -0.37785  -0.37695  -0.37462  -0.37399  -0.37272
 Alpha  occ. eigenvalues --   -0.37216  -0.37115  -0.37042  -0.36719  -0.36587
 Alpha  occ. eigenvalues --   -0.36485  -0.36317  -0.36274  -0.36090  -0.36020
 Alpha  occ. eigenvalues --   -0.35867  -0.35782  -0.35753  -0.35269  -0.35248
 Alpha  occ. eigenvalues --   -0.35007  -0.34948  -0.34302  -0.34170  -0.34147
 Alpha  occ. eigenvalues --   -0.33848  -0.33571  -0.32603  -0.31985  -0.31757
 Alpha  occ. eigenvalues --   -0.31701  -0.31485  -0.31276  -0.31203  -0.31037
 Alpha  occ. eigenvalues --   -0.30895  -0.30180  -0.29050  -0.28936  -0.28816
 Alpha  occ. eigenvalues --   -0.28436  -0.28222  -0.27953  -0.27088  -0.26622
 Alpha  occ. eigenvalues --   -0.26080  -0.25549  -0.25440  -0.25411  -0.25302
 Alpha  occ. eigenvalues --   -0.25183  -0.25040  -0.24076  -0.20690  -0.20472
 Alpha  occ. eigenvalues --   -0.19036  -0.18611
 Alpha virt. eigenvalues --   -0.11490  -0.10853  -0.05079  -0.04648  -0.04018
 Alpha virt. eigenvalues --   -0.03732  -0.02148  -0.01641  -0.00661   0.00100
 Alpha virt. eigenvalues --    0.00119   0.00642   0.00836   0.01702   0.01957

 Mulliken charges:
               1
     1  Mg  12.000047
     2  C    5.998474
     3  C    5.999495
     4  C    6.000506
     5  C    5.999062
     6  N    6.998439
     7  C    6.001626
     8  C    5.999707
     9  C    6.000358
    10  C    5.998839
    11  C    6.000097
    12  C    5.999936
    13  C    6.000236
    14  H    0.999587
    15  N    7.000268
    16  C    5.998600
    17  C    5.998981
    18  C    5.999072
    19  C    5.998774
    20  C    6.000320
    21  C    5.999395
    22  O    7.998328
    23  C    6.000343
    24  N    6.999711
    25  C    5.998987
    26  C    6.000154
    27  C    5.999677
    28  C    6.001471
    29  C    6.000149
    30  C    5.999484
    31  C    6.000028
    32  N    7.000463
    33  C    6.000838
    34  C    6.001848
    35  C    5.999906
    36  C    6.001010
    37  C    5.999514
    38  C    6.000351
    39  O    8.000417
    40  C    6.000724
    41  C    6.000086
    42  O    7.999954
    43  O    8.000052
    44  C    5.999975
    45  H    0.999252
    46  H    0.999667
    47  H    0.999857
    48  H    0.999791
    49  H    0.999767
    50  H    0.999214
    51  H    1.000053
    52  H    0.999982
    53  H    1.000061
    54  H    0.999434
    55  H    1.000140
    56  H    1.000188
    57  H    0.999185
    58  H    0.999046
    59  H    0.999034
    60  H    0.999584
    61  H    0.999211
    62  H    0.999507
    63  H    0.999980
    64  H    0.999967
    65  H    1.000268
    66  H    0.999448
    67  H    0.999886
    68  H    1.000457
    69  H    0.999700
    70  H    1.000885
    71  H    1.000150
    72  H    0.999333
    73  H    1.000500
    74  H    1.002360
    75  H    1.000986
    76  H    0.999477
    77  H    0.999994
    78  H    0.999954
    79  H    1.000305
    80  Mg  12.000321
    81  C    5.999119
    82  C    5.999046
    83  C    6.001791
    84  C    6.001673
    85  N    6.999174
    86  C    6.001191
    87  C    5.999655
    88  C    6.000068
    89  C    6.000673
    90  C    5.999912
    91  C    5.999744
    92  C    5.999807
    93  H    1.000387
    94  N    7.000363
    95  C    6.000326
    96  C    5.999571
    97  C    6.000470
    98  C    5.998848
    99  C    6.000028
   100  C    6.000020
   101  O    8.000071
   102  C    5.999992
   103  N    7.000712
   104  C    5.998648
   105  C    6.000170
   106  C    6.000581
   107  C    5.997599
   108  C    5.999952
   109  C    5.999792
   110  C    6.000122
   111  N    7.000023
   112  C    5.997778
   113  C    6.003712
   114  C    5.998117
   115  C    6.001394
   116  C    5.999046
   117  C    6.000859
   118  O    8.002351
   119  C    5.999810
   120  C    6.000122
   121  O    8.000379
   122  O    8.000014
   123  C    5.999849
   124  H    0.999920
   125  H    1.000339
   126  H    0.999999
   127  H    1.000228
   128  H    1.000279
   129  H    1.000203
   130  H    1.000043
   131  H    1.000225
   132  H    1.000356
   133  H    1.000212
   134  H    1.000293
   135  H    0.999971
   136  H    0.999989
   137  H    1.000010
   138  H    1.000003
   139  H    1.000048
   140  H    1.000067
   141  H    1.000102
   142  H    0.999766
   143  H    0.999724
   144  H    0.999908
   145  H    1.000033
   146  H    0.999906
   147  H    1.000014
   148  H    0.999958
   149  H    0.999919
   150  H    1.000157
   151  H    0.999518
   152  H    1.000149
   153  H    1.001110
   154  H    1.000981
   155  H    1.000615
   156  H    1.000182
   157  H    1.000207
   158  H    1.000369
 Sum of Mulliken charges = 624.00000

 Dipole moment (field-independent basis, Debye):
    X=              0.6839    Y=              0.1741    Z=              0.0364  Tot=              0.7066
 Quadrupole moment (field-independent basis, Debye-Ang):
   XX=             -5.6481   YY=             -0.1949   ZZ=              0.3316
   XY=             -0.6199   XZ=             -0.2201   YZ=             -0.1874

 Normal termination of Gaussian 16 at Thu Oct 14 08:39:03 2021.
