 Gaussian 16, Revision A.03,
 Gaussian 16:  ES64L-G16RevA.03 25-Dec-2016

 --------------------------------------------------------
 #p PBE1PBE/Def2SVP td=(nstates=5) density=(transition=1)
 --------------------------------------------------------

 --------------------------------
 TDDFT excited states in gaussian
 --------------------------------
 Symbolic Z-matrix:
 Charge =  0 Multiplicity = 1

                         Standard orientation:
 ---------------------------------------------------------------------
 Center     Atomic      Atomic             Coordinates (Angstroms)
 Number     Number       Type             X           Y           Z
 ---------------------------------------------------------------------
      1         12           0      -22.825432    0.606781    0.490242
      2          6           0      -22.108727   -2.094969   -1.476689
      3          6           0      -23.410514   -1.359237    3.116029
      4          6           0      -23.689688    3.287016    2.130957
      5          6           0      -22.763663    2.529049   -2.510362
      6          7           0      -22.934843   -1.544407    0.755747
      7          6           0      -22.343494   -2.403412   -0.111681
      8          6           0      -22.015576   -3.719806    0.538128
      9          6           0      -22.715366   -3.538789    1.944656
     10          6           0      -23.129517   -2.083271    1.933509
     11          6           0      -23.861943   -4.538434    2.229315
     12          6           0      -20.410106   -4.093724    0.544330
     13          6           0      -19.983341   -5.505077    0.112819
     14          1           0      -21.047003   -6.638931    0.253874
     15          7           0      -23.272302    0.928582    2.330864
     16          6           0      -23.490025    0.024531    3.321312
     17          6           0      -23.964694    0.623714    4.544790
     18          6           0      -23.853731    1.965757    4.339479
     19          6           0      -23.711239    2.098724    2.856289
     20          6           0      -24.448217   -0.315288    5.634767
     21          6           0      -24.065178    3.117694    5.341951
     22          8           0      -24.003768    4.289433    5.050442
     23          6           0      -24.396630    2.660268    6.731728
     24          7           0      -23.337633    2.592076   -0.181861
     25          6           0      -23.537970    3.520558    0.770688
     26          6           0      -23.637314    4.920773    0.157274
     27          6           0      -23.027697    4.719940   -1.271642
     28          6           0      -23.061265    3.180325   -1.359457
     29          6           0      -25.053969    5.637994    0.136954
     30          6           0      -21.550210    5.224873   -1.479491
     31          6           0      -20.392014    4.718405   -0.660765
     32          7           0      -22.429528    0.389152   -1.589947
     33          6           0      -22.523482    1.213746   -2.715719
     34          6           0      -22.195372    0.485954   -3.948212
     35          6           0      -22.013291   -0.832436   -3.504442
     36          6           0      -22.167782   -0.797691   -2.082778
     37          6           0      -22.030561    1.033801   -5.342567
     38          6           0      -21.736857   -2.140407   -3.889190
     39          8           0      -21.561847   -2.672005   -4.974488
     40          6           0      -21.551277   -2.968766   -2.591523
     41          6           0      -22.351519   -4.183134   -2.870839
     42          8           0      -23.578266   -4.268880   -2.776158
     43          8           0      -21.569019   -5.186499   -3.364455
     44          6           0      -22.201223   -6.357596   -3.980053
     45          1           0      -23.403354   -2.008560    3.994228
     46          1           0      -23.917206    4.233395    2.624495
     47          1           0      -22.738188    3.244166   -3.336147
     48          1           0      -22.563189   -4.531552    0.059163
     49          1           0      -21.959203   -3.616879    2.725521
     50          1           0      -24.815544   -4.027241    2.097877
     51          1           0      -23.788213   -4.861060    3.267873
     52          1           0      -23.749035   -5.350778    1.511266
     53          1           0      -20.092799   -3.922871    1.573104
     54          1           0      -19.863596   -3.438819   -0.133555
     55          1           0      -19.180187   -5.867539    0.753879
     56          1           0      -19.555393   -5.470547   -0.888992
     57          1           0      -25.296847   -0.943210    5.362943
     58          1           0      -24.927755    0.078331    6.530787
     59          1           0      -23.522495   -0.835159    5.881572
     60          1           0      -23.627007    1.987411    7.109198
     61          1           0      -25.398708    2.253448    6.597532
     62          1           0      -24.424017    3.395953    7.534750
     63          1           0      -23.011363    5.500766    0.836365
     64          1           0      -23.734016    5.102712   -2.008658
     65          1           0      -25.794943    4.989647    0.603994
     66          1           0      -25.422465    5.735470   -0.883537
     67          1           0      -25.101024    6.635175    0.577228
     68          1           0      -21.705191    6.293681   -1.329876
     69          1           0      -21.200811    5.066105   -2.499196
     70          1           0      -20.766764    4.106897    0.161080
     71          1           0      -19.851417    5.549783   -0.208621
     72          1           0      -19.688500    4.059663   -1.169519
     73          1           0      -22.854171    0.755416   -5.998542
     74          1           0      -21.088114    0.685865   -5.765797
     75          1           0      -22.106006    2.110851   -5.190907
     76          1           0      -20.499019   -3.149184   -2.370978
     77          1           0      -21.548695   -6.843827   -4.706196
     78          1           0      -23.210920   -6.141604   -4.325918
     79          1           0      -22.443224   -7.132496   -3.252914
     80         12           0       22.277922    0.547181   -0.237421
     81          6           0       24.026317   -1.686375    1.683491
     82          6           0       20.376716   -1.938543   -1.423153
     83          6           0       20.818800    2.827056   -2.246473
     84          6           0       24.702144    3.093903    0.688120
     85          7           0       22.414024   -1.659313   -0.080121
     86          6           0       23.111647   -2.344707    0.833726
     87          6           0       22.716426   -3.909351    0.796569
     88          6           0       21.525492   -3.862223   -0.232235
     89          6           0       21.424353   -2.386898   -0.669247
     90          6           0       21.652939   -4.888359   -1.374931
     91          6           0       22.319118   -4.489615    2.183563
     92          6           0       21.580163   -5.866918    2.227103
     93          1           0       22.418639   -7.134617    2.643262
     94          7           0       20.817957    0.442868   -1.690894
     95          6           0       20.091551   -0.621156   -1.963213
     96          6           0       19.088748   -0.257940   -2.952983
     97          6           0       19.240945    1.113304   -3.318766
     98          6           0       20.326464    1.524379   -2.401472
     99          6           0       18.133584   -1.222465   -3.636359
    100          6           0       18.535873    1.943742   -4.386157
    101          8           0       18.995221    3.020100   -4.756940
    102          6           0       17.274060    1.423030   -4.980145
    103          7           0       22.739567    2.658454   -0.741161
    104          6           0       21.957128    3.362632   -1.550321
    105          6           0       22.324881    4.855696   -1.554908
    106          6           0       23.394908    4.889638   -0.466792
    107          6           0       23.642652    3.454091   -0.188296
    108          6           0       22.748670    5.490240   -2.887881
    109          6           0       23.088852    5.832277    0.669480
    110          6           0       24.080231    7.035307    0.858998
    111          7           0       23.937057    0.721959    0.944216
    112          6           0       24.785604    1.821291    1.306739
    113          6           0       25.736777    1.433455    2.325028
    114          6           0       25.417704    0.055495    2.478056
    115          6           0       24.360378   -0.303706    1.632709
    116          6           0       26.683835    2.232666    3.148828
    117          6           0       25.726506   -1.033494    3.370055
    118          8           0       26.384890   -1.135032    4.416035
    119          6           0       24.980871   -2.244461    2.867615
    120          6           0       25.999574   -3.212311    2.226212
    121          8           0       26.949150   -2.927178    1.480536
    122          8           0       25.669484   -4.475293    2.619229
    123          6           0       26.540454   -5.600070    2.152075
    124          1           0       19.615082   -2.629587   -1.790373
    125          1           0       20.546124    3.572641   -2.996280
    126          1           0       25.304627    3.940444    1.022353
    127          1           0       23.596293   -4.386972    0.367035
    128          1           0       20.608324   -4.063679    0.321181
    129          1           0       20.665960   -5.327628   -1.515763
    130          1           0       22.324417   -5.706837   -1.115258
    131          1           0       21.995494   -4.409160   -2.292140
    132          1           0       21.550162   -3.815482    2.560824
    133          1           0       23.204200   -4.592867    2.811210
    134          1           0       21.296435   -6.103452    1.201087
    135          1           0       20.753273   -5.796198    2.932910
    136          1           0       18.263182   -2.239532   -3.266452
    137          1           0       18.318206   -1.219534   -4.710331
    138          1           0       17.092977   -0.936941   -3.487681
    139          1           0       16.656762    1.136438   -4.128269
    140          1           0       17.245033    0.576465   -5.665464
    141          1           0       16.745139    2.170770   -5.570117
    142          1           0       21.449725    5.409989   -1.217571
    143          1           0       24.302605    5.285410   -0.922023
    144          1           0       22.287355    6.477270   -2.866657
    145          1           0       22.454467    4.857704   -3.725276
    146          1           0       23.826669    5.533889   -3.042850
    147          1           0       23.226771    5.215275    1.556823
    148          1           0       22.092548    6.270440    0.617898
    149          1           0       24.880280    6.978522    0.120413
    150          1           0       24.525815    6.932046    1.848865
    151          1           0       23.619578    8.023088    0.878808
    152          1           0       26.505595    3.297121    2.998588
    153          1           0       27.664616    2.049366    2.711516
    154          1           0       26.498423    1.911005    4.174667
    155          1           0       24.525851   -2.666755    3.763764
    156          1           0       26.793593   -5.581299    1.091761
    157          1           0       26.165712   -6.592468    2.400520
    158          1           0       27.494263   -5.453826    2.658701
 ---------------------------------------------------------------------

 SCF Done:  E(RPBE1PBE) =  -4067.37102791     A.U. after   16 cycles

 Excitation energies and oscillator strengths:

 Excited State   1:      Singlet-A      1.8791 eV  659.82 nm  f=0.3804  <S**2>=0.000
     309 -> 315       -0.16674
     311 -> 313        0.69051
     311 <- 313       -0.10563
 This state for optimization and/or second-order correction.
 Total Energy, E(TD-HF/TD-DFT) =  -4067.30197376
 Copying the excited state density for this state as the 1-particle RhoCI density.

 Excited State   2:      Singlet-A      1.8950 eV  654.26 nm  f=0.3707  <S**2>=0.000
     310 -> 316        0.18688
     312 -> 314        0.68789

 Excited State   3:      Singlet-A      1.8961 eV  653.90 nm  f=0.0000  <S**2>=0.000
     312 -> 313        0.70711

 Excited State   4:      Singlet-A      2.1724 eV  570.72 nm  f=0.0000  <S**2>=0.000
     311 -> 314        0.70711

 Excited State   5:      Singlet-A      2.2581 eV  549.06 nm  f=0.0647  <S**2>=0.000
     310 -> 314        0.63632
     312 -> 316       -0.29840

 The electronic state is 1-A.
 Alpha  occ. eigenvalues --  -46.92594 -46.91386 -19.26306 -19.24643 -19.19954
 Alpha  occ. eigenvalues --  -19.19739 -19.19675 -19.18668 -19.18117 -19.18013
 Alpha  occ. eigenvalues --  -14.41459 -14.41390 -14.41202 -14.40590 -14.39647
 Alpha  occ. eigenvalues --  -14.39563 -14.38974 -14.38518 -10.36644 -10.35347
 Alpha  occ. eigenvalues --  -10.33160 -10.32924 -10.30851 -10.30548 -10.29421
 Alpha  occ. eigenvalues --  -10.29421 -10.28660 -10.28342 -10.28317 -10.28261
 Alpha  occ. eigenvalues --  -10.28114 -10.28105 -10.27952 -10.27924 -10.27855
 Alpha  occ. eigenvalues --  -10.27816 -10.27809 -10.27543 -10.26956 -10.26885
 Alpha  occ. eigenvalues --  -10.26755 -10.26571 -10.26444 -10.26318 -10.26292
 Alpha  occ. eigenvalues --  -10.26213 -10.26154 -10.25965 -10.25837 -10.25764
 Alpha  occ. eigenvalues --  -10.25724 -10.25604 -10.25592 -10.25515 -10.25447
 Alpha  occ. eigenvalues --  -10.25436 -10.25302 -10.25264 -10.25197 -10.25157
 Alpha  occ. eigenvalues --  -10.25062 -10.25036 -10.24963 -10.24842 -10.24515
 Alpha  occ. eigenvalues --  -10.24456 -10.24372 -10.24109 -10.24061 -10.24003
 Alpha  occ. eigenvalues --  -10.23969 -10.23911 -10.23783 -10.23679 -10.23660
 Alpha  occ. eigenvalues --  -10.23642 -10.23545 -10.23509 -10.23492 -10.23172
 Alpha  occ. eigenvalues --  -10.23159 -10.23155 -10.22755 -10.22676 -10.22213
 Alpha  occ. eigenvalues --  -10.22045  -3.14700  -3.13813  -1.87531  -1.87068
 Alpha  occ. eigenvalues --   -1.86935  -1.86621  -1.86203  -1.86070  -1.10360
 Alpha  occ. eigenvalues --   -1.09687  -1.06103  -1.05049  -1.03945  -1.02763
 Alpha  occ. eigenvalues --   -1.01388  -1.00809  -1.00346  -1.00168  -0.99303
 Alpha  occ. eigenvalues --   -0.99054  -0.98867  -0.98579  -0.97810  -0.97687
 Alpha  occ. eigenvalues --   -0.86846  -0.85681  -0.84240  -0.83820  -0.83012
 Alpha  occ. eigenvalues --   -0.82719  -0.82496  -0.82302  -0.82274  -0.81845
 Alpha  occ. eigenvalues --   -0.81792  -0.81482  -0.81322  -0.81044  -0.78663
 Alpha  occ. eigenvalues --   -0.78479  -0.77924  -0.77612  -0.76901  -0.76747
 Alpha  occ. eigenvalues --   -0.76514  -0.76405  -0.75430  -0.75410  -0.74854
 Alpha  occ. eigenvalues --   -0.74433  -0.73239  -0.72875  -0.71884  -0.71850
 Alpha  occ. eigenvalues --   -0.71345  -0.71051  -0.70409  -0.70058  -0.69713
 Alpha  occ. eigenvalues --   -0.69573  -0.67181  -0.67117  -0.66157  -0.66142
 Alpha  occ. eigenvalues --   -0.64026  -0.63793  -0.63464  -0.63461  -0.62661
 Alpha  occ. eigenvalues --   -0.62224  -0.62000  -0.61689  -0.60307  -0.59866
 Alpha  occ. eigenvalues --   -0.59506  -0.59475  -0.59283  -0.58932  -0.58445
 Alpha  occ. eigenvalues --   -0.58368  -0.57223  -0.56382  -0.55571  -0.55247
 Alpha  occ. eigenvalues --   -0.54247  -0.53948  -0.53839  -0.53488  -0.53275
 Alpha  occ. eigenvalues --   -0.52630  -0.52605  -0.52407  -0.52155  -0.51891
 Alpha  occ. eigenvalues --   -0.50910  -0.50867  -0.50247  -0.49901  -0.49677
 Alpha  occ. eigenvalues --   -0.49656  -0.49204  -0.49127  -0.48756  -0.48656
 Alpha  occ. eigenvalues --   -0.48321  -0.48244  -0.48014  -0.47844  -0.47333
 Alpha  occ. eigenvalues --   -0.47159  -0.47100  -0.47071  -0.46916  -0.46859
 Alpha  occ. eigenvalues --   -0.46786  -0.46390  -0.46179  -0.45854  -0.45775
 Alpha  occ. eigenvalues --   -0.45677  -0.45344  -0.45274  -0.45034  -0.45009
 Alpha  occ. eigenvalues --   -0.44873  -0.44591  -0.44394  -0.44230  -0.44030
 Alpha  occ. eigenvalues --   -0.43978  -0.43959  -0.43759  -0.43622  -0.43573
 Alpha  occ. eigenvalues --   -0.43439  -0.43211  -0.43181  -0.42871  -0.42753
 Alpha  occ. eigenvalues --   -0.42690  -0.42474  -0.42419  -0.42303  -0.41961
 Alpha  occ. eigenvalues --   -0.41883  -0.41521  -0.41481  -0.41375  -0.41272
 Alpha  occ. eigenvalues --   -0.41186  -0.40916  -0.40683  -0.40554  -0.40283
 Alpha  occ. eigenvalues --   -0.40079  -0.39723  -0.39698  -0.39570  -0.39306
 Alpha  occ. eigenvalues --   -0.39287  -0.39151  -0.38906  -0.38868  -0.38814
 Alpha  occ. eigenvalues --   -0.38743  -0.38684  -0.38646  -0.38381  -0.38141
 Alpha  occ. eigenvalues --   -0.37965  -0.37779  -0.37772  -0.37713  -0.37690
 Alpha  occ. eigenvalues --   -0.37240  -0.37091  -0.37019  -0.36862  -0.36811
 Alpha  occ. eigenvalues --   -0.36792  -0.36752  -0.36452  -0.36394  -0.36118
 Alpha  occ. eigenvalues --   -0.35966  -0.35951  -0.35696  -0.35666  -0.35445
 Alpha  occ. eigenvalues --   -0.35407  -0.34515  -0.34237  -0.34184  -0.34021
 Alpha  occ. eigenvalues --   -0.33497  -0.33249  -0.33214  -0.32887  -0.32103
 Alpha  occ. eigenvalues --   -0.32102  -0.31680  -0.31533  -0.31407  -0.31219
 Alpha  occ. eigenvalues --   -0.31034  -0.30145  -0.29608  -0.29515  -0.29150
 Alpha  occ. eigenvalues --   -0.28758  -0.28689  -0.27896  -0.27710  -0.26793
 Alpha  occ. eigenvalues --   -0.26639  -0.26383  -0.26163  -0.26156  -0.25554
 Alpha  occ. eigenvalues --   -0.25379  -0.25150  -0.24808  -0.20874  -0.20701
 Alpha  occ. eigenvalues --   -0.18745  -0.18303
 Alpha virt. eigenvalues --   -0.11044  -0.10472  -0.05348  -0.05254  -0.03958
 Alpha virt. eigenvalues --   -0.03600  -0.01895  -0.01891  -0.00856  -0.00086
 Alpha virt. eigenvalues --    0.00771   0.00916   0.00934   0.01635   0.02021

 Mulliken charges:
               1
     1  Mg  12.000012
     2  C    5.999418
     3  C    6.000146
     4  C    6.000579
     5  C    5.999949
     6  N    6.999757
     7  C    6.000807
     8  C    5.999705
     9  C    6.000245
    10  C    5.999268
    11  C    6.000073
    12  C    5.999937
    13  C    5.999969
    14  H    1.000039
    15  N    7.000102
    16  C    5.999331
    17  C    5.999484
    18  C    5.999661
    19  C    5.999293
    20  C    6.000084
    21  C    5.999669
    22  O    7.999409
    23  C    6.000138
    24  N    7.000097
    25  C    5.999246
    26  C    6.000150
    27  C    5.999867
    28  C    6.000600
    29  C    6.000014
    30  C    5.999803
    31  C    5.999871
    32  N    7.000021
    33  C    6.000631
    34  C    6.000692
    35  C    6.000047
    36  C    6.000571
    37  C    5.999897
    38  C    6.000419
    39  O    8.000735
    40  C    6.000046
    41  C    6.000067
    42  O    8.000142
    43  O    8.000032
    44  C    5.999932
    45  H    0.999721
    46  H    0.999866
    47  H    1.000280
    48  H    1.000012
    49  H    0.999982
    50  H    0.999957
    51  H    0.999969
    52  H    0.999704
    53  H    1.000215
    54  H    0.999922
    55  H    1.000096
    56  H    0.999941
    57  H    0.999553
    58  H    0.999620
    59  H    0.999721
    60  H    0.999871
    61  H    0.999850
    62  H    0.999647
    63  H    1.000078
    64  H    1.000020
    65  H    1.000059
    66  H    0.999767
    67  H    0.999964
    68  H    1.000239
    69  H    0.999956
    70  H    1.000265
    71  H    1.000157
    72  H    0.999958
    73  H    1.000425
    74  H    1.000440
    75  H    1.000353
    76  H    1.000196
    77  H    1.000101
    78  H    1.000007
    79  H    1.000134
    80  Mg  12.000901
    81  C    5.984150
    82  C    6.022576
    83  C    6.003768
    84  C    5.991032
    85  N    6.999974
    86  C    6.030147
    87  C    5.993245
    88  C    6.009606
    89  C    5.967091
    90  C    6.001282
    91  C    5.994564
    92  C    6.001706
    93  H    0.999621
    94  N    7.001289
    95  C    5.959230
    96  C    5.979777
    97  C    5.984293
    98  C    5.974871
    99  C    6.003220
   100  C    5.986381
   101  O    7.974983
   102  C    6.006553
   103  N    6.997987
   104  C    5.968478
   105  C    6.010512
   106  C    5.988073
   107  C    6.033177
   108  C    6.001791
   109  C    6.000150
   110  C    5.999673
   111  N    6.999439
   112  C    6.035709
   113  C    6.026044
   114  C    6.007958
   115  C    6.024952
   116  C    5.999090
   117  C    6.015714
   118  O    8.034039
   119  C    5.997686
   120  C    6.005721
   121  O    8.002452
   122  O    8.001935
   123  C    5.999043
   124  H    0.995675
   125  H    0.991940
   126  H    1.011215
   127  H    0.999677
   128  H    0.998882
   129  H    1.001424
   130  H    0.990185
   131  H    1.002043
   132  H    1.003592
   133  H    0.994372
   134  H    1.006398
   135  H    1.001867
   136  H    0.980594
   137  H    0.982361
   138  H    0.981779
   139  H    0.994824
   140  H    0.990759
   141  H    0.985715
   142  H    0.999967
   143  H    0.999868
   144  H    0.995522
   145  H    1.006545
   146  H    0.990235
   147  H    0.994538
   148  H    1.011006
   149  H    1.001740
   150  H    0.996896
   151  H    1.005250
   152  H    1.016337
   153  H    1.016336
   154  H    1.011755
   155  H    1.009000
   156  H    1.004796
   157  H    1.005846
   158  H    1.001178
 Sum of Mulliken charges = 624.00000

 Dipole moment (field-independent basis, Debye):
    X=              7.7815    Y=             -0.1205    Z=              6.7974  Tot=             10.3330
 Quadrupole moment (field-independent basis, Debye-Ang):
   XX=            342.4301   YY=              3.2122   ZZ=             -5.6923
   XY=              2.3982   XZ=            158.8293   YZ=              3.7105

 Normal termination of Gaussian 16 at Wed Oct 13 21:22:34 2021.
