 Gaussian 16, Revision A.03,
 Gaussian 16:  ES64L-G16RevA.03 25-Dec-2016

 --------------------------------------------------------
 #p PBE1PBE/Def2SVP td=(nstates=5) density=(transition=1)
 --------------------------------------------------------

 --------------------------------
 TDDFT excited states in gaussian
 --------------------------------
 Symbolic Z-matrix:
 Charge =  0 Multiplicity = 1

                         Standard orientation:
 ---------------------------------------------------------------------
 Center     Atomic      Atomic             Coordinates (Angstroms)
 Number     Number       Type             X           Y           Z
 ---------------------------------------------------------------------
      1         12           0       -9.482626   -0.972824    0.508231
      2          6           0       -9.979903    2.502664   -0.079792
      3          6           0       -7.548096   -0.148687    3.228704
      4          6           0       -9.080386   -4.233764    0.859443
      5          6           0      -11.093058   -1.671103   -2.628366
      6          7           0       -8.752235    1.017335    1.467734
      7          6           0       -9.205929    2.260856    1.067571
      8          6           0       -8.606922    3.290333    2.086117
      9          6           0       -7.761972    2.422803    3.163355
     10          6           0       -8.021253    1.029358    2.581656
     11          6           0       -6.285301    2.827516    3.353444
     12          6           0       -9.605266    4.350245    2.711164
     13          6           0       -9.257633    5.790878    2.472462
     14          1           0       -7.851058    6.287348    2.265420
     15          7           0       -8.514586   -2.095369    1.996611
     16          6           0       -7.778360   -1.559751    3.006007
     17          6           0       -7.431204   -2.660935    3.867069
     18          6           0       -7.764309   -3.840111    3.166207
     19          6           0       -8.479098   -3.460665    1.904289
     20          6           0       -6.668809   -2.402445    5.177564
     21          6           0       -7.367531   -5.242486    3.515617
     22          8           0       -7.620416   -6.205274    2.753162
     23          6           0       -6.607102   -5.493587    4.764672
     24          7           0       -9.989860   -2.691939   -0.805357
     25          6           0       -9.783390   -3.889679   -0.380595
     26          6           0      -10.338450   -5.102148   -1.302005
     27          6           0      -10.961079   -4.255593   -2.422643
     28          6           0      -10.693377   -2.841446   -1.968876
     29          6           0       -9.140709   -6.022773   -1.739049
     30          6           0      -12.481964   -4.492125   -2.727993
     31          6           0      -13.489012   -3.958299   -1.681757
     32          7           0      -10.216927    0.139566   -1.042378
     33          6           0      -10.809643   -0.306800   -2.246979
     34          6           0      -11.308468    0.873445   -2.965952
     35          6           0      -11.011930    1.990518   -2.148595
     36          6           0      -10.381313    1.488084   -0.960489
     37          6           0      -12.053053    0.850573   -4.334410
     38          6           0      -11.157306    3.347924   -2.095213
     39          8           0      -11.606160    4.153189   -2.885320
     40          6           0      -10.559567    3.793209   -0.731356
     41          6           0       -9.575946    4.822330   -0.977375
     42          8           0       -8.381402    4.613882   -1.217768
     43          8           0      -10.215521    6.057361   -1.137034
     44          6           0       -9.321602    7.155084   -1.582003
     45          1           0       -6.730221   -0.026716    3.942443
     46          1           0       -8.798363   -5.287778    0.905689
     47          1           0      -11.593280   -1.827521   -3.586317
     48          1           0       -8.022593    3.878674    1.379827
     49          1           0       -8.190260    2.580060    4.152276
     50          1           0       -6.077899    3.047152    4.401530
     51          1           0       -5.921476    3.657348    2.747784
     52          1           0       -5.731883    1.940601    3.044871
     53          1           0       -9.702683    4.183262    3.784063
     54          1           0      -10.555589    4.180162    2.205080
     55          1           0       -9.405802    6.302100    3.424336
     56          1           0       -9.895152    6.157697    1.668806
     57          1           0       -6.725710   -1.358528    5.486802
     58          1           0       -5.624419   -2.687069    5.056357
     59          1           0       -7.163892   -3.041264    5.908230
     60          1           0       -7.214622   -5.112717    5.585645
     61          1           0       -5.668930   -4.937506    4.778092
     62          1           0       -6.343944   -6.547196    4.849153
     63          1           0      -11.102433   -5.679353   -0.780589
     64          1           0      -10.339498   -4.321537   -3.315903
     65          1           0       -8.246446   -5.401633   -1.789068
     66          1           0       -9.343567   -6.385908   -2.747179
     67          1           0       -8.907701   -6.888753   -1.118927
     68          1           0      -12.644625   -5.532684   -3.007061
     69          1           0      -12.701021   -4.006046   -3.678185
     70          1           0      -13.164198   -3.960224   -0.641818
     71          1           0      -14.433384   -4.485246   -1.822721
     72          1           0      -13.695661   -2.933854   -1.991060
     73          1           0      -12.976982    1.428964   -4.329460
     74          1           0      -12.258284   -0.156088   -4.696824
     75          1           0      -11.514705    1.484373   -5.039543
     76          1           0      -11.437616    4.203958   -0.234028
     77          1           0       -9.000581    6.994528   -2.610894
     78          1           0       -8.398387    7.245055   -1.010719
     79          1           0       -9.837304    8.085036   -1.341923
     80         12           0        9.723872   -0.575723   -0.161592
     81          6           0        7.886063    2.448186   -0.232106
     82          6           0       12.415502    1.195582    0.841836
     83          6           0       11.409075   -3.381252   -0.247637
     84          6           0        6.987841   -2.087271   -1.921480
     85          7           0       10.169505    1.636200    0.174128
     86          6           0        9.176837    2.590882    0.318928
     87          6           0        9.803750    3.768058    0.984549
     88          6           0       11.307818    3.566568    0.797467
     89          6           0       11.356164    2.029164    0.612668
     90          6           0       11.816235    4.297604   -0.501304
     91          6           0        9.423461    4.014827    2.542455
     92          6           0        9.125579    5.453444    3.065432
     93          1           0       10.157748    6.559268    2.700410
     94          7           0       11.687213   -0.996703    0.244755
     95          6           0       12.589810   -0.151168    0.646583
     96          6           0       13.865610   -0.873077    0.793118
     97          6           0       13.576245   -2.267716    0.693145
     98          6           0       12.174730   -2.273550    0.185828
     99          6           0       15.299679   -0.288968    1.064541
    100          6           0       14.424941   -3.505736    0.981044
    101          8           0       14.069067   -4.673339    0.731618
    102          6           0       15.810960   -3.315209    1.379929
    103          7           0        9.278772   -2.462439   -1.160501
    104          6           0       10.142493   -3.529065   -0.925819
    105          6           0        9.449949   -4.861903   -1.407663
    106          6           0        8.020369   -4.402310   -1.787990
    107          6           0        8.067067   -2.887246   -1.577507
    108          6           0       10.256430   -5.602466   -2.474776
    109          6           0        6.854312   -5.142725   -1.085910
    110          6           0        5.599095   -5.471596   -1.927356
    111          7           0        7.831608    0.004037   -0.949973
    112          6           0        6.863321   -0.685331   -1.673083
    113          6           0        5.705952    0.161519   -1.812014
    114          6           0        6.085756    1.409054   -1.314672
    115          6           0        7.396045    1.291376   -0.774377
    116          6           0        4.449256   -0.199192   -2.322773
    117          6           0        5.642029    2.782648   -1.034771
    118          8           0        4.583211    3.364235   -1.210961
    119          6           0        6.809795    3.505690   -0.287165
    120          6           0        7.159060    4.746465   -1.089494
    121          8           0        7.862735    4.942835   -2.054318
    122          8           0        6.535660    5.725836   -0.371603
    123          6           0        6.920117    7.131399   -0.643759
    124          1           0       13.269761    1.739836    1.250799
    125          1           0       11.934616   -4.321057   -0.066258
    126          1           0        6.070651   -2.580493   -2.248630
    127          1           0        9.559948    4.742797    0.561271
    128          1           0       11.874977    3.760717    1.707491
    129          1           0       12.836816    4.671556   -0.426887
    130          1           0       11.270259    5.215662   -0.719892
    131          1           0       11.794992    3.533456   -1.277549
    132          1           0       10.158596    3.518077    3.174778
    133          1           0        8.533058    3.437824    2.794904
    134          1           0        9.212107    5.325441    4.145037
    135          1           0        8.124659    5.626389    2.669950
    136          1           0       15.716059   -0.510768    2.046895
    137          1           0       15.228532    0.792063    0.941254
    138          1           0       16.093735   -0.697658    0.439546
    139          1           0       15.879787   -2.661904    2.250131
    140          1           0       16.395376   -2.895066    0.561272
    141          1           0       16.159695   -4.271186    1.769336
    142          1           0        9.312682   -5.466894   -0.511298
    143          1           0        7.883375   -4.432673   -2.868747
    144          1           0        9.957029   -5.243529   -3.460023
    145          1           0       10.068038   -6.674507   -2.522950
    146          1           0       11.291816   -5.265997   -2.432622
    147          1           0        6.531713   -4.679852   -0.153419
    148          1           0        7.188468   -6.098843   -0.680836
    149          1           0        4.901622   -4.669375   -1.685931
    150          1           0        5.212521   -6.395607   -1.496198
    151          1           0        5.854206   -5.505618   -2.986181
    152          1           0        3.780816    0.565498   -2.717778
    153          1           0        3.953865   -0.783924   -1.547035
    154          1           0        4.661575   -0.833354   -3.182746
    155          1           0        6.500965    3.764142    0.725548
    156          1           0        7.011602    7.585639    0.342432
    157          1           0        6.204070    7.725843   -1.210655
    158          1           0        7.893204    7.162694   -1.133181
 ---------------------------------------------------------------------

 SCF Done:  E(RPBE1PBE) =  -4067.37070697     A.U. after   16 cycles

 Excitation energies and oscillator strengths:

 Excited State   1:      Singlet-A      1.8670 eV  664.08 nm  f=0.3815  <S**2>=0.000
     310 -> 316        0.18683
     311 -> 313        0.68738
 This state for optimization and/or second-order correction.
 Total Energy, E(TD-HF/TD-DFT) =  -4067.30209591
 Copying the excited state density for this state as the 1-particle RhoCI density.

 Excited State   2:      Singlet-A      1.8817 eV  658.88 nm  f=0.0000  <S**2>=0.000
     312 -> 313        0.70709

 Excited State   3:      Singlet-A      1.8849 eV  657.79 nm  f=0.3630  <S**2>=0.000
     309 -> 315        0.17635
     312 -> 314        0.68813

 Excited State   4:      Singlet-A      1.9843 eV  624.82 nm  f=0.0000  <S**2>=0.000
     311 -> 314        0.70706

 Excited State   5:      Singlet-A      2.2061 eV  562.01 nm  f=0.0992  <S**2>=0.000
     310 -> 313        0.65408
     311 -> 316       -0.25813

 The electronic state is 1-A.
 Alpha  occ. eigenvalues --  -46.93126 -46.92725 -19.25031 -19.24892 -19.20224
 Alpha  occ. eigenvalues --  -19.19484 -19.19400 -19.18889 -19.18650 -19.18049
 Alpha  occ. eigenvalues --  -14.41989 -14.41351 -14.41286 -14.40905 -14.39454
 Alpha  occ. eigenvalues --  -14.39412 -14.39226 -14.38645 -10.36216 -10.35570
 Alpha  occ. eigenvalues --  -10.32550 -10.31963 -10.31841 -10.30599 -10.29427
 Alpha  occ. eigenvalues --  -10.29363 -10.29086 -10.28936 -10.28735 -10.28662
 Alpha  occ. eigenvalues --  -10.28554 -10.28372 -10.28159 -10.28094 -10.28090
 Alpha  occ. eigenvalues --  -10.27998 -10.27959 -10.27687 -10.27535 -10.27377
 Alpha  occ. eigenvalues --  -10.27324 -10.27055 -10.26678 -10.26554 -10.26517
 Alpha  occ. eigenvalues --  -10.26092 -10.26028 -10.25936 -10.25915 -10.25894
 Alpha  occ. eigenvalues --  -10.25679 -10.25530 -10.25415 -10.25371 -10.25363
 Alpha  occ. eigenvalues --  -10.25341 -10.25329 -10.25243 -10.25236 -10.25211
 Alpha  occ. eigenvalues --  -10.25144 -10.25082 -10.25037 -10.24993 -10.24937
 Alpha  occ. eigenvalues --  -10.24882 -10.24846 -10.24814 -10.24489 -10.24353
 Alpha  occ. eigenvalues --  -10.24194 -10.24127 -10.24007 -10.23760 -10.23712
 Alpha  occ. eigenvalues --  -10.23599 -10.23358 -10.23290 -10.23287 -10.23258
 Alpha  occ. eigenvalues --  -10.23238 -10.23170 -10.23067 -10.22649 -10.22552
 Alpha  occ. eigenvalues --  -10.21936  -3.15050  -3.14697  -1.87904  -1.87534
 Alpha  occ. eigenvalues --   -1.87458  -1.87229  -1.87072  -1.86910  -1.10862
 Alpha  occ. eigenvalues --   -1.09053  -1.04320  -1.04232  -1.03988  -1.02823
 Alpha  occ. eigenvalues --   -1.02574  -1.01088  -1.00673  -0.99768  -0.98541
 Alpha  occ. eigenvalues --   -0.98111  -0.97670  -0.97521  -0.96731  -0.96523
 Alpha  occ. eigenvalues --   -0.87128  -0.86787  -0.84006  -0.83161  -0.82758
 Alpha  occ. eigenvalues --   -0.82315  -0.82278  -0.81950  -0.81876  -0.81332
 Alpha  occ. eigenvalues --   -0.81319  -0.81152  -0.81042  -0.79863  -0.78495
 Alpha  occ. eigenvalues --   -0.78476  -0.77864  -0.77631  -0.76960  -0.76757
 Alpha  occ. eigenvalues --   -0.76569  -0.76168  -0.75822  -0.74962  -0.74955
 Alpha  occ. eigenvalues --   -0.74322  -0.72634  -0.72380  -0.71827  -0.71729
 Alpha  occ. eigenvalues --   -0.71326  -0.70698  -0.70146  -0.70002  -0.69449
 Alpha  occ. eigenvalues --   -0.69241  -0.67004  -0.66965  -0.66250  -0.65916
 Alpha  occ. eigenvalues --   -0.64735  -0.63467  -0.63207  -0.63091  -0.62184
 Alpha  occ. eigenvalues --   -0.62171  -0.61713  -0.61155  -0.59951  -0.59820
 Alpha  occ. eigenvalues --   -0.59734  -0.59423  -0.59355  -0.59034  -0.58881
 Alpha  occ. eigenvalues --   -0.58703  -0.56508  -0.55998  -0.54971  -0.54536
 Alpha  occ. eigenvalues --   -0.54114  -0.54049  -0.53806  -0.53190  -0.52927
 Alpha  occ. eigenvalues --   -0.52635  -0.52368  -0.52367  -0.52055  -0.52055
 Alpha  occ. eigenvalues --   -0.50771  -0.50728  -0.50490  -0.50419  -0.49793
 Alpha  occ. eigenvalues --   -0.49708  -0.49367  -0.48989  -0.48254  -0.48106
 Alpha  occ. eigenvalues --   -0.48076  -0.47795  -0.47616  -0.47561  -0.47471
 Alpha  occ. eigenvalues --   -0.47382  -0.47240  -0.47141  -0.46978  -0.46658
 Alpha  occ. eigenvalues --   -0.46528  -0.46233  -0.46102  -0.46037  -0.45851
 Alpha  occ. eigenvalues --   -0.45751  -0.45434  -0.45368  -0.44937  -0.44783
 Alpha  occ. eigenvalues --   -0.44587  -0.44392  -0.44132  -0.44045  -0.43919
 Alpha  occ. eigenvalues --   -0.43773  -0.43707  -0.43545  -0.43440  -0.43415
 Alpha  occ. eigenvalues --   -0.43271  -0.43166  -0.42840  -0.42585  -0.42431
 Alpha  occ. eigenvalues --   -0.42330  -0.42095  -0.42069  -0.41925  -0.41779
 Alpha  occ. eigenvalues --   -0.41445  -0.41369  -0.41341  -0.41241  -0.41165
 Alpha  occ. eigenvalues --   -0.40979  -0.40833  -0.40616  -0.40541  -0.40295
 Alpha  occ. eigenvalues --   -0.40219  -0.39741  -0.39713  -0.39625  -0.39459
 Alpha  occ. eigenvalues --   -0.39390  -0.39163  -0.39040  -0.38782  -0.38620
 Alpha  occ. eigenvalues --   -0.38582  -0.38406  -0.38362  -0.38003  -0.37924
 Alpha  occ. eigenvalues --   -0.37804  -0.37761  -0.37559  -0.37519  -0.37317
 Alpha  occ. eigenvalues --   -0.37163  -0.37146  -0.36986  -0.36666  -0.36662
 Alpha  occ. eigenvalues --   -0.36589  -0.36454  -0.36357  -0.36155  -0.36102
 Alpha  occ. eigenvalues --   -0.35991  -0.35917  -0.35735  -0.35423  -0.35406
 Alpha  occ. eigenvalues --   -0.35076  -0.34970  -0.34719  -0.34581  -0.34574
 Alpha  occ. eigenvalues --   -0.33991  -0.33682  -0.32658  -0.32376  -0.31865
 Alpha  occ. eigenvalues --   -0.31636  -0.31611  -0.31424  -0.31361  -0.30967
 Alpha  occ. eigenvalues --   -0.30935  -0.30467  -0.29564  -0.29107  -0.29056
 Alpha  occ. eigenvalues --   -0.28597  -0.28579  -0.28351  -0.26875  -0.26789
 Alpha  occ. eigenvalues --   -0.26469  -0.25900  -0.25690  -0.25582  -0.25429
 Alpha  occ. eigenvalues --   -0.25323  -0.25102  -0.24923  -0.20892  -0.20640
 Alpha  occ. eigenvalues --   -0.18769  -0.18607
 Alpha virt. eigenvalues --   -0.10993  -0.10794  -0.05543  -0.05196  -0.04243
 Alpha virt. eigenvalues --   -0.03969  -0.02127  -0.02006  -0.00879  -0.00104
 Alpha virt. eigenvalues --    0.00467   0.01127   0.01292   0.01553   0.01571

 Mulliken charges:
               1
     1  Mg  11.999501
     2  C    5.990581
     3  C    6.015883
     4  C    6.000762
     5  C    5.984019
     6  N    6.997100
     7  C    6.021842
     8  C    5.993385
     9  C    6.015671
    10  C    5.966113
    11  C    5.999337
    12  C    5.998649
    13  C    5.997935
    14  H    1.004655
    15  N    7.012833
    16  C    5.960752
    17  C    5.982487
    18  C    5.985068
    19  C    5.973746
    20  C    6.001029
    21  C    5.987593
    22  O    7.971385
    23  C    6.004096
    24  N    6.990442
    25  C    5.974026
    26  C    6.006721
    27  C    5.992117
    28  C    6.038602
    29  C    6.004265
    30  C    5.995931
    31  C    5.996874
    32  N    6.998755
    33  C    6.042382
    34  C    6.026036
    35  C    6.001750
    36  C    6.025943
    37  C    5.999041
    38  C    6.014550
    39  O    8.027943
    40  C    6.000995
    41  C    6.004714
    42  O    8.008730
    43  O    7.999689
    44  C    5.997335
    45  H    0.995414
    46  H    0.993055
    47  H    1.007602
    48  H    0.997357
    49  H    0.996258
    50  H    0.998041
    51  H    0.990004
    52  H    1.003319
    53  H    1.007851
    54  H    0.994785
    55  H    1.003855
    56  H    0.995260
    57  H    0.984067
    58  H    0.983495
    59  H    0.986474
    60  H    0.992978
    61  H    0.992977
    62  H    0.986235
    63  H    0.999735
    64  H    1.001841
    65  H    1.000338
    66  H    0.989639
    67  H    1.004061
    68  H    1.008924
    69  H    0.997031
    70  H    1.010649
    71  H    1.004591
    72  H    0.992078
    73  H    1.017266
    74  H    1.017143
    75  H    1.016849
    76  H    1.007500
    77  H    1.001061
    78  H    1.006035
    79  H    1.004970
    80  Mg  12.000344
    81  C    5.999315
    82  C    6.000441
    83  C    6.000593
    84  C    5.999779
    85  N    6.999868
    86  C    6.001085
    87  C    5.999604
    88  C    6.000166
    89  C    5.999053
    90  C    5.999992
    91  C    5.999807
    92  C    6.000057
    93  H    0.999796
    94  N    7.000229
    95  C    5.998773
    96  C    5.998972
    97  C    5.999681
    98  C    5.998881
    99  C    6.000089
   100  C    5.999502
   101  O    7.999120
   102  C    6.000164
   103  N    6.999867
   104  C    5.998785
   105  C    6.000353
   106  C    5.999694
   107  C    6.001088
   108  C    6.000149
   109  C    5.999589
   110  C    5.999863
   111  N    6.999886
   112  C    6.001196
   113  C    6.001103
   114  C    6.000007
   115  C    6.001218
   116  C    5.999927
   117  C    6.000729
   118  O    8.000667
   119  C    6.000085
   120  C    5.999960
   121  O    7.999915
   122  O    8.000185
   123  C    5.999987
   124  H    0.999632
   125  H    0.999813
   126  H    1.000535
   127  H    0.999878
   128  H    1.000060
   129  H    0.999900
   130  H    0.999383
   131  H    0.999924
   132  H    1.000581
   133  H    1.000282
   134  H    1.000276
   135  H    0.999806
   136  H    0.999299
   137  H    0.999262
   138  H    0.999239
   139  H    0.999827
   140  H    0.999575
   141  H    0.999503
   142  H    1.000249
   143  H    0.999730
   144  H    0.999474
   145  H    0.999877
   146  H    1.000045
   147  H    1.000634
   148  H    1.000544
   149  H    1.000226
   150  H    1.000768
   151  H    0.999560
   152  H    1.000038
   153  H    1.001819
   154  H    1.000245
   155  H    1.000528
   156  H    1.000223
   157  H    0.999622
   158  H    1.000076
 Sum of Mulliken charges = 624.00000

 Dipole moment (field-independent basis, Debye):
    X=             -4.7978    Y=              5.8338    Z=             -7.1208  Tot=             10.3806
 Quadrupole moment (field-independent basis, Debye-Ang):
   XX=             75.2496   YY=             -8.3668   ZZ=             -5.6722
   XY=            -48.1627   XZ=             63.4923   YZ=              9.5987

 Normal termination of Gaussian 16 at Thu Oct 14 11:35:25 2021.
