 Gaussian 16, Revision A.03,
 Gaussian 16:  ES64L-G16RevA.03 25-Dec-2016

 --------------------------------------------------------
 #p PBE1PBE/Def2SVP td=(nstates=5) density=(transition=1)
 --------------------------------------------------------

 --------------------------------
 TDDFT excited states in gaussian
 --------------------------------
 Symbolic Z-matrix:
 Charge =  0 Multiplicity = 1

                         Standard orientation:
 ---------------------------------------------------------------------
 Center     Atomic      Atomic             Coordinates (Angstroms)
 Number     Number       Type             X           Y           Z
 ---------------------------------------------------------------------
      1         12           0      -13.175012   -0.278537   -0.360456
      2          6           0       -9.902817    0.121940    0.923409
      3          6           0      -13.983801    2.828590    0.905757
      4          6           0      -16.374319   -0.810939   -1.341577
      5          6           0      -12.366944   -3.514467   -1.439895
      6          7           0      -12.027987    1.171670    0.857431
      7          6           0      -10.654616    1.241284    1.078899
      8          6           0      -10.247207    2.612286    1.758446
      9          6           0      -11.629273    3.287481    1.964653
     10          6           0      -12.645116    2.367641    1.250958
     11          6           0      -12.094459    3.591439    3.437861
     12          6           0       -9.111613    3.451415    1.041517
     13          6           0       -7.890247    3.711589    1.870336
     14          1           0       -7.206429    5.122492    1.674800
     15          7           0      -14.865336    0.856404   -0.206493
     16          6           0      -15.016942    2.139266    0.279332
     17          6           0      -16.412543    2.535030    0.172720
     18          6           0      -17.154317    1.509346   -0.478848
     19          6           0      -16.119695    0.440728   -0.734439
     20          6           0      -16.944744    3.931855    0.551281
     21          6           0      -18.623547    1.465578   -0.886211
     22          8           0      -19.122308    0.559176   -1.521072
     23          6           0      -19.654729    2.639518   -0.628305
     24          7           0      -14.249535   -1.991621   -1.187665
     25          6           0      -15.538570   -1.947871   -1.498079
     26          6           0      -16.034460   -3.289586   -2.146157
     27          6           0      -14.685091   -4.085275   -2.351858
     28          6           0      -13.673618   -3.138124   -1.638337
     29          6           0      -17.155369   -3.964681   -1.303981
     30          6           0      -14.409500   -4.376032   -3.813858
     31          6           0      -13.873329   -5.781610   -4.079558
     32          7           0      -11.562928   -1.588498   -0.203917
     33          6           0      -11.330052   -2.828425   -0.767393
     34          6           0      -10.035107   -3.255943   -0.335127
     35          6           0       -9.405144   -2.148859    0.285547
     36          6           0      -10.381706   -1.116979    0.362520
     37          6           0       -9.428166   -4.584549   -0.583746
     38          6           0       -8.132705   -1.650289    0.836025
     39          8           0       -7.063598   -2.196863    1.091297
     40          6           0       -8.466800   -0.021592    1.254815
     41          6           0       -8.189786    0.184896    2.642086
     42          8           0       -9.033283    0.284440    3.506594
     43          8           0       -6.844007    0.389750    2.846739
     44          6           0       -6.501548    0.552453    4.281644
     45          1           0      -14.248965    3.852247    1.178974
     46          1           0      -17.397558   -1.055145   -1.632715
     47          1           0      -12.175523   -4.493640   -1.885244
     48          1           0       -9.971933    2.331454    2.774467
     49          1           0      -11.669524    4.246309    1.447720
     50          1           0      -12.575089    4.569993    3.415454
     51          1           0      -11.218094    3.577328    4.085383
     52          1           0      -12.810632    2.874751    3.840289
     53          1           0       -9.588334    4.375527    0.714336
     54          1           0       -8.785465    2.865338    0.182137
     55          1           0       -7.123024    2.972595    1.635634
     56          1           0       -8.244057    3.571770    2.891401
     57          1           0      -17.242833    4.383998   -0.393997
     58          1           0      -16.111963    4.547289    0.892431
     59          1           0      -17.804802    3.947988    1.221866
     60          1           0      -19.255980    3.542670   -1.091533
     61          1           0      -20.005390    2.675513    0.403546
     62          1           0      -20.586114    2.280195   -1.064898
     63          1           0      -16.447202   -3.162318   -3.146730
     64          1           0      -14.774710   -4.982767   -1.739513
     65          1           0      -16.879217   -5.006646   -1.139792
     66          1           0      -18.149595   -3.852174   -1.737106
     67          1           0      -17.220169   -3.482817   -0.329801
     68          1           0      -13.722383   -3.654274   -4.254272
     69          1           0      -15.273182   -4.243455   -4.467302
     70          1           0      -13.609792   -6.289848   -3.151955
     71          1           0      -12.961698   -5.653208   -4.663794
     72          1           0      -14.534954   -6.366394   -4.718800
     73          1           0      -10.025554   -5.314628   -1.129747
     74          1           0       -8.971626   -4.888218    0.359075
     75          1           0       -8.710151   -4.373146   -1.376486
     76          1           0       -7.837284    0.634266    0.652758
     77          1           0       -6.792945   -0.340679    4.834810
     78          1           0       -6.982872    1.476432    4.601994
     79          1           0       -5.430597    0.652533    4.453768
     80         12           0       12.935680   -0.163599    0.079534
     81          6           0       11.217541    2.233449   -1.691349
     82          6           0       10.786209    0.103364    2.732064
     83          6           0       14.586527   -2.743776    1.779181
     84          6           0       14.605883   -1.115919   -2.789214
     85          7           0       11.072483    0.920749    0.311853
     86          6           0       10.609369    2.001838   -0.443039
     87          6           0        9.328266    2.591962    0.151775
     88          6           0        9.407597    1.985461    1.575811
     89          6           0       10.445517    0.844761    1.550290
     90          6           0        9.616984    3.048377    2.676471
     91          6           0        8.071800    2.174797   -0.637925
     92          6           0        6.991172    3.283349   -0.885100
     93          1           0        5.588180    2.821983   -0.960473
     94          7           0       12.740355   -1.107478    1.969941
     95          6           0       11.859697   -0.798984    2.949276
     96          6           0       12.171708   -1.425170    4.199055
     97          6           0       13.353603   -2.156676    3.996974
     98          6           0       13.640793   -2.005431    2.510510
     99          6           0       11.423621   -1.163234    5.507788
    100          6           0       14.142678   -2.998280    5.064361
    101          8           0       13.649928   -3.116184    6.215446
    102          6           0       15.571686   -3.641689    4.800560
    103          7           0       14.174934   -1.908101   -0.510169
    104          6           0       14.817519   -2.695467    0.386407
    105          6           0       15.898936   -3.537763   -0.240187
    106          6           0       15.895033   -3.073948   -1.712817
    107          6           0       14.866936   -1.940173   -1.681861
    108          6           0       17.286480   -3.461142    0.479045
    109          6           0       15.628825   -4.265292   -2.751326
    110          6           0       16.869695   -4.732248   -3.521083
    111          7           0       12.985906    0.444311   -1.843124
    112          6           0       13.740996    0.001472   -2.951409
    113          6           0       13.585235    0.956976   -4.056078
    114          6           0       12.667181    1.869969   -3.556114
    115          6           0       12.266766    1.426967   -2.284776
    116          6           0       14.205910    0.970644   -5.407083
    117          6           0       11.911875    3.083868   -3.897363
    118          8           0       12.037297    3.903559   -4.822039
    119          6           0       10.962849    3.399645   -2.672566
    120          6           0       11.284174    4.754569   -2.056257
    121          8           0       12.397771    5.215326   -1.786094
    122          8           0       10.062939    5.350169   -1.945203
    123          6           0       10.056301    6.746647   -1.542781
    124          1           0       10.111300    0.183462    3.586671
    125          1           0       15.228394   -3.508922    2.220909
    126          1           0       15.108640   -1.357667   -3.727780
    127          1           0        9.384261    3.680841    0.131473
    128          1           0        8.414878    1.559089    1.719760
    129          1           0        9.354795    4.087333    2.476772
    130          1           0       10.692126    3.075119    2.853190
    131          1           0        9.091436    2.796889    3.597397
    132          1           0        7.586802    1.290402   -0.225631
    133          1           0        8.454283    1.758779   -1.570297
    134          1           0        7.228003    3.806912   -1.811285
    135          1           0        7.009176    3.975169   -0.041824
    136          1           0       12.179911   -0.815399    6.211084
    137          1           0       10.797657   -2.021787    5.751314
    138          1           0       10.794624   -0.300137    5.289966
    139          1           0       15.384932   -4.601761    4.320861
    140          1           0       16.018438   -3.797652    5.782214
    141          1           0       16.171331   -2.865573    4.324216
    142          1           0       15.586339   -4.580458   -0.182426
    143          1           0       16.766992   -2.511864   -2.046440
    144          1           0       18.101072   -3.334251   -0.233474
    145          1           0       17.501560   -4.350290    1.071432
    146          1           0       17.258527   -2.662722    1.219411
    147          1           0       14.932172   -3.982216   -3.540297
    148          1           0       15.138293   -5.097403   -2.246400
    149          1           0       16.847481   -5.816726   -3.629830
    150          1           0       17.769249   -4.446825   -2.976131
    151          1           0       16.961840   -4.298585   -4.516677
    152          1           0       14.935069    0.161019   -5.438324
    153          1           0       14.497178    1.987150   -5.672361
    154          1           0       13.427229    0.639389   -6.094962
    155          1           0        9.907215    3.348055   -2.940494
    156          1           0       10.729670    6.971541   -0.714703
    157          1           0        9.092073    7.183402   -1.282832
    158          1           0       10.368430    7.370770   -2.380518
 ---------------------------------------------------------------------

 SCF Done:  E(RPBE1PBE) =  -4067.39252706     A.U. after   16 cycles

 Excitation energies and oscillator strengths:

 Excited State   1:      Singlet-A      1.8385 eV  674.36 nm  f=0.3494  <S**2>=0.000
     309 -> 315        0.16789
     312 -> 314        0.69260
     312 <- 314       -0.10464
 This state for optimization and/or second-order correction.
 Total Energy, E(TD-HF/TD-DFT) =  -4067.32496223
 Copying the excited state density for this state as the 1-particle RhoCI density.

 Excited State   2:      Singlet-A      1.8744 eV  661.47 nm  f=0.3665  <S**2>=0.000
     310 -> 316        0.17475
     311 -> 313        0.69049

 Excited State   3:      Singlet-A      1.9218 eV  645.16 nm  f=0.0000  <S**2>=0.000
     312 -> 313        0.70709

 Excited State   4:      Singlet-A      1.9911 eV  622.69 nm  f=0.0000  <S**2>=0.000
     311 -> 314        0.70710

 Excited State   5:      Singlet-A      2.2415 eV  553.12 nm  f=0.1013  <S**2>=0.000
     309 -> 314        0.62936
     310 -> 313       -0.12259
     312 -> 315       -0.27768

 The electronic state is 1-A.
 Alpha  occ. eigenvalues --  -46.92517 -46.91684 -19.27024 -19.25051 -19.20527
 Alpha  occ. eigenvalues --  -19.20004 -19.19777 -19.19639 -19.19541 -19.18853
 Alpha  occ. eigenvalues --  -14.41934 -14.41828 -14.41579 -14.41259 -14.39904
 Alpha  occ. eigenvalues --  -14.39659 -14.38825 -14.38682 -10.36997 -10.35369
 Alpha  occ. eigenvalues --  -10.33639 -10.33487 -10.33267 -10.32059 -10.29980
 Alpha  occ. eigenvalues --  -10.29656 -10.29341 -10.29258 -10.28949 -10.28949
 Alpha  occ. eigenvalues --  -10.28734 -10.28668 -10.28569 -10.28416 -10.28348
 Alpha  occ. eigenvalues --  -10.28215 -10.27865 -10.27743 -10.27657 -10.27388
 Alpha  occ. eigenvalues --  -10.26808 -10.26764 -10.26316 -10.26262 -10.26237
 Alpha  occ. eigenvalues --  -10.26180 -10.25906 -10.25898 -10.25875 -10.25802
 Alpha  occ. eigenvalues --  -10.25763 -10.25748 -10.25708 -10.25682 -10.25664
 Alpha  occ. eigenvalues --  -10.25646 -10.25489 -10.25394 -10.25380 -10.25367
 Alpha  occ. eigenvalues --  -10.25301 -10.25188 -10.25144 -10.25118 -10.25096
 Alpha  occ. eigenvalues --  -10.24751 -10.24649 -10.24580 -10.24560 -10.24419
 Alpha  occ. eigenvalues --  -10.24135 -10.24135 -10.24126 -10.24048 -10.23773
 Alpha  occ. eigenvalues --  -10.23690 -10.23660 -10.23533 -10.23459 -10.23393
 Alpha  occ. eigenvalues --  -10.23247 -10.23186 -10.23127 -10.22922 -10.22807
 Alpha  occ. eigenvalues --  -10.22549  -3.14628  -3.13794  -1.87434  -1.86989
 Alpha  occ. eigenvalues --   -1.86881  -1.86642  -1.86161  -1.86025  -1.11634
 Alpha  occ. eigenvalues --   -1.10700  -1.05960  -1.04365  -1.03201  -1.03075
 Alpha  occ. eigenvalues --   -1.02617  -1.02338  -0.99364  -0.98722  -0.98674
 Alpha  occ. eigenvalues --   -0.97956  -0.97025  -0.96679  -0.96664  -0.95671
 Alpha  occ. eigenvalues --   -0.86399  -0.85816  -0.83468  -0.83121  -0.83040
 Alpha  occ. eigenvalues --   -0.82898  -0.82695  -0.82233  -0.81713  -0.81277
 Alpha  occ. eigenvalues --   -0.81211  -0.81193  -0.80520  -0.80276  -0.78639
 Alpha  occ. eigenvalues --   -0.78513  -0.78166  -0.78004  -0.76820  -0.76730
 Alpha  occ. eigenvalues --   -0.75729  -0.75368  -0.75262  -0.75034  -0.74464
 Alpha  occ. eigenvalues --   -0.74188  -0.72508  -0.72275  -0.71668  -0.71325
 Alpha  occ. eigenvalues --   -0.70919  -0.70833  -0.70185  -0.70131  -0.69554
 Alpha  occ. eigenvalues --   -0.69104  -0.67147  -0.66823  -0.66089  -0.65768
 Alpha  occ. eigenvalues --   -0.63488  -0.63346  -0.63306  -0.63273  -0.62275
 Alpha  occ. eigenvalues --   -0.62009  -0.61556  -0.61510  -0.60516  -0.60076
 Alpha  occ. eigenvalues --   -0.59616  -0.59371  -0.59365  -0.59080  -0.59069
 Alpha  occ. eigenvalues --   -0.58990  -0.57280  -0.55824  -0.54435  -0.54430
 Alpha  occ. eigenvalues --   -0.54126  -0.53829  -0.53488  -0.53327  -0.53142
 Alpha  occ. eigenvalues --   -0.52637  -0.52427  -0.52289  -0.51812  -0.51712
 Alpha  occ. eigenvalues --   -0.50519  -0.50447  -0.50366  -0.50306  -0.49754
 Alpha  occ. eigenvalues --   -0.49522  -0.49402  -0.48904  -0.48354  -0.48335
 Alpha  occ. eigenvalues --   -0.47888  -0.47792  -0.47765  -0.47664  -0.47244
 Alpha  occ. eigenvalues --   -0.47221  -0.47186  -0.46920  -0.46800  -0.46546
 Alpha  occ. eigenvalues --   -0.46328  -0.46074  -0.46072  -0.45845  -0.45685
 Alpha  occ. eigenvalues --   -0.45662  -0.45495  -0.45411  -0.45394  -0.45241
 Alpha  occ. eigenvalues --   -0.44878  -0.44533  -0.44275  -0.44138  -0.44055
 Alpha  occ. eigenvalues --   -0.44008  -0.43910  -0.43623  -0.43283  -0.43152
 Alpha  occ. eigenvalues --   -0.42939  -0.42797  -0.42758  -0.42709  -0.42702
 Alpha  occ. eigenvalues --   -0.42446  -0.42423  -0.42185  -0.42058  -0.41965
 Alpha  occ. eigenvalues --   -0.41930  -0.41482  -0.41449  -0.41233  -0.41184
 Alpha  occ. eigenvalues --   -0.41097  -0.40934  -0.40866  -0.40640  -0.40328
 Alpha  occ. eigenvalues --   -0.40309  -0.40014  -0.39967  -0.39692  -0.39480
 Alpha  occ. eigenvalues --   -0.39403  -0.39212  -0.39130  -0.38919  -0.38711
 Alpha  occ. eigenvalues --   -0.38685  -0.38626  -0.38508  -0.38489  -0.38233
 Alpha  occ. eigenvalues --   -0.38194  -0.38118  -0.37969  -0.37660  -0.37560
 Alpha  occ. eigenvalues --   -0.37418  -0.37268  -0.37222  -0.37074  -0.36934
 Alpha  occ. eigenvalues --   -0.36929  -0.36702  -0.36438  -0.36363  -0.36106
 Alpha  occ. eigenvalues --   -0.36018  -0.35698  -0.35489  -0.35463  -0.35216
 Alpha  occ. eigenvalues --   -0.34942  -0.34623  -0.34611  -0.34389  -0.34184
 Alpha  occ. eigenvalues --   -0.33664  -0.33571  -0.33303  -0.33048  -0.32671
 Alpha  occ. eigenvalues --   -0.32325  -0.32268  -0.31959  -0.31860  -0.31410
 Alpha  occ. eigenvalues --   -0.31277  -0.31022  -0.29990  -0.29701  -0.29335
 Alpha  occ. eigenvalues --   -0.29005  -0.28735  -0.28610  -0.27154  -0.26897
 Alpha  occ. eigenvalues --   -0.26216  -0.26199  -0.25941  -0.25713  -0.25607
 Alpha  occ. eigenvalues --   -0.25555  -0.25344  -0.24695  -0.21025  -0.20958
 Alpha  occ. eigenvalues --   -0.18901  -0.18668
 Alpha virt. eigenvalues --   -0.11107  -0.11064  -0.05475  -0.05346  -0.04147
 Alpha virt. eigenvalues --   -0.03935  -0.02438  -0.02373  -0.01063   0.00097
 Alpha virt. eigenvalues --    0.00203   0.00287   0.00755   0.01092   0.01454

 Mulliken charges:
               1
     1  Mg  11.999932
     2  C    5.999879
     3  C    6.000010
     4  C    6.000188
     5  C    5.999868
     6  N    6.999945
     7  C    6.000289
     8  C    5.999881
     9  C    6.000070
    10  C    5.999454
    11  C    6.000118
    12  C    5.999994
    13  C    6.000044
    14  H    0.999947
    15  N    7.000283
    16  C    5.999529
    17  C    5.999569
    18  C    5.999666
    19  C    5.999607
    20  C    5.999975
    21  C    6.000026
    22  O    7.999375
    23  C    6.000098
    24  N    7.000069
    25  C    5.999444
    26  C    6.000120
    27  C    5.999822
    28  C    6.000559
    29  C    6.000004
    30  C    5.999990
    31  C    6.000009
    32  N    6.999918
    33  C    6.000485
    34  C    6.000554
    35  C    6.000060
    36  C    6.000464
    37  C    6.000003
    38  C    6.000317
    39  O    8.000638
    40  C    6.000151
    41  C    6.000053
    42  O    8.000061
    43  O    8.000051
    44  C    5.999767
    45  H    0.999798
    46  H    0.999780
    47  H    1.000096
    48  H    1.000184
    49  H    0.999886
    50  H    0.999959
    51  H    0.999874
    52  H    1.000026
    53  H    1.000026
    54  H    0.999753
    55  H    0.999962
    56  H    1.000197
    57  H    0.999620
    58  H    0.999748
    59  H    0.999719
    60  H    0.999805
    61  H    0.999840
    62  H    0.999710
    63  H    0.999909
    64  H    1.000078
    65  H    0.999850
    66  H    0.999993
    67  H    1.000137
    68  H    0.999922
    69  H    1.000089
    70  H    1.000028
    71  H    0.999878
    72  H    1.000033
    73  H    1.000274
    74  H    1.000518
    75  H    1.000224
    76  H    1.000031
    77  H    1.000240
    78  H    1.000068
    79  H    1.000462
    80  Mg  12.001052
    81  C    5.973223
    82  C    6.009244
    83  C    6.024342
    84  C    6.000576
    85  N    6.984208
    86  C    6.034438
    87  C    5.992608
    88  C    6.008357
    89  C    5.969638
    90  C    6.002942
    91  C    6.000398
    92  C    5.998680
    93  H    1.003713
    94  N    7.004445
    95  C    5.967258
    96  C    5.979613
    97  C    5.987967
    98  C    5.962621
    99  C    6.001714
   100  C    5.989021
   101  O    7.979171
   102  C    5.997969
   103  N    7.006843
   104  C    5.965258
   105  C    6.010730
   106  C    5.992268
   107  C    6.031564
   108  C    6.000660
   109  C    5.996933
   110  C    5.999434
   111  N    7.000008
   112  C    6.035499
   113  C    6.024142
   114  C    6.003116
   115  C    6.026373
   116  C    5.998326
   117  C    6.017411
   118  O    8.030238
   119  C    6.000493
   120  C    6.005538
   121  O    8.002220
   122  O    8.001662
   123  C    5.998397
   124  H    0.989696
   125  H    0.994697
   126  H    1.012790
   127  H    0.998215
   128  H    0.995004
   129  H    0.987325
   130  H    0.999246
   131  H    1.000796
   132  H    1.008304
   133  H    0.992738
   134  H    0.995286
   135  H    1.003850
   136  H    0.986324
   137  H    0.983847
   138  H    0.985135
   139  H    0.990115
   140  H    0.989405
   141  H    0.991747
   142  H    0.999254
   143  H    0.997553
   144  H    0.990456
   145  H    1.002366
   146  H    1.003388
   147  H    0.996878
   148  H    1.011004
   149  H    1.005250
   150  H    1.005245
   151  H    0.997975
   152  H    1.014719
   153  H    1.014993
   154  H    1.018316
   155  H    1.007388
   156  H    1.004850
   157  H    1.005073
   158  H    1.000463
 Sum of Mulliken charges = 624.00000

 Dipole moment (field-independent basis, Debye):
    X=              1.1036    Y=              3.1062    Z=             -9.4530  Tot=             10.0113
 Quadrupole moment (field-independent basis, Debye-Ang):
   XX=             18.3880   YY=              2.5374   ZZ=             -2.6255
   XY=             41.9959   XZ=           -123.9053   YZ=              3.2333

 Normal termination of Gaussian 16 at Fri Oct 15 14:30:31 2021.
