 Gaussian 16, Revision A.03,
 Gaussian 16:  ES64L-G16RevA.03 25-Dec-2016

 --------------------------------------------------------
 #p PBE1PBE/Def2SVP td=(nstates=5) density=(transition=1)
 --------------------------------------------------------

 --------------------------------
 TDDFT excited states in gaussian
 --------------------------------
 Symbolic Z-matrix:
 Charge =  0 Multiplicity = 1

                         Standard orientation:
 ---------------------------------------------------------------------
 Center     Atomic      Atomic             Coordinates (Angstroms)
 Number     Number       Type             X           Y           Z
 ---------------------------------------------------------------------
      1         12           0       -9.701511    0.447433    0.574877
      2          6           0       -9.031183   -2.352925   -1.415081
      3          6           0       -6.733230   -0.278700    2.194356
      4          6           0      -10.069486    3.288427    2.288164
      5          6           0      -12.154582    1.452430   -1.703897
      6          7           0       -7.905495   -1.143520    0.212778
      7          6           0       -7.958181   -2.233051   -0.577171
      8          6           0       -6.741671   -3.120216   -0.464616
      9          6           0       -6.224501   -2.543431    0.908113
     10          6           0       -6.930378   -1.211664    1.141508
     11          6           0       -6.602253   -3.508019    2.063824
     12          6           0       -5.865817   -3.029367   -1.720642
     13          6           0       -5.651408   -1.665770   -2.409927
     14          1           0       -4.207765   -1.305291   -2.739823
     15          7           0       -8.587965    1.364250    2.025468
     16          6           0       -7.475664    0.832867    2.622576
     17          6           0       -7.262565    1.503074    3.911970
     18          6           0       -8.124769    2.671593    3.917080
     19          6           0       -8.982948    2.451593    2.713104
     20          6           0       -6.036808    1.180528    4.849620
     21          6           0       -8.116840    3.815692    4.933959
     22          8           0       -7.441332    3.749102    5.922903
     23          6           0       -8.995297    5.014870    4.722392
     24          7           0      -10.840239    2.250091    0.151469
     25          6           0      -10.927988    3.295349    1.089594
     26          6           0      -11.982802    4.408357    0.679872
     27          6           0      -12.676399    3.726573   -0.593975
     28          6           0      -11.868862    2.353843   -0.714078
     29          6           0      -13.031956    4.973117    1.762522
     30          6           0      -12.710709    4.566397   -1.951364
     31          6           0      -14.050434    4.245661   -2.780984
     32          7           0      -10.531169   -0.284905   -1.197918
     33          6           0      -11.582202    0.191350   -1.954955
     34          6           0      -11.884977   -0.768479   -3.009625
     35          6           0      -10.976662   -1.846210   -2.847103
     36          6           0      -10.108347   -1.462524   -1.762228
     37          6           0      -13.053555   -0.720098   -3.958816
     38          6           0      -10.436765   -3.146811   -3.361662
     39          8           0      -10.722285   -3.772855   -4.357979
     40          6           0       -9.219937   -3.497950   -2.404096
     41          6           0       -9.565865   -4.797199   -1.730044
     42          8           0       -9.485515   -5.920717   -2.286868
     43          8           0       -9.833127   -4.568385   -0.388037
     44          6           0       -9.951017   -5.734990    0.421375
     45          1           0       -5.845769   -0.557213    2.766606
     46          1           0      -10.414226    4.136773    2.883455
     47          1           0      -13.050519    1.681771   -2.284767
     48          1           0       -7.014305   -4.154708   -0.256664
     49          1           0       -5.157145   -2.352957    1.011728
     50          1           0       -6.789696   -2.873533    2.930417
     51          1           0       -5.835241   -4.270454    2.192245
     52          1           0       -7.553301   -4.039931    2.022997
     53          1           0       -6.380419   -3.619716   -2.478153
     54          1           0       -4.898976   -3.477368   -1.490945
     55          1           0       -6.001292   -0.876443   -1.745070
     56          1           0       -6.178754   -1.683185   -3.363277
     57          1           0       -5.084671    1.602952    4.527388
     58          1           0       -5.930579    0.100389    4.950758
     59          1           0       -6.148853    1.459121    5.896811
     60          1           0       -8.776343    5.811781    5.433839
     61          1           0      -10.058888    4.785102    4.789340
     62          1           0       -8.638609    5.382320    3.759812
     63          1           0      -11.296082    5.198693    0.379084
     64          1           0      -13.706016    3.445803   -0.374139
     65          1           0      -12.563017    5.830403    2.244084
     66          1           0      -13.296246    4.213270    2.497450
     67          1           0      -13.947249    5.252905    1.240529
     68          1           0      -11.926749    4.239075   -2.634181
     69          1           0      -12.581134    5.631539   -1.757990
     70          1           0      -13.813734    3.811592   -3.752490
     71          1           0      -14.605935    5.169174   -2.941570
     72          1           0      -14.738804    3.490558   -2.402989
     73          1           0      -12.993825    0.206247   -4.529143
     74          1           0      -13.984838   -0.719983   -3.392007
     75          1           0      -13.036601   -1.536848   -4.680248
     76          1           0       -8.406404   -3.727700   -3.091834
     77          1           0      -10.062466   -5.437953    1.463931
     78          1           0       -9.140562   -6.436766    0.223705
     79          1           0      -10.890291   -6.260091    0.247989
     80         12           0        9.946777    0.551681   -0.169606
     81          6           0        8.304337   -2.267629    0.890425
     82          6           0        6.919432    1.918846   -1.020175
     83          6           0       11.597428    3.364020   -1.350388
     84          6           0       12.990114   -1.043476    0.292931
     85          7           0        7.803065   -0.110140   -0.131442
     86          6           0        7.416720   -1.287235    0.443546
     87          6           0        5.970814   -1.418112    0.442963
     88          6           0        5.455097   -0.220229   -0.338786
     89          6           0        6.795155    0.607217   -0.565380
     90          6           0        4.673784   -0.470776   -1.674718
     91          6           0        5.397340   -1.519682    1.897385
     92          6           0        4.116620   -2.401303    2.098562
     93          1           0        3.157393   -2.533919    0.899424
     94          7           0        9.298611    2.432497   -0.957884
     95          6           0        7.983218    2.783871   -1.208273
     96          6           0        7.952801    4.148990   -1.771306
     97          6           0        9.339940    4.598152   -1.870779
     98          6           0       10.148484    3.474481   -1.366656
     99          6           0        6.690054    4.882803   -2.192386
    100          6           0        9.838750    5.967359   -2.269864
    101          8           0       11.058888    6.202808   -2.222224
    102          6           0        8.977822    7.071421   -2.758646
    103          7           0       11.998190    1.072334   -0.563483
    104          6           0       12.385430    2.280604   -0.982149
    105          6           0       13.917598    2.405911   -0.943661
    106          6           0       14.415545    1.068222   -0.166893
    107          6           0       13.025249    0.347283   -0.066432
    108          6           0       14.509067    2.589691   -2.375219
    109          6           0       15.018982    1.300612    1.245435
    110          6           0       16.523173    1.020632    1.381106
    111          7           0       10.582160   -1.313066    0.398974
    112          6           0       11.866798   -1.844808    0.533079
    113          6           0       11.792014   -3.242779    1.012480
    114          6           0       10.392939   -3.413890    1.135497
    115          6           0        9.711636   -2.229674    0.746269
    116          6           0       12.878205   -4.147497    1.330567
    117          6           0        9.361018   -4.353647    1.620415
    118          8           0        9.445245   -5.438677    2.131645
    119          6           0        7.969348   -3.650568    1.434368
    120          6           0        7.099712   -4.541354    0.649509
    121          8           0        7.310487   -4.715078   -0.561657
    122          8           0        6.012535   -5.015859    1.317385
    123          6           0        4.989292   -5.737853    0.567815
    124          1           0        5.939601    2.325675   -1.278805
    125          1           0       12.099311    4.243133   -1.760528
    126          1           0       13.969055   -1.457097    0.543619
    127          1           0        5.718803   -2.331995   -0.096108
    128          1           0        4.891372    0.458892    0.301891
    129          1           0        4.466133   -1.476924   -2.040372
    130          1           0        5.201096    0.052145   -2.472212
    131          1           0        3.705943    0.029824   -1.712060
    132          1           0        5.256165   -0.518740    2.305341
    133          1           0        6.200543   -1.819903    2.570051
    134          1           0        3.538657   -2.031228    2.945853
    135          1           0        4.347409   -3.453233    2.264106
    136          1           0        5.774662    4.358403   -1.920402
    137          1           0        6.644157    4.994656   -3.276025
    138          1           0        6.576725    5.796096   -1.608576
    139          1           0        9.627664    7.938688   -2.871528
    140          1           0        8.148893    7.306779   -2.089843
    141          1           0        8.475740    6.760994   -3.675129
    142          1           0       14.148863    3.225537   -0.263221
    143          1           0       15.082282    0.456354   -0.774394
    144          1           0       15.210881    3.420249   -2.452080
    145          1           0       13.717608    2.782248   -3.100036
    146          1           0       14.953034    1.619988   -2.601576
    147          1           0       14.538789    0.706447    2.022022
    148          1           0       14.867797    2.324496    1.588050
    149          1           0       17.010166    1.182674    0.419434
    150          1           0       16.645522   -0.026924    1.654541
    151          1           0       16.876985    1.624583    2.215651
    152          1           0       12.567521   -4.971180    1.972932
    153          1           0       13.724612   -3.654104    1.807927
    154          1           0       13.130486   -4.690946    0.419890
    155          1           0        7.655558   -3.540732    2.472985
    156          1           0        5.322226   -6.692412    0.159381
    157          1           0        4.535885   -5.098502   -0.189590
    158          1           0        4.178119   -6.017744    1.239765
 ---------------------------------------------------------------------

 SCF Done:  E(RPBE1PBE) =  -4067.40893211     A.U. after   16 cycles

 Excitation energies and oscillator strengths:

 Excited State   1:      Singlet-A      1.7723 eV  699.58 nm  f=0.0000  <S**2>=0.000
     312 -> 313        0.70708
 This state for optimization and/or second-order correction.
 Total Energy, E(TD-HF/TD-DFT) =  -4067.34380255
 Copying the excited state density for this state as the 1-particle RhoCI density.

 Excited State   2:      Singlet-A      1.8896 eV  656.14 nm  f=0.3844  <S**2>=0.000
     310 -> 316        0.17779
     311 -> 313       -0.10867
     312 -> 314        0.68096
     312 <- 314       -0.10300

 Excited State   3:      Singlet-A      1.8969 eV  653.62 nm  f=0.3325  <S**2>=0.000
     309 -> 315        0.18545
     311 -> 313        0.67870
     312 -> 314        0.10880

 Excited State   4:      Singlet-A      2.0999 eV  590.44 nm  f=0.0000  <S**2>=0.000
     311 -> 314        0.70709

 Excited State   5:      Singlet-A      2.2340 eV  555.00 nm  f=0.1054  <S**2>=0.000
     309 -> 313        0.64812
     311 -> 315       -0.26808

 The electronic state is 1-A.
 Alpha  occ. eigenvalues --  -46.93925 -46.92274 -19.26812 -19.26596 -19.20399
 Alpha  occ. eigenvalues --  -19.20006 -19.19535 -19.19260 -19.19247 -19.18553
 Alpha  occ. eigenvalues --  -14.41994 -14.41337 -14.41309 -14.41218 -14.40197
 Alpha  occ. eigenvalues --  -14.39356 -14.39176 -14.38892 -10.37142 -10.36561
 Alpha  occ. eigenvalues --  -10.33204 -10.32458 -10.32040 -10.32023 -10.30616
 Alpha  occ. eigenvalues --  -10.29557 -10.29436 -10.29296 -10.28878 -10.28734
 Alpha  occ. eigenvalues --  -10.28575 -10.28498 -10.28323 -10.28319 -10.28201
 Alpha  occ. eigenvalues --  -10.28120 -10.27828 -10.27820 -10.27700 -10.27667
 Alpha  occ. eigenvalues --  -10.27638 -10.27325 -10.27189 -10.26988 -10.26858
 Alpha  occ. eigenvalues --  -10.26809 -10.26395 -10.26372 -10.26353 -10.26304
 Alpha  occ. eigenvalues --  -10.26207 -10.26147 -10.26073 -10.26067 -10.25836
 Alpha  occ. eigenvalues --  -10.25792 -10.25718 -10.25646 -10.25616 -10.25604
 Alpha  occ. eigenvalues --  -10.25594 -10.25424 -10.25318 -10.25240 -10.25212
 Alpha  occ. eigenvalues --  -10.25108 -10.25003 -10.24759 -10.24657 -10.24617
 Alpha  occ. eigenvalues --  -10.24112 -10.24070 -10.24034 -10.23945 -10.23904
 Alpha  occ. eigenvalues --  -10.23759 -10.23689 -10.23660 -10.23635 -10.23588
 Alpha  occ. eigenvalues --  -10.23532 -10.23491 -10.23326 -10.23013 -10.23003
 Alpha  occ. eigenvalues --  -10.22791  -3.15871  -3.14281  -1.88672  -1.88264
 Alpha  occ. eigenvalues --   -1.88083  -1.87143  -1.86638  -1.86510  -1.11345
 Alpha  occ. eigenvalues --   -1.11204  -1.06280  -1.05711  -1.05649  -1.03587
 Alpha  occ. eigenvalues --   -1.01979  -1.01916  -0.99739  -0.99481  -0.98714
 Alpha  occ. eigenvalues --   -0.98575  -0.98052  -0.97817  -0.96764  -0.95590
 Alpha  occ. eigenvalues --   -0.87021  -0.86838  -0.83432  -0.83429  -0.82731
 Alpha  occ. eigenvalues --   -0.82573  -0.82124  -0.82010  -0.81834  -0.81505
 Alpha  occ. eigenvalues --   -0.81070  -0.80619  -0.80450  -0.79952  -0.79245
 Alpha  occ. eigenvalues --   -0.78253  -0.77829  -0.77787  -0.77014  -0.76588
 Alpha  occ. eigenvalues --   -0.76198  -0.75992  -0.75524  -0.75277  -0.74900
 Alpha  occ. eigenvalues --   -0.74871  -0.72749  -0.71972  -0.71862  -0.71729
 Alpha  occ. eigenvalues --   -0.71612  -0.71075  -0.70839  -0.70549  -0.69796
 Alpha  occ. eigenvalues --   -0.69239  -0.67441  -0.67060  -0.66605  -0.65977
 Alpha  occ. eigenvalues --   -0.64377  -0.63916  -0.63567  -0.62892  -0.62738
 Alpha  occ. eigenvalues --   -0.62475  -0.61682  -0.61360  -0.60464  -0.60266
 Alpha  occ. eigenvalues --   -0.59844  -0.59608  -0.59559  -0.59467  -0.59309
 Alpha  occ. eigenvalues --   -0.58881  -0.58424  -0.57322  -0.54702  -0.54393
 Alpha  occ. eigenvalues --   -0.54108  -0.54015  -0.53777  -0.53606  -0.53224
 Alpha  occ. eigenvalues --   -0.52954  -0.52905  -0.52427  -0.52038  -0.51861
 Alpha  occ. eigenvalues --   -0.50906  -0.50750  -0.50683  -0.50331  -0.50205
 Alpha  occ. eigenvalues --   -0.49909  -0.49776  -0.49283  -0.48961  -0.48525
 Alpha  occ. eigenvalues --   -0.48475  -0.48062  -0.47922  -0.47629  -0.47605
 Alpha  occ. eigenvalues --   -0.47449  -0.47367  -0.46936  -0.46692  -0.46596
 Alpha  occ. eigenvalues --   -0.46311  -0.46246  -0.46141  -0.46110  -0.45869
 Alpha  occ. eigenvalues --   -0.45817  -0.45744  -0.45466  -0.45291  -0.44858
 Alpha  occ. eigenvalues --   -0.44769  -0.44672  -0.44519  -0.44455  -0.44408
 Alpha  occ. eigenvalues --   -0.44256  -0.43929  -0.43726  -0.43550  -0.43480
 Alpha  occ. eigenvalues --   -0.43187  -0.43143  -0.43056  -0.42774  -0.42585
 Alpha  occ. eigenvalues --   -0.42369  -0.42114  -0.42108  -0.42030  -0.41857
 Alpha  occ. eigenvalues --   -0.41774  -0.41724  -0.41480  -0.41356  -0.41206
 Alpha  occ. eigenvalues --   -0.40948  -0.40933  -0.40646  -0.40611  -0.40455
 Alpha  occ. eigenvalues --   -0.40413  -0.40272  -0.40243  -0.40091  -0.39917
 Alpha  occ. eigenvalues --   -0.39756  -0.39745  -0.39319  -0.39149  -0.39133
 Alpha  occ. eigenvalues --   -0.38932  -0.38804  -0.38598  -0.38571  -0.38420
 Alpha  occ. eigenvalues --   -0.38310  -0.38296  -0.38123  -0.37980  -0.37931
 Alpha  occ. eigenvalues --   -0.37828  -0.37779  -0.37521  -0.37326  -0.37171
 Alpha  occ. eigenvalues --   -0.36985  -0.36983  -0.36748  -0.36619  -0.36341
 Alpha  occ. eigenvalues --   -0.36273  -0.35990  -0.35759  -0.35551  -0.35429
 Alpha  occ. eigenvalues --   -0.35263  -0.34967  -0.34860  -0.34507  -0.34305
 Alpha  occ. eigenvalues --   -0.34048  -0.33279  -0.33153  -0.32477  -0.32388
 Alpha  occ. eigenvalues --   -0.32381  -0.32212  -0.31845  -0.31733  -0.31671
 Alpha  occ. eigenvalues --   -0.31518  -0.31077  -0.29932  -0.29577  -0.29254
 Alpha  occ. eigenvalues --   -0.28915  -0.28830  -0.28498  -0.27058  -0.26687
 Alpha  occ. eigenvalues --   -0.26320  -0.26192  -0.25898  -0.25795  -0.25661
 Alpha  occ. eigenvalues --   -0.25574  -0.25545  -0.25116  -0.21115  -0.20806
 Alpha  occ. eigenvalues --   -0.19167  -0.18492
 Alpha virt. eigenvalues --   -0.11296  -0.10775  -0.05672  -0.05205  -0.04262
 Alpha virt. eigenvalues --   -0.03642  -0.02532  -0.02107  -0.01815  -0.00250
 Alpha virt. eigenvalues --   -0.00240   0.00349   0.01005   0.01274   0.01782

 Mulliken charges:
               1
     1  Mg  12.000000
     2  C    6.000000
     3  C    6.000000
     4  C    6.000000
     5  C    6.000000
     6  N    7.000000
     7  C    6.000000
     8  C    6.000000
     9  C    6.000000
    10  C    6.000000
    11  C    6.000000
    12  C    6.000000
    13  C    6.000000
    14  H    1.000000
    15  N    7.000000
    16  C    6.000000
    17  C    6.000000
    18  C    6.000000
    19  C    6.000000
    20  C    6.000000
    21  C    6.000000
    22  O    8.000000
    23  C    6.000000
    24  N    7.000000
    25  C    6.000000
    26  C    6.000000
    27  C    6.000000
    28  C    6.000000
    29  C    6.000000
    30  C    6.000000
    31  C    6.000000
    32  N    7.000000
    33  C    6.000000
    34  C    6.000000
    35  C    6.000000
    36  C    6.000000
    37  C    6.000000
    38  C    6.000000
    39  O    8.000000
    40  C    6.000000
    41  C    6.000000
    42  O    8.000000
    43  O    8.000000
    44  C    6.000000
    45  H    1.000000
    46  H    1.000000
    47  H    1.000000
    48  H    1.000000
    49  H    1.000000
    50  H    1.000000
    51  H    1.000000
    52  H    1.000000
    53  H    1.000000
    54  H    1.000000
    55  H    1.000000
    56  H    1.000000
    57  H    1.000000
    58  H    1.000000
    59  H    1.000000
    60  H    1.000000
    61  H    1.000000
    62  H    1.000000
    63  H    1.000000
    64  H    1.000000
    65  H    1.000000
    66  H    1.000000
    67  H    1.000000
    68  H    1.000000
    69  H    1.000000
    70  H    1.000000
    71  H    1.000000
    72  H    1.000000
    73  H    1.000000
    74  H    1.000000
    75  H    1.000000
    76  H    1.000000
    77  H    1.000000
    78  H    1.000000
    79  H    1.000000
    80  Mg  12.000000
    81  C    6.000000
    82  C    6.000000
    83  C    6.000000
    84  C    6.000000
    85  N    7.000000
    86  C    6.000000
    87  C    6.000000
    88  C    6.000000
    89  C    6.000000
    90  C    6.000000
    91  C    6.000000
    92  C    6.000000
    93  H    1.000000
    94  N    7.000000
    95  C    6.000000
    96  C    6.000000
    97  C    6.000000
    98  C    6.000000
    99  C    6.000000
   100  C    6.000000
   101  O    8.000000
   102  C    6.000000
   103  N    7.000000
   104  C    6.000000
   105  C    6.000000
   106  C    6.000000
   107  C    6.000000
   108  C    6.000000
   109  C    6.000000
   110  C    6.000000
   111  N    7.000000
   112  C    6.000000
   113  C    6.000000
   114  C    6.000000
   115  C    6.000000
   116  C    6.000000
   117  C    6.000000
   118  O    8.000000
   119  C    6.000000
   120  C    6.000000
   121  O    8.000000
   122  O    8.000000
   123  C    6.000000
   124  H    1.000000
   125  H    1.000000
   126  H    1.000000
   127  H    1.000000
   128  H    1.000000
   129  H    1.000000
   130  H    1.000000
   131  H    1.000000
   132  H    1.000000
   133  H    1.000000
   134  H    1.000000
   135  H    1.000000
   136  H    1.000000
   137  H    1.000000
   138  H    1.000000
   139  H    1.000000
   140  H    1.000000
   141  H    1.000000
   142  H    1.000000
   143  H    1.000000
   144  H    1.000000
   145  H    1.000000
   146  H    1.000000
   147  H    1.000000
   148  H    1.000000
   149  H    1.000000
   150  H    1.000000
   151  H    1.000000
   152  H    1.000000
   153  H    1.000000
   154  H    1.000000
   155  H    1.000000
   156  H    1.000000
   157  H    1.000000
   158  H    1.000000
 Sum of Mulliken charges = 624.00000

 Dipole moment (field-independent basis, Debye):
    X=              0.0000    Y=             -0.0000    Z=              0.0000  Tot=              0.0000
 Quadrupole moment (field-independent basis, Debye-Ang):
   XX=              0.0000   YY=             -0.0000   ZZ=             -0.0000
   XY=             -0.0000   XZ=              0.0000   YZ=             -0.0000

 Normal termination of Gaussian 16 at Thu Oct 14 23:44:42 2021.
