 Gaussian 16, Revision A.03,
 Gaussian 16:  ES64L-G16RevA.03 25-Dec-2016

 --------------------------------------------------------
 #p PBE1PBE/Def2SVP td=(nstates=5) density=(transition=1)
 --------------------------------------------------------

 --------------------------------
 TDDFT excited states in gaussian
 --------------------------------
 Symbolic Z-matrix:
 Charge =  0 Multiplicity = 1

                         Standard orientation:
 ---------------------------------------------------------------------
 Center     Atomic      Atomic             Coordinates (Angstroms)
 Number     Number       Type             X           Y           Z
 ---------------------------------------------------------------------
      1         12           0       26.140064   -0.268486   -0.659623
      2          6           0       24.748107    1.849545    1.867948
      3          6           0       27.159625   -2.343060    1.850298
      4          6           0       27.765152   -1.915482   -2.828289
      5          6           0       26.019409    2.469608   -2.812283
      6          7           0       25.920240   -0.153949    1.540196
      7          6           0       25.313289    0.679292    2.379535
      8          6           0       25.267923    0.154811    3.845904
      9          6           0       26.516000   -0.836130    3.797540
     10          6           0       26.512037   -1.159515    2.313852
     11          6           0       27.839965   -0.166122    4.150680
     12          6           0       23.939746   -0.611704    4.162340
     13          6           0       23.672621   -0.870258    5.647987
     14          1           0       22.300960   -0.823332    6.131402
     15          7           0       26.866234   -2.104592   -0.594493
     16          6           0       27.209912   -2.800641    0.515772
     17          6           0       27.696600   -4.113272    0.039520
     18          6           0       27.786098   -4.053737   -1.445923
     19          6           0       27.497375   -2.662501   -1.683578
     20          6           0       27.974987   -5.268077    0.952030
     21          6           0       28.094777   -5.084424   -2.485410
     22          8           0       28.348200   -4.771887   -3.698947
     23          6           0       28.180900   -6.480756   -2.020780
     24          7           0       27.006029    0.255662   -2.485276
     25          6           0       27.600589   -0.661896   -3.255710
     26          6           0       27.891142   -0.120573   -4.624098
     27          6           0       27.148168    1.290333   -4.708287
     28          6           0       26.596993    1.353440   -3.262433
     29          6           0       29.375298    0.062762   -4.970049
     30          6           0       26.160158    1.495743   -5.883898
     31          6           0       24.963763    0.586488   -5.713626
     32          7           0       25.343380    1.749120   -0.584752
     33          6           0       25.426120    2.726030   -1.587486
     34          6           0       24.839878    3.961576   -1.036293
     35          6           0       24.469477    3.619987    0.262924
     36          6           0       24.827034    2.264962    0.516604
     37          6           0       24.759403    5.215616   -1.703632
     38          6           0       23.877164    4.091685    1.504102
     39          8           0       23.305764    5.125263    1.854403
     40          6           0       24.144263    3.000851    2.633069
     41          6           0       22.844173    2.762724    3.351659
     42          8           0       21.880097    2.225823    2.768853
     43          8           0       23.014891    2.983037    4.664236
     44          6           0       21.769819    2.735820    5.439371
     45          1           0       27.730532   -2.944877    2.560102
     46          1           0       28.226035   -2.478714   -3.642412
     47          1           0       25.870851    3.339949   -3.454070
     48          1           0       25.428319    0.918663    4.606973
     49          1           0       26.341734   -1.738927    4.382613
     50          1           0       27.725821    0.913070    4.251858
     51          1           0       28.514324   -0.402074    3.327237
     52          1           0       28.279971   -0.621572    5.038226
     53          1           0       24.024277   -1.638849    3.807533
     54          1           0       23.083408   -0.095906    3.726493
     55          1           0       24.321634   -0.264440    6.280977
     56          1           0       23.957954   -1.898064    5.872489
     57          1           0       27.978417   -4.960927    1.997110
     58          1           0       28.999229   -5.586571    0.759158
     59          1           0       27.292592   -6.100637    0.780238
     60          1           0       28.955922   -6.559083   -1.258051
     61          1           0       28.320291   -7.087174   -2.915027
     62          1           0       27.243075   -6.749249   -1.533600
     63          1           0       27.496410   -0.778817   -5.396968
     64          1           0       27.851478    2.117858   -4.804359
     65          1           0       29.685994   -0.476128   -5.865465
     66          1           0       29.963248   -0.243775   -4.105387
     67          1           0       29.691844    1.098391   -5.091238
     68          1           0       26.633742    1.229253   -6.828170
     69          1           0       25.801643    2.521516   -5.970548
     70          1           0       25.312648   -0.356142   -6.133816
     71          1           0       24.110696    0.971463   -6.273342
     72          1           0       24.743125    0.411917   -4.660379
     73          1           0       23.761731    5.605211   -1.501554
     74          1           0       24.932718    5.106419   -2.773978
     75          1           0       25.559813    5.761653   -1.204589
     76          1           0       24.907187    3.412887    3.292838
     77          1           0       21.551398    3.647700    5.995251
     78          1           0       21.936750    1.822599    6.010831
     79          1           0       20.853944    2.624962    4.857803
     80         12           0      -26.495379    0.350030   -0.070323
     81          6           0      -23.843157   -1.658012    1.052071
     82          6           0      -24.526227    3.072794    0.431001
     83          6           0      -28.877241    2.040038   -1.542395
     84          6           0      -27.940876   -2.726078   -1.259653
     85          7           0      -24.476686    0.638093    0.713435
     86          6           0      -23.565646   -0.307434    1.091348
     87          6           0      -22.197497    0.375502    1.236649
     88          6           0      -22.597213    1.807874    1.573144
     89          6           0      -23.911439    1.860441    0.770657
     90          6           0      -22.839769    2.025873    3.084528
     91          6           0      -21.364757    0.283080   -0.095220
     92          6           0      -20.021995   -0.600198   -0.097156
     93          1           0      -19.922586   -1.806725   -1.046092
     94          7           0      -26.656596    2.279314   -0.550601
     95          6           0      -25.746276    3.263130   -0.239575
     96          6           0      -26.321962    4.526303   -0.580776
     97          6           0      -27.658286    4.321053   -1.059201
     98          6           0      -27.803838    2.836698   -1.083309
     99          6           0      -25.574457    5.891061   -0.394825
    100          6           0      -28.669113    5.468167   -1.423823
    101          8           0      -28.379305    6.606961   -1.220708
    102          6           0      -30.044112    5.101680   -1.740641
    103          7           0      -28.013436   -0.248684   -1.513286
    104          6           0      -29.028828    0.642132   -1.610310
    105          6           0      -30.375189   -0.010671   -1.875052
    106          6           0      -30.008763   -1.460922   -2.150958
    107          6           0      -28.536996   -1.504421   -1.611095
    108          6           0      -31.374027    0.130802   -0.667503
    109          6           0      -30.128733   -2.036791   -3.639963
    110          6           0      -31.209468   -3.007076   -4.035100
    111          7           0      -26.143751   -1.746698    0.056165
    112          6           0      -26.802530   -2.867774   -0.464851
    113          6           0      -26.084847   -4.090696   -0.176732
    114          6           0      -24.937830   -3.654905    0.439882
    115          6           0      -24.967622   -2.226139    0.556248
    116          6           0      -26.508936   -5.444550   -0.569343
    117          6           0      -23.687366   -4.103368    1.033109
    118          8           0      -23.279090   -5.253475    1.236338
    119          6           0      -22.990465   -2.859758    1.543577
    120          6           0      -22.860487   -3.002830    3.056085
    121          8           0      -23.854629   -3.150639    3.763203
    122          8           0      -21.516737   -3.073419    3.455212
    123          6           0      -21.320955   -3.243526    4.870149
    124          1           0      -23.929473    3.929705    0.749458
    125          1           0      -29.766957    2.646056   -1.720229
    126          1           0      -28.440743   -3.660051   -1.525533
    127          1           0      -21.633978   -0.206024    1.966718
    128          1           0      -21.815279    2.471168    1.205491
    129          1           0      -22.224413    2.914601    3.220100
    130          1           0      -22.435882    1.131497    3.559771
    131          1           0      -23.871315    2.181401    3.400708
    132          1           0      -21.038083    1.293454   -0.340942
    133          1           0      -22.048000   -0.011940   -0.891220
    134          1           0      -19.967640   -1.038572    0.899613
    135          1           0      -19.102427   -0.029194   -0.219736
    136          1           0      -25.549714    6.579941   -1.238613
    137          1           0      -24.547060    5.628546   -0.140459
    138          1           0      -25.964470    6.473748    0.439913
    139          1           0      -30.145338    4.422997   -2.587822
    140          1           0      -30.602130    6.014005   -1.951139
    141          1           0      -30.562295    4.775971   -0.839741
    142          1           0      -30.911066    0.454716   -2.702982
    143          1           0      -30.575869   -2.124360   -1.497990
    144          1           0      -32.091566    0.941350   -0.793831
    145          1           0      -30.813768    0.158329    0.267072
    146          1           0      -31.959540   -0.788956   -0.630312
    147          1           0      -29.215850   -2.358173   -4.140262
    148          1           0      -30.375658   -1.078345   -4.097368
    149          1           0      -31.927126   -2.593825   -4.743120
    150          1           0      -31.769813   -3.308907   -3.149890
    151          1           0      -30.669150   -3.851319   -4.462750
    152          1           0      -27.151246   -5.349543   -1.445272
    153          1           0      -27.122174   -5.807548    0.255932
    154          1           0      -25.655130   -6.108012   -0.699112
    155          1           0      -22.008467   -2.934819    1.078480
    156          1           0      -21.466258   -2.338564    5.460696
    157          1           0      -20.317550   -3.603902    5.095131
    158          1           0      -21.965754   -3.994323    5.326115
 ---------------------------------------------------------------------

 SCF Done:  E(RPBE1PBE) =  -4067.38619838     A.U. after   16 cycles

 Excitation energies and oscillator strengths:

 Excited State   1:      Singlet-A      1.8414 eV  673.30 nm  f=0.3723  <S**2>=0.000
     310 -> 316        0.16186
     311 -> 313        0.69325
     311 <- 313       -0.11107
 This state for optimization and/or second-order correction.
 Total Energy, E(TD-HF/TD-DFT) =  -4067.31852685
 Copying the excited state density for this state as the 1-particle RhoCI density.

 Excited State   2:      Singlet-A      1.8786 eV  660.00 nm  f=0.3571  <S**2>=0.000
     309 -> 315       -0.18343
     312 -> 314        0.69005
     312 <- 314       -0.10095

 Excited State   3:      Singlet-A      1.9576 eV  633.35 nm  f=0.0000  <S**2>=0.000
     312 -> 313        0.70711

 Excited State   4:      Singlet-A      2.0762 eV  597.17 nm  f=0.0000  <S**2>=0.000
     311 -> 314        0.70711

 Excited State   5:      Singlet-A      2.1929 eV  565.38 nm  f=0.0924  <S**2>=0.000
     310 -> 313        0.65170
     311 -> 316       -0.24148

 The electronic state is 1-A.
 Alpha  occ. eigenvalues --  -46.92064 -46.91178 -19.26912 -19.26649 -19.20759
 Alpha  occ. eigenvalues --  -19.19299 -19.19292 -19.18998 -19.18908 -19.18403
 Alpha  occ. eigenvalues --  -14.41933 -14.41627 -14.41579 -14.40946 -14.39063
 Alpha  occ. eigenvalues --  -14.39039 -14.38984 -14.38243 -10.37247 -10.36095
 Alpha  occ. eigenvalues --  -10.32480 -10.32204 -10.31633 -10.31560 -10.29133
 Alpha  occ. eigenvalues --  -10.28894 -10.28865 -10.28853 -10.28699 -10.28623
 Alpha  occ. eigenvalues --  -10.28517 -10.28385 -10.28324 -10.28206 -10.28124
 Alpha  occ. eigenvalues --  -10.27990 -10.27532 -10.27424 -10.27274 -10.27246
 Alpha  occ. eigenvalues --  -10.27024 -10.26796 -10.26555 -10.26215 -10.26049
 Alpha  occ. eigenvalues --  -10.26006 -10.25977 -10.25967 -10.25925 -10.25888
 Alpha  occ. eigenvalues --  -10.25700 -10.25673 -10.25583 -10.25441 -10.25366
 Alpha  occ. eigenvalues --  -10.25363 -10.25337 -10.25271 -10.25260 -10.25242
 Alpha  occ. eigenvalues --  -10.25198 -10.24868 -10.24840 -10.24764 -10.24735
 Alpha  occ. eigenvalues --  -10.24538 -10.24506 -10.24494 -10.24367 -10.24269
 Alpha  occ. eigenvalues --  -10.24069 -10.23782 -10.23723 -10.23675 -10.23602
 Alpha  occ. eigenvalues --  -10.23601 -10.23599 -10.23338 -10.23263 -10.23108
 Alpha  occ. eigenvalues --  -10.22989 -10.22902 -10.22761 -10.22582 -10.22389
 Alpha  occ. eigenvalues --  -10.22079  -3.14253  -3.13495  -1.87067  -1.86643
 Alpha  occ. eigenvalues --   -1.86476  -1.86318  -1.85883  -1.85729  -1.11409
 Alpha  occ. eigenvalues --   -1.10690  -1.06691  -1.03768  -1.03355  -1.02982
 Alpha  occ. eigenvalues --   -1.01825  -1.01438  -0.99364  -0.99159  -0.98877
 Alpha  occ. eigenvalues --   -0.98355  -0.97887  -0.97477  -0.97076  -0.96767
 Alpha  occ. eigenvalues --   -0.87360  -0.86317  -0.83820  -0.83441  -0.83436
 Alpha  occ. eigenvalues --   -0.83251  -0.82847  -0.82579  -0.82191  -0.81962
 Alpha  occ. eigenvalues --   -0.81905  -0.81438  -0.81426  -0.79312  -0.79221
 Alpha  occ. eigenvalues --   -0.78838  -0.78504  -0.78212  -0.77144  -0.76860
 Alpha  occ. eigenvalues --   -0.76802  -0.76745  -0.75881  -0.75363  -0.75169
 Alpha  occ. eigenvalues --   -0.74930  -0.73091  -0.72330  -0.71532  -0.71514
 Alpha  occ. eigenvalues --   -0.71218  -0.70694  -0.70569  -0.70229  -0.69437
 Alpha  occ. eigenvalues --   -0.69213  -0.67297  -0.67229  -0.66583  -0.66075
 Alpha  occ. eigenvalues --   -0.64207  -0.63395  -0.63219  -0.63013  -0.62479
 Alpha  occ. eigenvalues --   -0.62106  -0.61541  -0.61216  -0.60247  -0.60070
 Alpha  occ. eigenvalues --   -0.59694  -0.59406  -0.59392  -0.59084  -0.59014
 Alpha  occ. eigenvalues --   -0.58755  -0.57261  -0.56862  -0.54932  -0.54741
 Alpha  occ. eigenvalues --   -0.54598  -0.54293  -0.53723  -0.53610  -0.53468
 Alpha  occ. eigenvalues --   -0.53106  -0.52945  -0.52272  -0.52092  -0.51789
 Alpha  occ. eigenvalues --   -0.50860  -0.50834  -0.50660  -0.50361  -0.50041
 Alpha  occ. eigenvalues --   -0.49822  -0.49786  -0.49377  -0.49067  -0.48564
 Alpha  occ. eigenvalues --   -0.48447  -0.48125  -0.47940  -0.47740  -0.47677
 Alpha  occ. eigenvalues --   -0.47595  -0.47542  -0.47426  -0.47154  -0.47090
 Alpha  occ. eigenvalues --   -0.46965  -0.46733  -0.46404  -0.46301  -0.46172
 Alpha  occ. eigenvalues --   -0.45846  -0.45595  -0.45478  -0.45110  -0.45070
 Alpha  occ. eigenvalues --   -0.44733  -0.44621  -0.44471  -0.44445  -0.44139
 Alpha  occ. eigenvalues --   -0.44116  -0.43885  -0.43850  -0.43695  -0.43656
 Alpha  occ. eigenvalues --   -0.43286  -0.43207  -0.43103  -0.42998  -0.42991
 Alpha  occ. eigenvalues --   -0.42729  -0.42324  -0.42225  -0.41937  -0.41829
 Alpha  occ. eigenvalues --   -0.41552  -0.41288  -0.41232  -0.41058  -0.41013
 Alpha  occ. eigenvalues --   -0.40987  -0.40862  -0.40841  -0.40696  -0.40542
 Alpha  occ. eigenvalues --   -0.40114  -0.39992  -0.39928  -0.39290  -0.39210
 Alpha  occ. eigenvalues --   -0.39203  -0.39057  -0.38984  -0.38887  -0.38826
 Alpha  occ. eigenvalues --   -0.38731  -0.38627  -0.38366  -0.38269  -0.38226
 Alpha  occ. eigenvalues --   -0.38123  -0.37884  -0.37847  -0.37478  -0.37433
 Alpha  occ. eigenvalues --   -0.37378  -0.37222  -0.37014  -0.36846  -0.36818
 Alpha  occ. eigenvalues --   -0.36551  -0.36539  -0.36435  -0.36356  -0.35996
 Alpha  occ. eigenvalues --   -0.35950  -0.35791  -0.35765  -0.35581  -0.35578
 Alpha  occ. eigenvalues --   -0.35469  -0.35266  -0.34998  -0.34920  -0.34322
 Alpha  occ. eigenvalues --   -0.33881  -0.33405  -0.32968  -0.32712  -0.32455
 Alpha  occ. eigenvalues --   -0.32369  -0.32243  -0.32050  -0.31701  -0.31694
 Alpha  occ. eigenvalues --   -0.31582  -0.31244  -0.29898  -0.29690  -0.29497
 Alpha  occ. eigenvalues --   -0.28997  -0.28906  -0.28402  -0.26943  -0.26708
 Alpha  occ. eigenvalues --   -0.26102  -0.25990  -0.25837  -0.25566  -0.25250
 Alpha  occ. eigenvalues --   -0.25103  -0.24941  -0.24816  -0.21271  -0.20964
 Alpha  occ. eigenvalues --   -0.18747  -0.18656
 Alpha virt. eigenvalues --   -0.11212  -0.10866  -0.05630  -0.05332  -0.04142
 Alpha virt. eigenvalues --   -0.03690  -0.02163  -0.01865  -0.00860  -0.00338
 Alpha virt. eigenvalues --    0.00365   0.00435   0.00462   0.00769   0.01787

 Mulliken charges:
               1
     1  Mg  12.000585
     2  C    5.985210
     3  C    6.012036
     4  C    6.011913
     5  C    5.985727
     6  N    6.992031
     7  C    6.031977
     8  C    5.991657
     9  C    6.008587
    10  C    5.972698
    11  C    6.000775
    12  C    5.996381
    13  C    5.998963
    14  H    0.999605
    15  N    7.003211
    16  C    5.963511
    17  C    5.970836
    18  C    5.985085
    19  C    5.979342
    20  C    6.005199
    21  C    5.985870
    22  O    7.969096
    23  C    6.004914
    24  N    7.000790
    25  C    5.973572
    26  C    6.011145
    27  C    5.988311
    28  C    6.031450
    29  C    5.999495
    30  C    5.996270
    31  C    5.999019
    32  N    6.996868
    33  C    6.043740
    34  C    6.022483
    35  C    6.006245
    36  C    6.028556
    37  C    5.996679
    38  C    6.015243
    39  O    8.030017
    40  C    6.001293
    41  C    6.003504
    42  O    8.004184
    43  O    8.001872
    44  C    5.998736
    45  H    0.992192
    46  H    0.994186
    47  H    1.008867
    48  H    0.999204
    49  H    1.000466
    50  H    0.984542
    51  H    1.004514
    52  H    0.996756
    53  H    1.013210
    54  H    0.994368
    55  H    1.000789
    56  H    1.006616
    57  H    0.980619
    58  H    0.980271
    59  H    0.979477
    60  H    0.994830
    61  H    0.985567
    62  H    0.992883
    63  H    1.001038
    64  H    1.003951
    65  H    1.000051
    66  H    1.005314
    67  H    0.990584
    68  H    1.008970
    69  H    0.997133
    70  H    1.011247
    71  H    1.001341
    72  H    0.997295
    73  H    1.015555
    74  H    1.016576
    75  H    1.018215
    76  H    1.007731
    77  H    1.002886
    78  H    1.005907
    79  H    1.002165
    80  Mg  11.999996
    81  C    5.999936
    82  C    5.999989
    83  C    6.000096
    84  C    6.000014
    85  N    7.000007
    86  C    6.000103
    87  C    5.999985
    88  C    6.000027
    89  C    5.999897
    90  C    6.000021
    91  C    6.000013
    92  C    5.999996
    93  H    0.999994
    94  N    7.000013
    95  C    5.999855
    96  C    5.999907
    97  C    5.999923
    98  C    5.999832
    99  C    6.000042
   100  C    5.999943
   101  O    7.999902
   102  C    6.000039
   103  N    6.999985
   104  C    5.999897
   105  C    6.000039
   106  C    5.999989
   107  C    6.000091
   108  C    6.000010
   109  C    5.999951
   110  C    6.000000
   111  N    7.000015
   112  C    6.000115
   113  C    6.000145
   114  C    5.999985
   115  C    6.000147
   116  C    5.999963
   117  C    6.000128
   118  O    8.000154
   119  C    5.999941
   120  C    6.000034
   121  O    8.000019
   122  O    7.999999
   123  C    5.999984
   124  H    0.999924
   125  H    0.999974
   126  H    1.000062
   127  H    0.999970
   128  H    0.999958
   129  H    0.999962
   130  H    0.999930
   131  H    1.000011
   132  H    1.000027
   133  H    1.000007
   134  H    0.999993
   135  H    0.999981
   136  H    0.999901
   137  H    0.999913
   138  H    0.999904
   139  H    0.999960
   140  H    0.999945
   141  H    0.999965
   142  H    1.000010
   143  H    1.000010
   144  H    1.000020
   145  H    0.999988
   146  H    0.999970
   147  H    1.000001
   148  H    1.000058
   149  H    1.000037
   150  H    1.000021
   151  H    1.000007
   152  H    1.000085
   153  H    1.000110
   154  H    1.000080
   155  H    1.000036
   156  H    1.000017
   157  H    1.000016
   158  H    1.000027
 Sum of Mulliken charges = 624.00000

 Dipole moment (field-independent basis, Debye):
    X=             -4.1864    Y=              9.4356    Z=              0.2453  Tot=             10.3255
 Quadrupole moment (field-independent basis, Debye-Ang):
   XX=           -218.7313   YY=             -5.8614   ZZ=              2.8037
   XY=            251.1459   XZ=              6.0781   YZ=             -5.7342

 Normal termination of Gaussian 16 at Thu Oct 14 17:06:19 2021.
