 Gaussian 16, Revision A.03,
 Gaussian 16:  ES64L-G16RevA.03 25-Dec-2016

 --------------------------------------------------------
 #p PBE1PBE/Def2SVP td=(nstates=5) density=(transition=1)
 --------------------------------------------------------

 --------------------------------
 TDDFT excited states in gaussian
 --------------------------------
 Symbolic Z-matrix:
 Charge =  0 Multiplicity = 1

                         Standard orientation:
 ---------------------------------------------------------------------
 Center     Atomic      Atomic             Coordinates (Angstroms)
 Number     Number       Type             X           Y           Z
 ---------------------------------------------------------------------
      1         12           0       25.693531   -0.811924    0.039364
      2          6           0       26.394488    2.530199   -0.630022
      3          6           0       25.126769   -0.062423    3.274863
      4          6           0       25.477348   -4.125415    0.671440
      5          6           0       26.760600   -1.560687   -3.152893
      6          7           0       25.782889    1.081892    1.186898
      7          6           0       25.885294    2.341850    0.654383
      8          6           0       25.679212    3.364831    1.705929
      9          6           0       25.326577    2.604563    2.989676
     10          6           0       25.381834    1.090600    2.509254
     11          6           0       26.122648    2.885769    4.254628
     12          6           0       24.561455    4.466698    1.255809
     13          6           0       25.015545    5.939588    1.126744
     14          1           0       24.125170    7.067197    1.587862
     15          7           0       25.232874   -1.930873    1.701286
     16          6           0       25.041038   -1.437975    2.983274
     17          6           0       24.816293   -2.514656    3.877750
     18          6           0       24.917472   -3.726688    3.142397
     19          6           0       25.200653   -3.289190    1.771619
     20          6           0       24.403986   -2.179433    5.364380
     21          6           0       24.825617   -5.130268    3.738547
     22          8           0       24.991038   -6.188365    3.112863
     23          6           0       24.436355   -5.297055    5.141467
     24          7           0       26.289194   -2.650259   -0.973288
     25          6           0       25.998362   -3.870154   -0.571143
     26          6           0       26.520926   -4.923239   -1.574171
     27          6           0       26.426624   -4.034233   -2.876324
     28          6           0       26.470134   -2.619921   -2.306516
     29          6           0       27.964435   -5.531152   -1.422534
     30          6           0       25.147841   -4.256093   -3.818088
     31          6           0       23.810717   -4.034152   -3.239375
     32          7           0       26.505044    0.222250   -1.659884
     33          6           0       26.890964   -0.230987   -2.936613
     34          6           0       27.335948    0.878738   -3.717811
     35          6           0       27.232850    1.962508   -2.868668
     36          6           0       26.616001    1.520718   -1.652558
     37          6           0       28.022822    0.814348   -4.993252
     38          6           0       27.281083    3.348002   -2.829937
     39          8           0       27.637886    4.181979   -3.668514
     40          6           0       26.843934    3.810750   -1.365788
     41          6           0       28.089337    4.329027   -0.725930
     42          8           0       29.158054    3.803858   -0.494026
     43          8           0       27.826443    5.606843   -0.446395
     44          6           0       28.920087    6.367858    0.241857
     45          1           0       24.752325    0.328846    4.223074
     46          1           0       25.244424   -5.170099    0.884588
     47          1           0       27.032475   -1.805935   -4.181471
     48          1           0       26.645316    3.858236    1.804704
     49          1           0       24.280652    2.790304    3.232893
     50          1           0       26.834873    2.071235    4.128203
     51          1           0       25.551268    2.889685    5.183028
     52          1           0       26.698423    3.807152    4.337675
     53          1           0       23.717669    4.406972    1.942602
     54          1           0       24.176478    4.312286    0.247502
     55          1           0       25.108288    6.130243    0.057170
     56          1           0       26.022871    6.092540    1.511757
     57          1           0       25.069426   -2.721515    6.036004
     58          1           0       23.434971   -2.678245    5.343299
     59          1           0       24.485160   -1.147188    5.705087
     60          1           0       25.116074   -4.761457    5.802751
     61          1           0       24.701189   -6.322983    5.396171
     62          1           0       23.382100   -5.120996    5.356668
     63          1           0       25.734504   -5.661580   -1.731309
     64          1           0       27.307837   -4.326732   -3.446799
     65          1           0       28.743285   -4.831903   -1.120705
     66          1           0       28.142998   -5.949708   -2.413656
     67          1           0       27.970364   -6.329818   -0.680309
     68          1           0       25.078022   -5.267560   -4.219039
     69          1           0       25.084177   -3.482998   -4.583782
     70          1           0       23.696933   -2.952349   -3.293161
     71          1           0       23.624564   -4.314990   -2.202309
     72          1           0       22.944634   -4.439881   -3.761204
     73          1           0       29.057860    0.612663   -4.714789
     74          1           0       27.987113    1.724010   -5.592009
     75          1           0       27.593203    0.085215   -5.681070
     76          1           0       26.007373    4.509591   -1.364299
     77          1           0       28.572437    6.465095    1.270588
     78          1           0       29.072902    7.323901   -0.258362
     79          1           0       29.896455    5.887903    0.314258
     80         12           0      -26.494770   -0.538110   -0.050502
     81          6           0      -24.701473    2.430541   -0.566212
     82          6           0      -27.493526    0.712295    2.997970
     83          6           0      -28.149263   -3.353780    0.425250
     84          6           0      -25.246993   -1.709667   -3.118596
     85          7           0      -26.174741    1.391585    0.989348
     86          6           0      -25.388775    2.487010    0.631138
     87          6           0      -25.661857    3.766959    1.514776
     88          6           0      -26.403570    3.103601    2.659120
     89          6           0      -26.732514    1.623903    2.197564
     90          6           0      -25.469296    2.993368    3.949949
     91          6           0      -26.658630    4.640321    0.630636
     92          6           0      -26.411802    6.212644    0.599434
     93          1           0      -25.869222    6.667488    1.930144
     94          7           0      -27.505610   -1.252338    1.522403
     95          6           0      -27.808781   -0.636372    2.661604
     96          6           0      -28.630938   -1.441818    3.525311
     97          6           0      -28.995586   -2.556952    2.745126
     98          6           0      -28.149452   -2.458372    1.496650
     99          6           0      -29.058200   -1.092200    4.903687
    100          6           0      -30.056036   -3.613791    2.975790
    101          8           0      -30.438310   -4.386009    2.089253
    102          6           0      -30.623642   -3.831613    4.381126
    103          7           0      -26.620270   -2.318680   -1.197660
    104          6           0      -27.469163   -3.302476   -0.748239
    105          6           0      -27.588412   -4.369856   -1.833988
    106          6           0      -26.734016   -3.789577   -3.063863
    107          6           0      -26.200598   -2.504279   -2.487831
    108          6           0      -27.175019   -5.768357   -1.253534
    109          6           0      -27.458133   -3.632099   -4.391743
    110          6           0      -26.724535   -4.308640   -5.591868
    111          7           0      -25.219189    0.190553   -1.524210
    112          6           0      -24.775067   -0.420454   -2.738730
    113          6           0      -23.873049    0.436572   -3.421632
    114          6           0      -23.829969    1.566771   -2.587951
    115          6           0      -24.620941    1.328100   -1.444955
    116          6           0      -23.161932    0.266349   -4.725386
    117          6           0      -23.282159    2.875994   -2.430458
    118          8           0      -22.505359    3.526035   -3.089830
    119          6           0      -23.925642    3.508861   -1.164289
    120          6           0      -22.854567    4.112533   -0.330421
    121          8           0      -21.997162    3.528864    0.326556
    122          8           0      -23.028207    5.436910   -0.378074
    123          6           0      -22.143093    6.244209    0.435069
    124          1           0      -27.990835    1.035131    3.914842
    125          1           0      -28.708897   -4.265590    0.648494
    126          1           0      -24.885291   -2.007255   -4.105105
    127          1           0      -24.691916    4.254643    1.607105
    128          1           0      -27.332828    3.634415    2.863322
    129          1           0      -24.467552    3.385442    3.773099
    130          1           0      -25.395086    1.942463    4.228914
    131          1           0      -26.006959    3.557321    4.712245
    132          1           0      -27.700490    4.545274    0.935136
    133          1           0      -26.611081    4.224678   -0.376223
    134          1           0      -27.360605    6.748679    0.573414
    135          1           0      -25.937447    6.525006   -0.331258
    136          1           0      -30.134289   -0.918927    4.859346
    137          1           0      -28.588701   -0.170542    5.244684
    138          1           0      -28.851853   -1.875418    5.632527
    139          1           0      -31.027587   -4.836283    4.258499
    140          1           0      -31.368282   -3.092124    4.678052
    141          1           0      -29.909817   -3.941579    5.197277
    142          1           0      -28.595410   -4.550391   -2.209993
    143          1           0      -25.880902   -4.448132   -3.227476
    144          1           0      -27.940913   -6.464957   -1.594684
    145          1           0      -27.052118   -5.780061   -0.170502
    146          1           0      -26.322838   -6.183695   -1.792769
    147          1           0      -27.667839   -2.599304   -4.668281
    148          1           0      -28.349751   -4.250206   -4.277456
    149          1           0      -25.866840   -4.884752   -5.244277
    150          1           0      -26.234613   -3.573617   -6.230153
    151          1           0      -27.394054   -4.967251   -6.145493
    152          1           0      -23.977276    0.423477   -5.432062
    153          1           0      -22.703760   -0.722153   -4.701727
    154          1           0      -22.428347    1.050719   -4.906332
    155          1           0      -24.490717    4.349163   -1.569829
    156          1           0      -21.104591    6.000392    0.209348
    157          1           0      -22.197659    6.098386    1.514420
    158          1           0      -22.350677    7.280677    0.168481
 ---------------------------------------------------------------------

 SCF Done:  E(RPBE1PBE) =  -4067.37899648     A.U. after   17 cycles

 Excitation energies and oscillator strengths:

 Excited State   1:      Singlet-A      1.8587 eV  667.05 nm  f=0.3226  <S**2>=0.000
     310 -> 316       -0.16371
     311 -> 313        0.69202
     311 <- 313       -0.10756
 This state for optimization and/or second-order correction.
 Total Energy, E(TD-HF/TD-DFT) =  -4067.31069092
 Copying the excited state density for this state as the 1-particle RhoCI density.

 Excited State   2:      Singlet-A      1.8615 eV  666.05 nm  f=0.3919  <S**2>=0.000
     309 -> 315       -0.15494
     312 -> 314        0.69340
     312 <- 314       -0.10794

 Excited State   3:      Singlet-A      1.9064 eV  650.36 nm  f=0.0000  <S**2>=0.000
     312 -> 313        0.70711

 Excited State   4:      Singlet-A      2.1085 eV  588.01 nm  f=0.0000  <S**2>=0.000
     311 -> 314        0.70711

 Excited State   5:      Singlet-A      2.1770 eV  569.52 nm  f=0.1427  <S**2>=0.000
     310 -> 313        0.66024
     311 -> 316        0.23473

 The electronic state is 1-A.
 Alpha  occ. eigenvalues --  -46.92726 -46.91169 -19.25980 -19.25679 -19.19909
 Alpha  occ. eigenvalues --  -19.19298 -19.19134 -19.18898 -19.18464 -19.17898
 Alpha  occ. eigenvalues --  -14.41778 -14.41631 -14.41215 -14.41138 -14.39710
 Alpha  occ. eigenvalues --  -14.39377 -14.38607 -14.38263 -10.35600 -10.35420
 Alpha  occ. eigenvalues --  -10.33141 -10.32206 -10.31271 -10.30522 -10.29443
 Alpha  occ. eigenvalues --  -10.29205 -10.28927 -10.28905 -10.28645 -10.28443
 Alpha  occ. eigenvalues --  -10.28397 -10.28361 -10.28224 -10.28087 -10.28006
 Alpha  occ. eigenvalues --  -10.27951 -10.27827 -10.27508 -10.27027 -10.26791
 Alpha  occ. eigenvalues --  -10.26619 -10.26563 -10.26429 -10.26365 -10.26364
 Alpha  occ. eigenvalues --  -10.26346 -10.26294 -10.26086 -10.25805 -10.25800
 Alpha  occ. eigenvalues --  -10.25671 -10.25620 -10.25533 -10.25404 -10.25396
 Alpha  occ. eigenvalues --  -10.25370 -10.25335 -10.25258 -10.25135 -10.25124
 Alpha  occ. eigenvalues --  -10.25066 -10.25032 -10.25014 -10.24990 -10.24903
 Alpha  occ. eigenvalues --  -10.24832 -10.24433 -10.24415 -10.24004 -10.23974
 Alpha  occ. eigenvalues --  -10.23960 -10.23941 -10.23917 -10.23741 -10.23731
 Alpha  occ. eigenvalues --  -10.23467 -10.23425 -10.23415 -10.23396 -10.23369
 Alpha  occ. eigenvalues --  -10.23188 -10.22945 -10.22879 -10.22334 -10.22113
 Alpha  occ. eigenvalues --  -10.21641  -3.14720  -3.13455  -1.87563  -1.87072
 Alpha  occ. eigenvalues --   -1.86959  -1.86308  -1.85810  -1.85710  -1.11983
 Alpha  occ. eigenvalues --   -1.11773  -1.04849  -1.04359  -1.03850  -1.03291
 Alpha  occ. eigenvalues --   -1.02165  -1.01990  -1.00027  -0.99457  -0.98922
 Alpha  occ. eigenvalues --   -0.98751  -0.98053  -0.97522  -0.97311  -0.97014
 Alpha  occ. eigenvalues --   -0.87172  -0.86552  -0.83843  -0.83513  -0.83035
 Alpha  occ. eigenvalues --   -0.82698  -0.82688  -0.82687  -0.82261  -0.82241
 Alpha  occ. eigenvalues --   -0.81938  -0.81551  -0.81154  -0.80949  -0.78938
 Alpha  occ. eigenvalues --   -0.78534  -0.78291  -0.77853  -0.77361  -0.76562
 Alpha  occ. eigenvalues --   -0.76240  -0.75990  -0.75832  -0.75551  -0.75079
 Alpha  occ. eigenvalues --   -0.74685  -0.73077  -0.73046  -0.71971  -0.71831
 Alpha  occ. eigenvalues --   -0.71705  -0.71129  -0.70293  -0.69951  -0.69691
 Alpha  occ. eigenvalues --   -0.69316  -0.67917  -0.67612  -0.66138  -0.65824
 Alpha  occ. eigenvalues --   -0.63772  -0.63478  -0.63469  -0.63253  -0.62161
 Alpha  occ. eigenvalues --   -0.62072  -0.61796  -0.61570  -0.60268  -0.59908
 Alpha  occ. eigenvalues --   -0.59815  -0.59727  -0.59570  -0.59323  -0.59102
 Alpha  occ. eigenvalues --   -0.58484  -0.57110  -0.56615  -0.55214  -0.55006
 Alpha  occ. eigenvalues --   -0.54484  -0.54198  -0.53877  -0.53719  -0.53253
 Alpha  occ. eigenvalues --   -0.53228  -0.52818  -0.52372  -0.52363  -0.51899
 Alpha  occ. eigenvalues --   -0.51178  -0.51034  -0.50248  -0.50224  -0.50094
 Alpha  occ. eigenvalues --   -0.49875  -0.49616  -0.49344  -0.49188  -0.49041
 Alpha  occ. eigenvalues --   -0.48458  -0.48050  -0.47898  -0.47811  -0.47451
 Alpha  occ. eigenvalues --   -0.47444  -0.47277  -0.47222  -0.47090  -0.46745
 Alpha  occ. eigenvalues --   -0.46728  -0.46484  -0.46418  -0.45976  -0.45846
 Alpha  occ. eigenvalues --   -0.45680  -0.45521  -0.45274  -0.45131  -0.44984
 Alpha  occ. eigenvalues --   -0.44889  -0.44574  -0.44413  -0.44315  -0.44258
 Alpha  occ. eigenvalues --   -0.44117  -0.43832  -0.43826  -0.43592  -0.43307
 Alpha  occ. eigenvalues --   -0.43149  -0.43063  -0.42972  -0.42873  -0.42716
 Alpha  occ. eigenvalues --   -0.42593  -0.42361  -0.42198  -0.41974  -0.41901
 Alpha  occ. eigenvalues --   -0.41768  -0.41539  -0.41527  -0.41393  -0.41346
 Alpha  occ. eigenvalues --   -0.41061  -0.40973  -0.40808  -0.40748  -0.40521
 Alpha  occ. eigenvalues --   -0.40071  -0.40069  -0.39906  -0.39534  -0.39403
 Alpha  occ. eigenvalues --   -0.39310  -0.39299  -0.39131  -0.39076  -0.39001
 Alpha  occ. eigenvalues --   -0.38847  -0.38558  -0.38530  -0.38206  -0.38174
 Alpha  occ. eigenvalues --   -0.38040  -0.37909  -0.37755  -0.37568  -0.37442
 Alpha  occ. eigenvalues --   -0.37293  -0.37267  -0.37021  -0.36944  -0.36794
 Alpha  occ. eigenvalues --   -0.36711  -0.36504  -0.36427  -0.35999  -0.35946
 Alpha  occ. eigenvalues --   -0.35789  -0.35669  -0.35575  -0.35383  -0.35091
 Alpha  occ. eigenvalues --   -0.35015  -0.34667  -0.34369  -0.33874  -0.33726
 Alpha  occ. eigenvalues --   -0.33299  -0.33051  -0.33039  -0.32681  -0.32660
 Alpha  occ. eigenvalues --   -0.32423  -0.32033  -0.31961  -0.31504  -0.31367
 Alpha  occ. eigenvalues --   -0.31351  -0.31170  -0.29675  -0.29482  -0.29194
 Alpha  occ. eigenvalues --   -0.29032  -0.28978  -0.28175  -0.27208  -0.27103
 Alpha  occ. eigenvalues --   -0.26473  -0.26395  -0.26169  -0.25790  -0.25723
 Alpha  occ. eigenvalues --   -0.25310  -0.25231  -0.24623  -0.21024  -0.20964
 Alpha  occ. eigenvalues --   -0.19071  -0.18690
 Alpha virt. eigenvalues --   -0.11432  -0.11071  -0.05330  -0.05158  -0.03912
 Alpha virt. eigenvalues --   -0.03547  -0.02121  -0.01629  -0.00595   0.00541
 Alpha virt. eigenvalues --    0.01040   0.01433   0.01749   0.01932   0.01972

 Mulliken charges:
               1
     1  Mg  11.996971
     2  C    5.970053
     3  C    5.997253
     4  C    6.029895
     5  C    6.016958
     6  N    6.979431
     7  C    6.031997
     8  C    5.989611
     9  C    6.004444
    10  C    5.977892
    11  C    6.002319
    12  C    5.998408
    13  C    5.999866
    14  H    1.002785
    15  N    7.006066
    16  C    5.967494
    17  C    5.981495
    18  C    5.987063
    19  C    5.966136
    20  C    5.999418
    21  C    5.988230
    22  O    7.971894
    23  C    6.007772
    24  N    7.022875
    25  C    5.962553
    26  C    6.008902
    27  C    5.991019
    28  C    6.019037
    29  C    5.998877
    30  C    5.991167
    31  C    6.000898
    32  N    6.995947
    33  C    6.025787
    34  C    6.029195
    35  C    6.004777
    36  C    6.027758
    37  C    5.997132
    38  C    6.011954
    39  O    8.033102
    40  C    6.001548
    41  C    6.003901
    42  O    8.002335
    43  O    8.001086
    44  C    5.998305
    45  H    0.985521
    46  H    0.999465
    47  H    1.014927
    48  H    0.998508
    49  H    0.996922
    50  H    1.000589
    51  H    0.998313
    52  H    0.987063
    53  H    1.006298
    54  H    0.995096
    55  H    0.994320
    56  H    1.000015
    57  H    0.983880
    58  H    0.985999
    59  H    0.986605
    60  H    0.995228
    61  H    0.987109
    62  H    0.991724
    63  H    1.002227
    64  H    1.005036
    65  H    0.996639
    66  H    0.994026
    67  H    1.006311
    68  H    1.010255
    69  H    0.996885
    70  H    0.993989
    71  H    1.015196
    72  H    1.004666
    73  H    1.019150
    74  H    1.014974
    75  H    1.015009
    76  H    1.006843
    77  H    1.006383
    78  H    1.001406
    79  H    1.001815
    80  Mg  11.999891
    81  C    6.000938
    82  C    6.000185
    83  C    5.999009
    84  C    5.999898
    85  N    7.000589
    86  C    5.998793
    87  C    6.000124
    88  C    5.999907
    89  C    6.000799
    90  C    5.999884
    91  C    6.000032
    92  C    6.000127
    93  H    0.999782
    94  N    6.999738
    95  C    6.001187
    96  C    6.000852
    97  C    6.000399
    98  C    6.001494
    99  C    5.999873
   100  C    6.000449
   101  O    8.001125
   102  C    5.999783
   103  N    6.999762
   104  C    6.001186
   105  C    5.999569
   106  C    6.000444
   107  C    5.998948
   108  C    5.999872
   109  C    6.000271
   110  C    6.000012
   111  N    7.000039
   112  C    5.998662
   113  C    5.999115
   114  C    5.999782
   115  C    5.998885
   116  C    5.999896
   117  C    5.999367
   118  O    7.998782
   119  C    5.999867
   120  C    5.999891
   121  O    7.999789
   122  O    7.999948
   123  C    6.000076
   124  H    1.000484
   125  H    1.000079
   126  H    0.999442
   127  H    1.000154
   128  H    1.000079
   129  H    1.000543
   130  H    0.999838
   131  H    1.000134
   132  H    0.999583
   133  H    1.000260
   134  H    0.999860
   135  H    1.000148
   136  H    1.000695
   137  H    1.000614
   138  H    1.000705
   139  H    1.000506
   140  H    1.000314
   141  H    1.000317
   142  H    1.000025
   143  H    0.999883
   144  H    1.000068
   145  H    0.999764
   146  H    1.000341
   147  H    1.000009
   148  H    0.999521
   149  H    0.999929
   150  H    1.000112
   151  H    0.999755
   152  H    0.999401
   153  H    0.999470
   154  H    0.999534
   155  H    0.999820
   156  H    0.999976
   157  H    0.999761
   158  H    0.999854
 Sum of Mulliken charges = 624.00000

 Dipole moment (field-independent basis, Debye):
    X=              2.5183    Y=              3.5275    Z=             -8.5293  Tot=              9.5673
 Quadrupole moment (field-independent basis, Debye-Ang):
   XX=            155.4644   YY=             -4.8446   ZZ=             -1.8777
   XY=             97.2366   XZ=           -237.9909   YZ=              8.0076

 Normal termination of Gaussian 16 at Thu Oct 14 04:35:42 2021.
