 Gaussian 16, Revision A.03,
 Gaussian 16:  ES64L-G16RevA.03 25-Dec-2016

 --------------------------------------------------------
 #p PBE1PBE/Def2SVP td=(nstates=5) density=(transition=1)
 --------------------------------------------------------

 --------------------------------
 TDDFT excited states in gaussian
 --------------------------------
 Symbolic Z-matrix:
 Charge =  0 Multiplicity = 1

                         Standard orientation:
 ---------------------------------------------------------------------
 Center     Atomic      Atomic             Coordinates (Angstroms)
 Number     Number       Type             X           Y           Z
 ---------------------------------------------------------------------
      1         12           0      -27.335470   -0.854187    0.060895
      2          6           0      -28.036823    2.629762    0.637445
      3          6           0      -24.653163    0.162432   -1.789932
      4          6           0      -26.868978   -4.082797   -0.720082
      5          6           0      -30.309187   -1.595649    1.530044
      6          7           0      -26.402193    1.266883   -0.475495
      7          6           0      -26.882155    2.475987   -0.063020
      8          6           0      -25.882591    3.498376   -0.451519
      9          6           0      -24.859458    2.750815   -1.350809
     10          6           0      -25.304438    1.264090   -1.286660
     11          6           0      -24.886515    3.273801   -2.822274
     12          6           0      -25.233751    4.250088    0.683686
     13          6           0      -24.379841    5.469068    0.374063
     14          1           0      -24.660177    6.689643    1.145774
     15          7           0      -25.907933   -1.818332   -0.987385
     16          6           0      -24.905340   -1.203541   -1.787151
     17          6           0      -24.051021   -2.292368   -2.297257
     18          6           0      -24.750898   -3.471614   -2.055486
     19          6           0      -25.950967   -3.142542   -1.265106
     20          6           0      -22.791915   -1.998488   -3.085790
     21          6           0      -24.381993   -4.927139   -2.415038
     22          8           0      -25.176784   -5.883921   -2.355066
     23          6           0      -22.988295   -5.179004   -2.824325
     24          7           0      -28.464917   -2.631032    0.298559
     25          6           0      -28.107694   -3.844770   -0.067964
     26          6           0      -29.163903   -4.930301    0.277159
     27          6           0      -30.095419   -4.136256    1.195566
     28          6           0      -29.576778   -2.725071    1.039713
     29          6           0      -29.883078   -5.463262   -1.007797
     30          6           0      -30.158641   -4.567365    2.643505
     31          6           0      -31.554446   -4.610927    3.290379
     32          7           0      -28.797027    0.265366    0.980744
     33          6           0      -29.961245   -0.204878    1.547958
     34          6           0      -30.747703    0.901904    2.171478
     35          6           0      -29.979952    1.978691    1.776044
     36          6           0      -28.862217    1.583559    1.031173
     37          6           0      -31.925536    0.809219    3.087512
     38          6           0      -29.929677    3.430615    1.864707
     39          8           0      -30.699439    4.170141    2.467428
     40          6           0      -28.664517    3.933896    1.132634
     41          6           0      -29.098424    4.970625    0.231278
     42          8           0      -29.690185    4.818492   -0.864531
     43          8           0      -28.627556    6.180355    0.642742
     44          6           0      -28.717839    7.305207   -0.262387
     45          1           0      -23.744326    0.467199   -2.312498
     46          1           0      -26.812168   -5.102145   -1.107186
     47          1           0      -31.328676   -1.910374    1.761698
     48          1           0      -26.468777    4.185998   -1.059750
     49          1           0      -23.835248    2.857790   -0.993104
     50          1           0      -23.993938    3.580950   -3.368227
     51          1           0      -25.531160    4.151471   -2.777822
     52          1           0      -25.446280    2.653650   -3.522916
     53          1           0      -24.521782    3.620391    1.217510
     54          1           0      -25.919407    4.400853    1.517041
     55          1           0      -24.486810    5.758435   -0.670295
     56          1           0      -23.390572    5.228823    0.762721
     57          1           0      -22.686843   -2.586351   -3.997406
     58          1           0      -21.871792   -2.123963   -2.515419
     59          1           0      -22.726994   -0.986464   -3.486167
     60          1           0      -22.326099   -4.742325   -2.076588
     61          1           0      -22.921868   -4.630520   -3.763283
     62          1           0      -22.846295   -6.258085   -2.777787
     63          1           0      -28.625598   -5.716423    0.807734
     64          1           0      -31.138258   -4.076831    0.885337
     65          1           0      -30.930849   -5.165398   -1.033883
     66          1           0      -29.893674   -6.552947   -1.032330
     67          1           0      -29.349344   -5.010513   -1.843548
     68          1           0      -29.514013   -3.957763    3.275905
     69          1           0      -29.555942   -5.474566    2.671644
     70          1           0      -31.511030   -5.365717    4.074956
     71          1           0      -32.359349   -4.727004    2.563943
     72          1           0      -31.632393   -3.596986    3.682177
     73          1           0      -31.682800    0.929704    4.143453
     74          1           0      -32.438833   -0.107834    2.799712
     75          1           0      -32.686637    1.519642    2.762445
     76          1           0      -28.107009    4.471518    1.899555
     77          1           0      -29.065248    7.055365   -1.265231
     78          1           0      -27.780899    7.861287   -0.278869
     79          1           0      -29.423102    8.057955    0.090827
     80         12           0       28.315191    0.634358    0.380126
     81          6           0       24.946877    0.645247   -0.739159
     82          6           0       27.089729    0.026580    3.588859
     83          6           0       31.312127   -0.520849    1.101252
     84          6           0       29.246182    0.952761   -3.146324
     85          7           0       26.187239    0.115100    1.267823
     86          6           0       25.021783    0.455517    0.663718
     87          6           0       23.904502    0.455727    1.691600
     88          6           0       24.601772    0.837722    2.997401
     89          6           0       26.056267    0.242930    2.631792
     90          6           0       24.728280    2.320663    3.351270
     91          6           0       23.147499   -0.943054    1.657013
     92          6           0       21.677809   -0.788244    1.688200
     93          1           0       20.876285   -1.762447    2.573331
     94          7           0       29.142061   -0.210797    2.124943
     95          6           0       28.480591   -0.296066    3.375215
     96          6           0       29.445472   -0.816968    4.310542
     97          6           0       30.717795   -0.917693    3.687742
     98          6           0       30.461914   -0.575521    2.243334
     99          6           0       29.047700   -1.116896    5.752330
    100          6           0       31.962187   -1.407950    4.315986
    101          8           0       31.932956   -1.756174    5.489874
    102          6           0       33.281918   -1.624356    3.651136
    103          7           0       30.050167    0.176577   -0.955601
    104          6           0       31.187958   -0.093203   -0.285215
    105          6           0       32.398953   -0.063831   -1.235201
    106          6           0       31.782533    0.567291   -2.607020
    107          6           0       30.277442    0.622104   -2.237938
    108          6           0       33.693592    0.650145   -0.637104
    109          6           0       32.106033   -0.220804   -3.914822
    110          6           0       31.013448   -1.199351   -4.465782
    111          7           0       27.382510    0.774007   -1.493495
    112          6           0       27.901732    0.963398   -2.805898
    113          6           0       26.742617    1.302016   -3.741614
    114          6           0       25.625017    1.125863   -2.941508
    115          6           0       26.068926    0.829360   -1.603163
    116          6           0       26.684478    1.683678   -5.233317
    117          6           0       24.199175    1.209613   -2.917857
    118          8           0       23.405641    1.560127   -3.792807
    119          6           0       23.794503    0.754472   -1.561270
    120          6           0       23.176022   -0.636083   -1.832257
    121          8           0       23.774587   -1.691201   -2.030790
    122          8           0       21.764995   -0.463816   -1.887069
    123          6           0       20.972440   -1.569800   -2.243432
    124          1           0       26.773919   -0.071648    4.629692
    125          1           0       32.309231   -0.752214    1.481092
    126          1           0       29.430168    1.205121   -4.192048
    127          1           0       23.175153    1.250468    1.535670
    128          1           0       24.249362    0.440594    3.948654
    129          1           0       24.028307    2.961889    2.816353
    130          1           0       25.769689    2.643128    3.364840
    131          1           0       24.393729    2.336637    4.389187
    132          1           0       23.425239   -1.509505    2.545952
    133          1           0       23.491396   -1.618972    0.874017
    134          1           0       21.426055   -0.889548    0.633128
    135          1           0       21.448601    0.219767    2.033532
    136          1           0       29.420057   -0.375117    6.458613
    137          1           0       29.357734   -2.132227    5.995118
    138          1           0       27.962493   -1.105903    5.854874
    139          1           0       33.690676   -0.649910    3.382664
    140          1           0       33.270151   -2.260232    2.765063
    141          1           0       34.043319   -1.937964    4.364260
    142          1           0       32.588392   -1.121375   -1.417852
    143          1           0       32.094565    1.608691   -2.678321
    144          1           0       33.682983    0.632881    0.452620
    145          1           0       33.971867    1.638535   -1.004742
    146          1           0       34.504555    0.094674   -1.110755
    147          1           0       33.038978   -0.779300   -3.843151
    148          1           0       32.215934    0.583695   -4.641608
    149          1           0       31.716942   -1.912696   -4.895763
    150          1           0       30.344550   -0.836068   -5.246282
    151          1           0       30.493204   -1.626874   -3.608406
    152          1           0       26.205842    2.652691   -5.370446
    153          1           0       25.933326    0.948784   -5.521228
    154          1           0       27.667084    1.485857   -5.661078
    155          1           0       23.020327    1.415952   -1.172264
    156          1           0       19.900996   -1.368901   -2.279441
    157          1           0       21.140666   -2.343796   -1.495675
    158          1           0       21.327433   -1.861059   -3.232398
 ---------------------------------------------------------------------

 SCF Done:  E(RPBE1PBE) =  -4067.34187046     A.U. after   16 cycles

 Excitation energies and oscillator strengths:

 Excited State   1:      Singlet-A      1.8406 eV  673.62 nm  f=0.3461  <S**2>=0.000
     309 -> 315       -0.18906
     311 -> 313        0.68698
 This state for optimization and/or second-order correction.
 Total Energy, E(TD-HF/TD-DFT) =  -4067.27423048
 Copying the excited state density for this state as the 1-particle RhoCI density.

 Excited State   2:      Singlet-A      1.9171 eV  646.72 nm  f=0.3702  <S**2>=0.000
     310 -> 316       -0.19075
     312 -> 314        0.68789

 Excited State   3:      Singlet-A      1.9788 eV  626.56 nm  f=0.0000  <S**2>=0.000
     312 -> 313        0.70711

 Excited State   4:      Singlet-A      2.1315 eV  581.67 nm  f=0.0000  <S**2>=0.000
     311 -> 314        0.70711

 Excited State   5:      Singlet-A      2.1946 eV  564.94 nm  f=0.0642  <S**2>=0.000
     309 -> 313        0.63434
     311 -> 315        0.29985

 The electronic state is 1-A.
 Alpha  occ. eigenvalues --  -46.94705 -46.91905 -19.25824 -19.25386 -19.21607
 Alpha  occ. eigenvalues --  -19.19218 -19.19104 -19.19093 -19.18861 -19.17852
 Alpha  occ. eigenvalues --  -14.41898 -14.41529 -14.41412 -14.40623 -14.39884
 Alpha  occ. eigenvalues --  -14.39476 -14.39428 -14.39266 -10.37668 -10.36126
 Alpha  occ. eigenvalues --  -10.32336 -10.31650 -10.31647 -10.31313 -10.29651
 Alpha  occ. eigenvalues --  -10.29254 -10.29229 -10.29017 -10.28722 -10.28625
 Alpha  occ. eigenvalues --  -10.28461 -10.28442 -10.28409 -10.28265 -10.28263
 Alpha  occ. eigenvalues --  -10.28221 -10.28153 -10.28045 -10.27900 -10.27823
 Alpha  occ. eigenvalues --  -10.27088 -10.27024 -10.26664 -10.26641 -10.26388
 Alpha  occ. eigenvalues --  -10.26251 -10.26215 -10.26130 -10.26085 -10.25921
 Alpha  occ. eigenvalues --  -10.25914 -10.25831 -10.25779 -10.25696 -10.25591
 Alpha  occ. eigenvalues --  -10.25482 -10.25388 -10.25365 -10.25332 -10.25218
 Alpha  occ. eigenvalues --  -10.25190 -10.25019 -10.24968 -10.24950 -10.24926
 Alpha  occ. eigenvalues --  -10.24910 -10.24757 -10.24699 -10.24564 -10.24503
 Alpha  occ. eigenvalues --  -10.24317 -10.23878 -10.23878 -10.23841 -10.23683
 Alpha  occ. eigenvalues --  -10.23598 -10.23491 -10.23486 -10.23416 -10.23327
 Alpha  occ. eigenvalues --  -10.23180 -10.23128 -10.23118 -10.22791 -10.22666
 Alpha  occ. eigenvalues --  -10.22355  -3.16493  -3.14089  -1.89270  -1.88918
 Alpha  occ. eigenvalues --   -1.88669  -1.86939  -1.86454  -1.86325  -1.10895
 Alpha  occ. eigenvalues --   -1.10569  -1.04290  -1.04235  -1.04150  -1.03724
 Alpha  occ. eigenvalues --   -1.03467  -1.00747  -1.00439  -0.99320  -0.98820
 Alpha  occ. eigenvalues --   -0.98080  -0.97685  -0.97495  -0.96816  -0.95996
 Alpha  occ. eigenvalues --   -0.88770  -0.87559  -0.84432  -0.83589  -0.83457
 Alpha  occ. eigenvalues --   -0.83031  -0.82785  -0.82106  -0.81870  -0.81570
 Alpha  occ. eigenvalues --   -0.81399  -0.81193  -0.80982  -0.79925  -0.79083
 Alpha  occ. eigenvalues --   -0.78989  -0.78346  -0.77961  -0.77221  -0.76994
 Alpha  occ. eigenvalues --   -0.76754  -0.75886  -0.75598  -0.75281  -0.75161
 Alpha  occ. eigenvalues --   -0.74640  -0.72944  -0.72376  -0.72042  -0.71769
 Alpha  occ. eigenvalues --   -0.71601  -0.71214  -0.70881  -0.70355  -0.69611
 Alpha  occ. eigenvalues --   -0.69594  -0.67474  -0.67196  -0.66417  -0.66337
 Alpha  occ. eigenvalues --   -0.64286  -0.63935  -0.63660  -0.63185  -0.62505
 Alpha  occ. eigenvalues --   -0.61713  -0.61266  -0.60943  -0.60860  -0.59858
 Alpha  occ. eigenvalues --   -0.59855  -0.59664  -0.59463  -0.59228  -0.59127
 Alpha  occ. eigenvalues --   -0.59117  -0.57150  -0.56784  -0.54932  -0.54510
 Alpha  occ. eigenvalues --   -0.54499  -0.54342  -0.54071  -0.53931  -0.53412
 Alpha  occ. eigenvalues --   -0.53311  -0.52933  -0.52863  -0.52239  -0.51604
 Alpha  occ. eigenvalues --   -0.51069  -0.50669  -0.50591  -0.50262  -0.50252
 Alpha  occ. eigenvalues --   -0.50100  -0.49447  -0.49167  -0.48976  -0.48580
 Alpha  occ. eigenvalues --   -0.48450  -0.48307  -0.47970  -0.47949  -0.47753
 Alpha  occ. eigenvalues --   -0.47664  -0.47475  -0.47334  -0.46757  -0.46656
 Alpha  occ. eigenvalues --   -0.46499  -0.46494  -0.46240  -0.46222  -0.46002
 Alpha  occ. eigenvalues --   -0.45831  -0.45802  -0.45430  -0.45185  -0.45043
 Alpha  occ. eigenvalues --   -0.44877  -0.44800  -0.44599  -0.44522  -0.44248
 Alpha  occ. eigenvalues --   -0.44039  -0.43820  -0.43644  -0.43626  -0.43289
 Alpha  occ. eigenvalues --   -0.43170  -0.43037  -0.43000  -0.42940  -0.42580
 Alpha  occ. eigenvalues --   -0.42534  -0.42402  -0.42226  -0.42026  -0.41909
 Alpha  occ. eigenvalues --   -0.41861  -0.41713  -0.41644  -0.41288  -0.40971
 Alpha  occ. eigenvalues --   -0.40856  -0.40819  -0.40651  -0.40619  -0.40557
 Alpha  occ. eigenvalues --   -0.40397  -0.40204  -0.40098  -0.39961  -0.39923
 Alpha  occ. eigenvalues --   -0.39885  -0.39338  -0.39317  -0.39246  -0.38939
 Alpha  occ. eigenvalues --   -0.38774  -0.38570  -0.38570  -0.38519  -0.38341
 Alpha  occ. eigenvalues --   -0.38154  -0.38130  -0.38036  -0.37841  -0.37355
 Alpha  occ. eigenvalues --   -0.37278  -0.37215  -0.37022  -0.36928  -0.36599
 Alpha  occ. eigenvalues --   -0.36473  -0.36435  -0.36382  -0.36170  -0.36084
 Alpha  occ. eigenvalues --   -0.35990  -0.35881  -0.35789  -0.35747  -0.35375
 Alpha  occ. eigenvalues --   -0.35049  -0.34971  -0.34905  -0.34088  -0.33747
 Alpha  occ. eigenvalues --   -0.33532  -0.33303  -0.32921  -0.32920  -0.32646
 Alpha  occ. eigenvalues --   -0.32132  -0.31612  -0.31331  -0.31075  -0.30998
 Alpha  occ. eigenvalues --   -0.30816  -0.30599  -0.30055  -0.29461  -0.29079
 Alpha  occ. eigenvalues --   -0.28985  -0.28586  -0.28193  -0.27176  -0.26775
 Alpha  occ. eigenvalues --   -0.26270  -0.26204  -0.25889  -0.25883  -0.25746
 Alpha  occ. eigenvalues --   -0.25410  -0.25256  -0.24868  -0.21016  -0.21016
 Alpha  occ. eigenvalues --   -0.18772  -0.18613
 Alpha virt. eigenvalues --   -0.11103  -0.10701  -0.06022  -0.05246  -0.04397
 Alpha virt. eigenvalues --   -0.03513  -0.03162  -0.02209  -0.01923  -0.00137
 Alpha virt. eigenvalues --    0.00082   0.00372   0.00768   0.01440   0.01654

 Mulliken charges:
               1
     1  Mg  12.000019
     2  C    5.999861
     3  C    5.999959
     4  C    6.000145
     5  C    6.000048
     6  N    7.000005
     7  C    6.000089
     8  C    5.999965
     9  C    6.000007
    10  C    5.999933
    11  C    6.000020
    12  C    5.999998
    13  C    5.999995
    14  H    1.000000
    15  N    6.999983
    16  C    5.999895
    17  C    6.000049
    18  C    6.000018
    19  C    5.999884
    20  C    5.999971
    21  C    5.999948
    22  O    7.999949
    23  C    5.999990
    24  N    6.999968
    25  C    5.999900
    26  C    6.000033
    27  C    6.000002
    28  C    6.000084
    29  C    5.999996
    30  C    5.999962
    31  C    6.000018
    32  N    7.000002
    33  C    6.000032
    34  C    6.000026
    35  C    5.999966
    36  C    6.000172
    37  C    6.000066
    38  C    6.000079
    39  O    8.000083
    40  C    5.999945
    41  C    6.000029
    42  O    7.999993
    43  O    7.999999
    44  C    6.000006
    45  H    0.999935
    46  H    0.999992
    47  H    1.000071
    48  H    0.999985
    49  H    0.999968
    50  H    0.999969
    51  H    0.999965
    52  H    1.000001
    53  H    1.000012
    54  H    0.999995
    55  H    0.999997
    56  H    1.000005
    57  H    0.999946
    58  H    0.999936
    59  H    0.999936
    60  H    0.999978
    61  H    0.999970
    62  H    0.999965
    63  H    1.000015
    64  H    1.000014
    65  H    0.999991
    66  H    1.000007
    67  H    1.000005
    68  H    1.000005
    69  H    1.000044
    70  H    1.000025
    71  H    1.000013
    72  H    0.999984
    73  H    1.000064
    74  H    1.000045
    75  H    1.000039
    76  H    1.000016
    77  H    1.000001
    78  H    0.999999
    79  H    1.000015
    80  Mg  11.998051
    81  C    5.982125
    82  C    6.012350
    83  C    6.013619
    84  C    5.985080
    85  N    6.996630
    86  C    6.024751
    87  C    5.996639
    88  C    6.001752
    89  C    5.972117
    90  C    6.001204
    91  C    5.995309
    92  C    5.999107
    93  H    1.006314
    94  N    7.009429
    95  C    5.958345
    96  C    5.982051
    97  C    5.987834
    98  C    5.968978
    99  C    6.004309
   100  C    5.990335
   101  O    7.978074
   102  C    6.002647
   103  N    6.996535
   104  C    5.970224
   105  C    6.010737
   106  C    5.987875
   107  C    6.035074
   108  C    6.003082
   109  C    6.000994
   110  C    5.992224
   111  N    6.997406
   112  C    6.042564
   113  C    6.027720
   114  C    6.000595
   115  C    6.026313
   116  C    6.001659
   117  C    6.019287
   118  O    8.030809
   119  C    5.997299
   120  C    6.002660
   121  O    8.005783
   122  O    8.001523
   123  C    5.997939
   124  H    0.991111
   125  H    0.996493
   126  H    1.009207
   127  H    0.998469
   128  H    0.999667
   129  H    0.986694
   130  H    1.002200
   131  H    0.998352
   132  H    1.011801
   133  H    0.997355
   134  H    0.994372
   135  H    1.002776
   136  H    0.981814
   137  H    0.985396
   138  H    0.983548
   139  H    0.989319
   140  H    0.989041
   141  H    0.988811
   142  H    0.999355
   143  H    1.004236
   144  H    1.008289
   145  H    0.994144
   146  H    0.995499
   147  H    1.009376
   148  H    1.000092
   149  H    1.008186
   150  H    0.996160
   151  H    1.001743
   152  H    1.015889
   153  H    1.011851
   154  H    1.014694
   155  H    1.009164
   156  H    1.004345
   157  H    1.005813
   158  H    0.999391
 Sum of Mulliken charges = 624.00000

 Dipole moment (field-independent basis, Debye):
    X=             -4.2686    Y=              2.0279    Z=             -8.7656  Tot=              9.9584
 Quadrupole moment (field-independent basis, Debye-Ang):
   XX=           -234.5508   YY=              0.7612   ZZ=             -5.9611
   XY=             58.1619   XZ=           -249.7524   YZ=             -1.0426

 Normal termination of Gaussian 16 at Fri Oct 15 04:59:37 2021.
