 Gaussian 16, Revision A.03,
 Gaussian 16:  ES64L-G16RevA.03 25-Dec-2016

 --------------------------------------------------------
 #p PBE1PBE/Def2SVP td=(nstates=5) density=(transition=1)
 --------------------------------------------------------

 --------------------------------
 TDDFT excited states in gaussian
 --------------------------------
 Symbolic Z-matrix:
 Charge =  0 Multiplicity = 1

                         Standard orientation:
 ---------------------------------------------------------------------
 Center     Atomic      Atomic             Coordinates (Angstroms)
 Number     Number       Type             X           Y           Z
 ---------------------------------------------------------------------
      1         12           0      -21.726122    0.458789   -0.240437
      2          6           0      -18.297593    0.383663    0.309645
      3          6           0      -21.191862   -1.188295   -3.332401
      4          6           0      -24.923654   -0.509748   -0.283756
      5          6           0      -22.115028    1.454801    3.118935
      6          7           0      -19.902200   -0.649568   -1.238909
      7          6           0      -18.623490   -0.272972   -0.905127
      8          6           0      -17.622730   -0.799055   -1.885581
      9          6           0      -18.540627   -1.068452   -3.165139
     10          6           0      -19.995338   -1.004188   -2.579076
     11          6           0      -18.338884   -0.057115   -4.403353
     12          6           0      -16.805407   -2.040418   -1.254358
     13          6           0      -15.488883   -2.244766   -1.812230
     14          1           0      -15.265990   -3.667969   -2.366232
     15          7           0      -22.946064   -0.517665   -1.666683
     16          6           0      -22.535616   -1.121511   -2.888127
     17          6           0      -23.727595   -1.627090   -3.547876
     18          6           0      -24.843460   -1.428210   -2.698949
     19          6           0      -24.274974   -0.708894   -1.509781
     20          6           0      -23.660702   -2.380161   -4.824010
     21          6           0      -26.309992   -1.942857   -3.014797
     22          8           0      -26.473850   -2.535171   -4.080303
     23          6           0      -27.522449   -1.466490   -2.222271
     24          7           0      -23.215677    0.399201    1.258996
     25          6           0      -24.482437    0.060444    0.909107
     26          6           0      -25.526178    0.079426    2.190385
     27          6           0      -24.654098    0.927277    3.235479
     28          6           0      -23.253530    0.981534    2.547267
     29          6           0      -26.916711    0.774464    1.933546
     30          6           0      -24.574323    0.277831    4.618332
     31          6           0      -25.065596    1.030680    5.877976
     32          7           0      -20.490555    1.112272    1.279487
     33          6           0      -20.793356    1.511063    2.549003
     34          6           0      -19.598455    1.986928    3.189790
     35          6           0      -18.565288    1.483903    2.312628
     36          6           0      -19.200719    0.924774    1.190783
     37          6           0      -19.493267    2.555055    4.575582
     38          6           0      -17.133758    1.296109    2.201822
     39          8           0      -16.246876    1.754533    2.855793
     40          6           0      -16.837624    0.595588    0.818763
     41          6           0      -16.058754    1.465623   -0.192293
     42          8           0      -16.352668    2.602653   -0.492862
     43          8           0      -14.909848    0.772274   -0.625698
     44          6           0      -13.981910    1.503725   -1.434323
     45          1           0      -20.957717   -1.628497   -4.303116
     46          1           0      -25.887524   -1.004353   -0.147985
     47          1           0      -22.285085    1.777609    4.147688
     48          1           0      -16.977010   -0.014586   -2.281597
     49          1           0      -18.343257   -2.083294   -3.512332
     50          1           0      -18.033236   -0.687986   -5.237930
     51          1           0      -17.600025    0.717950   -4.202087
     52          1           0      -19.319272    0.375584   -4.604724
     53          1           0      -17.429010   -2.899911   -1.499735
     54          1           0      -16.890078   -1.822523   -0.189378
     55          1           0      -14.786192   -2.046306   -1.003835
     56          1           0      -15.331835   -1.572766   -2.655899
     57          1           0      -22.686645   -2.276385   -5.301744
     58          1           0      -24.356856   -1.951561   -5.545396
     59          1           0      -23.829644   -3.445401   -4.664719
     60          1           0      -27.528170   -1.800808   -1.184344
     61          1           0      -28.412198   -1.819756   -2.744506
     62          1           0      -27.533104   -0.377664   -2.273014
     63          1           0      -25.568459   -0.967423    2.489836
     64          1           0      -24.921859    1.981570    3.308599
     65          1           0      -27.711961    0.030660    1.973360
     66          1           0      -26.914781    1.235525    0.945134
     67          1           0      -27.042245    1.518460    2.720926
     68          1           0      -23.577685   -0.113383    4.821436
     69          1           0      -25.077949   -0.685363    4.698711
     70          1           0      -24.312352    1.357039    6.595579
     71          1           0      -25.676676    0.305037    6.415292
     72          1           0      -25.641194    1.917343    5.609528
     73          1           0      -18.543491    3.087783    4.628874
     74          1           0      -19.248975    1.832851    5.353947
     75          1           0      -20.359640    3.126851    4.907022
     76          1           0      -16.208059   -0.247218    1.105489
     77          1           0      -13.534971    0.685355   -1.999718
     78          1           0      -13.154374    1.902544   -0.847875
     79          1           0      -14.486757    2.294132   -1.988296
     80         12           0       20.710687   -0.894303   -0.122478
     81          6           0       21.829715    2.426811   -0.957205
     82          6           0       17.726824    0.357290    0.705696
     83          6           0       20.090308   -3.799541    1.428481
     84          6           0       24.028743   -1.932209   -0.588860
     85          7           0       19.926000    1.134098   -0.081693
     86          6           0       20.460351    2.310058   -0.635296
     87          6           0       19.377745    3.453280   -0.709888
     88          6           0       18.116780    2.760578   -0.110140
     89          6           0       18.591663    1.304762    0.141815
     90          6           0       17.509223    3.377462    1.124092
     91          6           0       19.201887    4.054719   -2.205407
     92          6           0       19.321319    5.579805   -2.314937
     93          1           0       18.048576    6.278960   -2.922113
     94          7           0       19.062303   -1.670594    0.808166
     95          6           0       17.924696   -1.019428    1.070885
     96          6           0       16.971693   -1.867545    1.788924
     97          6           0       17.724495   -3.058189    2.076320
     98          6           0       19.037082   -2.885837    1.445056
     99          6           0       15.603805   -1.448009    2.119228
    100          6           0       17.204620   -4.214203    2.987463
    101          8           0       17.842979   -5.239341    3.158138
    102          6           0       15.886097   -4.160076    3.690984
    103          7           0       21.867950   -2.554921    0.324224
    104          6           0       21.329213   -3.711243    0.878179
    105          6           0       22.394290   -4.855235    0.933609
    106          6           0       23.519130   -4.329734   -0.034334
    107          6           0       23.106133   -2.863982   -0.166121
    108          6           0       22.849377   -5.361624    2.341046
    109          6           0       23.549784   -5.036383   -1.417224
    110          6           0       24.886434   -5.349273   -2.041071
    111          7           0       22.580527    0.033153   -0.610735
    112          6           0       23.819598   -0.522719   -0.757957
    113          6           0       24.768804    0.542389   -1.305112
    114          6           0       24.021181    1.686718   -1.444036
    115          6           0       22.716764    1.349732   -0.943835
    116          6           0       26.198158    0.240855   -1.694304
    117          6           0       24.005090    3.088486   -1.822569
    118          8           0       24.996076    3.704325   -2.267754
    119          6           0       22.532372    3.695445   -1.419299
    120          6           0       22.550970    4.715974   -0.300496
    121          8           0       23.084664    4.453013    0.795349
    122          8           0       22.088778    5.967393   -0.710058
    123          6           0       22.490087    7.031247    0.203027
    124          1           0       16.699012    0.674777    0.892353
    125          1           0       19.781035   -4.736201    1.896246
    126          1           0       25.006527   -2.356787   -0.827735
    127          1           0       19.806541    4.222285   -0.067643
    128          1           0       17.329541    2.945632   -0.842262
    129          1           0       18.067041    4.238175    1.493271
    130          1           0       17.725571    2.585261    1.840027
    131          1           0       16.476362    3.697349    0.983088
    132          1           0       18.213040    3.696977   -2.490938
    133          1           0       19.885599    3.536631   -2.877358
    134          1           0       20.235076    5.779993   -2.874466
    135          1           0       19.448158    6.000731   -1.316703
    136          1           0       15.259941   -1.466685    3.152927
    137          1           0       14.976926   -2.254147    1.739793
    138          1           0       15.231776   -0.583699    1.568644
    139          1           0       15.145080   -4.082042    2.894526
    140          1           0       15.866477   -3.218019    4.239645
    141          1           0       15.845251   -5.057373    4.307200
    142          1           0       21.892759   -5.693957    0.450732
    143          1           0       24.504799   -4.312708    0.430114
    144          1           0       22.181401   -4.851822    3.034945
    145          1           0       23.907864   -5.210730    2.551096
    146          1           0       22.576827   -6.404094    2.510178
    147          1           0       23.018511   -4.269830   -1.981030
    148          1           0       22.951694   -5.945694   -1.480140
    149          1           0       24.788112   -6.354368   -2.451381
    150          1           0       25.701064   -5.379173   -1.316761
    151          1           0       24.965934   -4.700690   -2.913842
    152          1           0       26.376871   -0.810030   -1.467429
    153          1           0       26.854653    0.805550   -1.032687
    154          1           0       26.364014    0.532648   -2.731145
    155          1           0       22.064372    4.084020   -2.323785
    156          1           0       23.227308    7.729678   -0.190516
    157          1           0       22.859646    6.676887    1.165399
    158          1           0       21.585259    7.597963    0.421111
 ---------------------------------------------------------------------

 SCF Done:  E(RPBE1PBE) =  -4067.33550843     A.U. after   16 cycles

 Excitation energies and oscillator strengths:

 Excited State   1:      Singlet-A      1.8324 eV  676.64 nm  f=0.3912  <S**2>=0.000
     309 -> 315       -0.16914
     311 -> 313        0.69507
     311 <- 313       -0.11101
 This state for optimization and/or second-order correction.
 Total Energy, E(TD-HF/TD-DFT) =  -4067.26817064
 Copying the excited state density for this state as the 1-particle RhoCI density.

 Excited State   2:      Singlet-A      1.8518 eV  669.54 nm  f=0.3984  <S**2>=0.000
     310 -> 316       -0.16664
     312 -> 314        0.69602
     312 <- 314       -0.11421

 Excited State   3:      Singlet-A      1.8580 eV  667.30 nm  f=0.0000  <S**2>=0.000
     312 -> 313        0.70711

 Excited State   4:      Singlet-A      2.0655 eV  600.27 nm  f=0.0000  <S**2>=0.000
     311 -> 314        0.70710

 Excited State   5:      Singlet-A      2.2474 eV  551.67 nm  f=0.1028  <S**2>=0.000
     309 -> 313        0.64693
     311 -> 315        0.27105

 The electronic state is 1-A.
 Alpha  occ. eigenvalues --  -46.93218 -46.91806 -19.27233 -19.25858 -19.21005
 Alpha  occ. eigenvalues --  -19.20964 -19.20031 -19.19765 -19.18870 -19.18663
 Alpha  occ. eigenvalues --  -14.42062 -14.41738 -14.41681 -14.41230 -14.39775
 Alpha  occ. eigenvalues --  -14.39265 -14.39070 -14.38862 -10.37734 -10.37183
 Alpha  occ. eigenvalues --  -10.33548 -10.33426 -10.32189 -10.31337 -10.29426
 Alpha  occ. eigenvalues --  -10.29283 -10.29214 -10.28893 -10.28796 -10.28742
 Alpha  occ. eigenvalues --  -10.28572 -10.28494 -10.28445 -10.28436 -10.28253
 Alpha  occ. eigenvalues --  -10.28006 -10.27964 -10.27691 -10.27605 -10.27436
 Alpha  occ. eigenvalues --  -10.27371 -10.27125 -10.26718 -10.26582 -10.26466
 Alpha  occ. eigenvalues --  -10.26394 -10.26359 -10.26286 -10.26272 -10.26073
 Alpha  occ. eigenvalues --  -10.26065 -10.25999 -10.25894 -10.25768 -10.25714
 Alpha  occ. eigenvalues --  -10.25671 -10.25625 -10.25522 -10.25515 -10.25369
 Alpha  occ. eigenvalues --  -10.25345 -10.25205 -10.25110 -10.24867 -10.24628
 Alpha  occ. eigenvalues --  -10.24613 -10.24325 -10.24256 -10.24239 -10.24164
 Alpha  occ. eigenvalues --  -10.24161 -10.24153 -10.24144 -10.23944 -10.23529
 Alpha  occ. eigenvalues --  -10.23522 -10.23458 -10.23369 -10.23368 -10.23293
 Alpha  occ. eigenvalues --  -10.23051 -10.22981 -10.22933 -10.22841 -10.22729
 Alpha  occ. eigenvalues --  -10.22647  -3.15218  -3.14031  -1.88005  -1.87647
 Alpha  occ. eigenvalues --   -1.87406  -1.86853  -1.86390  -1.86282  -1.10987
 Alpha  occ. eigenvalues --   -1.10898  -1.05750  -1.04954  -1.04891  -1.03641
 Alpha  occ. eigenvalues --   -1.03630  -1.02634  -0.99846  -0.98569  -0.97983
 Alpha  occ. eigenvalues --   -0.97429  -0.97234  -0.96972  -0.96520  -0.96206
 Alpha  occ. eigenvalues --   -0.86873  -0.86720  -0.83551  -0.83432  -0.82999
 Alpha  occ. eigenvalues --   -0.82638  -0.82455  -0.82378  -0.81622  -0.81564
 Alpha  occ. eigenvalues --   -0.81211  -0.80835  -0.80386  -0.80112  -0.78569
 Alpha  occ. eigenvalues --   -0.78342  -0.77910  -0.77702  -0.76971  -0.76940
 Alpha  occ. eigenvalues --   -0.76395  -0.76161  -0.75517  -0.75491  -0.74659
 Alpha  occ. eigenvalues --   -0.74545  -0.72812  -0.72252  -0.71901  -0.71609
 Alpha  occ. eigenvalues --   -0.71200  -0.71053  -0.70522  -0.70473  -0.69304
 Alpha  occ. eigenvalues --   -0.69135  -0.67181  -0.66845  -0.65812  -0.65443
 Alpha  occ. eigenvalues --   -0.63641  -0.63410  -0.62965  -0.62782  -0.62181
 Alpha  occ. eigenvalues --   -0.61892  -0.61185  -0.60868  -0.60343  -0.59745
 Alpha  occ. eigenvalues --   -0.59470  -0.59404  -0.59372  -0.58909  -0.58886
 Alpha  occ. eigenvalues --   -0.58732  -0.57460  -0.57132  -0.54908  -0.54268
 Alpha  occ. eigenvalues --   -0.54258  -0.54106  -0.53579  -0.53282  -0.53126
 Alpha  occ. eigenvalues --   -0.53099  -0.52890  -0.52660  -0.52071  -0.51945
 Alpha  occ. eigenvalues --   -0.50872  -0.50850  -0.49992  -0.49921  -0.49637
 Alpha  occ. eigenvalues --   -0.49598  -0.49312  -0.49299  -0.48641  -0.48367
 Alpha  occ. eigenvalues --   -0.48154  -0.47890  -0.47695  -0.47374  -0.47217
 Alpha  occ. eigenvalues --   -0.47171  -0.46982  -0.46875  -0.46621  -0.46423
 Alpha  occ. eigenvalues --   -0.46337  -0.46219  -0.46192  -0.46039  -0.45913
 Alpha  occ. eigenvalues --   -0.45704  -0.45685  -0.45504  -0.45305  -0.44891
 Alpha  occ. eigenvalues --   -0.44801  -0.44521  -0.44311  -0.44209  -0.44128
 Alpha  occ. eigenvalues --   -0.43940  -0.43927  -0.43866  -0.43849  -0.43451
 Alpha  occ. eigenvalues --   -0.43392  -0.43289  -0.43164  -0.42973  -0.42793
 Alpha  occ. eigenvalues --   -0.42723  -0.42608  -0.42558  -0.42092  -0.41900
 Alpha  occ. eigenvalues --   -0.41707  -0.41692  -0.41597  -0.41508  -0.41172
 Alpha  occ. eigenvalues --   -0.41169  -0.40905  -0.40801  -0.40680  -0.40651
 Alpha  occ. eigenvalues --   -0.40431  -0.40426  -0.40082  -0.39997  -0.39774
 Alpha  occ. eigenvalues --   -0.39590  -0.39373  -0.39308  -0.39094  -0.38882
 Alpha  occ. eigenvalues --   -0.38867  -0.38849  -0.38704  -0.38596  -0.38481
 Alpha  occ. eigenvalues --   -0.38418  -0.38258  -0.37951  -0.37912  -0.37827
 Alpha  occ. eigenvalues --   -0.37605  -0.37593  -0.37499  -0.37453  -0.37349
 Alpha  occ. eigenvalues --   -0.37080  -0.36623  -0.36572  -0.36409  -0.35996
 Alpha  occ. eigenvalues --   -0.35993  -0.35916  -0.35656  -0.35517  -0.35374
 Alpha  occ. eigenvalues --   -0.35069  -0.34809  -0.34418  -0.34055  -0.33642
 Alpha  occ. eigenvalues --   -0.33291  -0.33183  -0.32807  -0.32785  -0.32458
 Alpha  occ. eigenvalues --   -0.32255  -0.32112  -0.31677  -0.31511  -0.31288
 Alpha  occ. eigenvalues --   -0.31131  -0.30722  -0.29811  -0.29810  -0.29632
 Alpha  occ. eigenvalues --   -0.29444  -0.28912  -0.28537  -0.27080  -0.26925
 Alpha  occ. eigenvalues --   -0.26355  -0.26221  -0.25873  -0.25622  -0.25601
 Alpha  occ. eigenvalues --   -0.25429  -0.25133  -0.24999  -0.21234  -0.21057
 Alpha  occ. eigenvalues --   -0.18830  -0.18445
 Alpha virt. eigenvalues --   -0.11305  -0.10926  -0.05188  -0.04840  -0.04277
 Alpha virt. eigenvalues --   -0.03801  -0.02351  -0.02251  -0.01688  -0.01476
 Alpha virt. eigenvalues --   -0.00797  -0.00161   0.00349   0.00370   0.01300

 Mulliken charges:
               1
     1  Mg  11.999707
     2  C    6.007160
     3  C    5.980822
     4  C    5.992323
     5  C    6.022174
     6  N    6.992789
     7  C    5.972318
     8  C    6.013285
     9  C    5.989463
    10  C    6.036835
    11  C    5.998739
    12  C    6.001378
    13  C    6.004303
    14  H    0.988588
    15  N    6.994948
    16  C    6.046820
    17  C    6.012374
    18  C    6.018550
    19  C    6.028716
    20  C    5.994335
    21  C    6.013150
    22  O    8.021094
    23  C    5.996528
    24  N    7.013665
    25  C    6.023653
    26  C    5.992236
    27  C    6.007325
    28  C    5.964526
    29  C    5.998442
    30  C    6.002291
    31  C    6.000770
    32  N    6.999272
    33  C    5.958868
    34  C    5.978752
    35  C    5.990741
    36  C    5.976776
    37  C    6.001213
    38  C    5.982374
    39  O    7.970841
    40  C    5.998462
    41  C    5.994679
    42  O    7.994631
    43  O    7.996847
    44  C    6.002730
    45  H    1.008516
    46  H    1.007795
    47  H    0.993458
    48  H    0.997297
    49  H    1.002814
    50  H    1.002487
    51  H    1.012695
    52  H    0.995416
    53  H    0.988713
    54  H    1.007946
    55  H    1.002812
    56  H    0.996107
    57  H    1.017538
    58  H    1.014939
    59  H    1.017307
    60  H    1.011546
    61  H    1.012479
    62  H    1.008156
    63  H    1.001710
    64  H    0.999414
    65  H    0.999611
    66  H    0.996290
    67  H    1.009841
    68  H    1.004799
    69  H    0.991884
    70  H    1.003379
    71  H    0.996148
    72  H    0.996936
    73  H    0.987893
    74  H    0.979118
    75  H    0.983095
    76  H    0.990439
    77  H    0.993980
    78  H    0.996891
    79  H    0.995056
    80  Mg  12.000038
    81  C    6.000573
    82  C    5.999610
    83  C    5.999603
    84  C    6.000428
    85  N    7.000150
    86  C    5.999117
    87  C    6.000255
    88  C    5.999646
    89  C    6.000883
    90  C    5.999975
    91  C    6.000124
    92  C    6.000066
    93  H    0.999775
    94  N    6.999886
    95  C    6.001044
    96  C    6.000697
    97  C    6.000231
    98  C    6.001067
    99  C    5.999794
   100  C    6.000344
   101  O    8.000634
   102  C    5.999998
   103  N    6.999989
   104  C    6.000813
   105  C    5.999804
   106  C    6.000235
   107  C    5.999170
   108  C    6.000040
   109  C    6.000037
   110  C    6.000064
   111  N    6.999920
   112  C    5.998874
   113  C    5.999093
   114  C    6.000028
   115  C    5.999096
   116  C    6.000082
   117  C    5.999372
   118  O    7.999154
   119  C    5.999947
   120  C    5.999819
   121  O    7.999871
   122  O    7.999934
   123  C    6.000079
   124  H    1.000355
   125  H    1.000215
   126  H    0.999684
   127  H    0.999987
   128  H    1.000201
   129  H    1.000344
   130  H    0.999829
   131  H    1.000147
   132  H    0.999728
   133  H    1.000082
   134  H    1.000062
   135  H    0.999970
   136  H    1.000714
   137  H    1.000583
   138  H    1.000573
   139  H    1.000192
   140  H    1.000171
   141  H    1.000394
   142  H    0.999975
   143  H    1.000001
   144  H    0.999888
   145  H    1.000276
   146  H    1.000028
   147  H    1.000030
   148  H    0.999667
   149  H    0.999831
   150  H    0.999953
   151  H    1.000099
   152  H    0.999434
   153  H    0.999422
   154  H    0.999446
   155  H    0.999728
   156  H    0.999880
   157  H    0.999906
   158  H    0.999844
 Sum of Mulliken charges = 624.00000

 Dipole moment (field-independent basis, Debye):
    X=             -7.3890    Y=             -3.7481    Z=             -6.6304  Tot=             10.6117
 Quadrupole moment (field-independent basis, Debye-Ang):
   XX=            293.7013   YY=             -1.1005   ZZ=              2.8393
   XY=             76.1013   XZ=            151.3298   YZ=              0.0673

 Normal termination of Gaussian 16 at Thu Oct 14 10:58:12 2021.
