 Gaussian 16, Revision A.03,
 Gaussian 16:  ES64L-G16RevA.03 25-Dec-2016

 --------------------------------------------------------
 #p PBE1PBE/Def2SVP td=(nstates=5) density=(transition=1)
 --------------------------------------------------------

 --------------------------------
 TDDFT excited states in gaussian
 --------------------------------
 Symbolic Z-matrix:
 Charge =  0 Multiplicity = 1

                         Standard orientation:
 ---------------------------------------------------------------------
 Center     Atomic      Atomic             Coordinates (Angstroms)
 Number     Number       Type             X           Y           Z
 ---------------------------------------------------------------------
      1         12           0       14.172106   -0.295949    0.119728
      2          6           0       11.242995   -1.624687   -1.296240
      3          6           0       14.792694    1.313304   -2.854717
      4          6           0       16.443396    1.479592    1.742763
      5          6           0       13.275707   -1.800227    3.210271
      6          7           0       13.010287    0.022029   -1.731966
      7          6           0       11.811892   -0.630946   -2.120010
      8          6           0       11.549005   -0.532086   -3.566088
      9          6           0       12.773714    0.346624   -4.070825
     10          6           0       13.612855    0.555323   -2.820077
     11          6           0       13.483638   -0.273132   -5.298803
     12          6           0       10.293887    0.202926   -3.925759
     13          6           0        9.928940    1.414815   -3.055529
     14          1           0        9.244131    2.695254   -3.674157
     15          7           0       15.502034    1.191979   -0.458873
     16          6           0       15.663278    1.598523   -1.732601
     17          6           0       16.798072    2.485793   -1.786974
     18          6           0       17.351684    2.502242   -0.483022
     19          6           0       16.457973    1.681372    0.349745
     20          6           0       17.259892    3.255975   -2.994786
     21          6           0       18.619446    3.245022   -0.062233
     22          8           0       19.252364    3.907492   -0.860991
     23          6           0       19.184713    3.372286    1.321389
     24          7           0       14.609268    0.020474    2.206307
     25          6           0       15.660813    0.789028    2.629315
     26          6           0       16.004370    0.513275    4.130122
     27          6           0       14.763869   -0.303838    4.602477
     28          6           0       14.187721   -0.739551    3.273037
     29          6           0       17.310399   -0.279123    4.379335
     30          6           0       13.589354    0.536862    5.293958
     31          6           0       13.022027   -0.012885    6.552355
     32          7           0       12.717903   -1.513622    0.822016
     33          6           0       12.614524   -2.156259    1.993147
     34          6           0       11.667226   -3.326717    1.860740
     35          6           0       11.160022   -3.148044    0.534367
     36          6           0       11.719904   -1.951879    0.002960
     37          6           0       11.281241   -4.405580    2.862408
     38          6           0       10.158467   -3.636715   -0.368847
     39          8           0        9.352202   -4.545221   -0.245971
     40          6           0       10.202633   -2.667503   -1.618393
     41          6           0        8.885697   -1.919700   -1.642616
     42          8           0        8.500379   -1.103865   -0.871946
     43          8           0        8.224529   -2.264489   -2.802230
     44          6           0        7.073556   -1.406629   -3.101666
     45          1           0       15.086272    1.656389   -3.848791
     46          1           0       17.297294    1.920387    2.259909
     47          1           0       13.149411   -2.330469    4.156487
     48          1           0       11.499190   -1.546439   -3.961936
     49          1           0       12.552135    1.388536   -4.301730
     50          1           0       13.543600    0.598589   -5.950664
     51          1           0       12.835829   -1.065928   -5.673032
     52          1           0       14.499689   -0.603865   -5.082574
     53          1           0        9.436582   -0.446751   -4.103957
     54          1           0       10.299277    0.656690   -4.917048
     55          1           0       10.862055    1.695737   -2.566008
     56          1           0        9.304180    0.959661   -2.286816
     57          1           0       17.471119    4.294915   -2.739464
     58          1           0       16.531930    3.153080   -3.799420
     59          1           0       18.188048    2.761470   -3.282304
     60          1           0       18.573908    3.933917    2.027472
     61          1           0       20.033539    4.031223    1.138025
     62          1           0       19.647219    2.453182    1.682747
     63          1           0       16.100672    1.477256    4.629524
     64          1           0       15.021985   -1.170149    5.212108
     65          1           0       17.049310   -1.260329    4.775371
     66          1           0       18.056096    0.322291    4.899017
     67          1           0       17.786402   -0.469781    3.418143
     68          1           0       12.780297    0.730906    4.590151
     69          1           0       14.053446    1.499963    5.507144
     70          1           0       13.070105    0.689451    7.384271
     71          1           0       13.477693   -0.954031    6.860974
     72          1           0       11.958802   -0.230678    6.454950
     73          1           0       10.201283   -4.332530    2.990789
     74          1           0       11.930885   -4.298568    3.731967
     75          1           0       11.444214   -5.351375    2.345835
     76          1           0       10.381024   -3.202355   -2.550976
     77          1           0        7.189939   -0.390343   -2.725462
     78          1           0        6.248040   -1.907328   -2.595680
     79          1           0        6.877374   -1.538091   -4.165431
     80         12           0      -13.544426    0.910651   -0.184520
     81          6           0      -13.809733   -2.577105   -0.155798
     82          6           0      -10.319379    0.684253   -0.748049
     83          6           0      -13.224482    4.251990    0.548209
     84          6           0      -16.889195    1.136302    0.923234
     85          7           0      -12.298651   -0.757114   -0.513056
     86          6           0      -12.569194   -2.107729   -0.532233
     87          6           0      -11.377520   -2.916114   -1.028858
     88          6           0      -10.235959   -1.850388   -0.981957
     89          6           0      -10.984986   -0.570579   -0.846215
     90          6           0       -9.085087   -2.027363   -0.015163
     91          6           0      -11.593228   -3.628877   -2.402059
     92          6           0      -10.408628   -4.466695   -2.895572
     93          1           0      -10.725002   -5.901044   -3.293122
     94          7           0      -11.890098    2.330463   -0.047583
     95          6           0      -10.644515    2.033743   -0.473257
     96          6           0       -9.847231    3.228856   -0.471500
     97          6           0      -10.662217    4.266147    0.013625
     98          6           0      -11.989961    3.621744    0.205196
     99          6           0       -8.385601    3.268758   -0.864711
    100          6           0      -10.356076    5.716435    0.197757
    101          8           0      -11.089285    6.565461    0.771706
    102          6           0       -9.071600    6.305285   -0.372637
    103          7           0      -14.841539    2.428453    0.632992
    104          6           0      -14.443099    3.695088    0.894766
    105          6           0      -15.732682    4.601311    1.280850
    106          6           0      -16.921850    3.642660    0.921888
    107          6           0      -16.219809    2.334827    0.743334
    108          6           0      -15.635372    5.013493    2.801694
    109          6           0      -17.542158    4.019479   -0.473010
    110          6           0      -16.628269    4.165518   -1.679757
    111          7           0      -15.140262   -0.450861    0.256088
    112          6           0      -16.409060   -0.168628    0.682202
    113          6           0      -17.071305   -1.381906    0.818819
    114          6           0      -16.139628   -2.421896    0.536132
    115          6           0      -14.967030   -1.799804    0.196682
    116          6           0      -18.456877   -1.644261    1.293889
    117          6           0      -15.880287   -3.877523    0.459461
    118          8           0      -16.554291   -4.869656    0.711931
    119          6           0      -14.360059   -4.022202   -0.099554
    120          6           0      -13.606998   -5.031775    0.691293
    121          8           0      -13.741978   -5.223049    1.936336
    122          8           0      -12.928971   -5.772719   -0.174776
    123          6           0      -12.517148   -7.062469    0.345435
    124          1           0       -9.268797    0.675566   -1.046208
    125          1           0      -13.148278    5.322918    0.750923
    126          1           0      -17.952408    1.251179    1.139814
    127          1           0      -11.301022   -3.736670   -0.315207
    128          1           0       -9.719179   -1.739017   -1.935800
    129          1           0       -8.919743   -3.031708    0.374727
    130          1           0       -9.202365   -1.324356    0.809972
    131          1           0       -8.211096   -1.567735   -0.477089
    132          1           0      -11.870811   -2.892665   -3.156843
    133          1           0      -12.460864   -4.283702   -2.328255
    134          1           0       -9.770216   -4.776519   -2.068393
    135          1           0       -9.844214   -3.940288   -3.665835
    136          1           0       -7.930347    2.293372   -1.035960
    137          1           0       -7.696329    3.614348   -0.094661
    138          1           0       -8.191619    3.868471   -1.754523
    139          1           0       -8.237243    5.902473    0.200879
    140          1           0       -8.956009    7.357957   -0.115523
    141          1           0       -8.993410    6.200826   -1.455404
    142          1           0      -15.715461    5.525258    0.702791
    143          1           0      -17.558052    3.643673    1.806933
    144          1           0      -14.650831    4.841565    3.237045
    145          1           0      -16.321284    4.473917    3.454954
    146          1           0      -15.787984    6.077735    2.975296
    147          1           0      -17.999417    4.970894   -0.201112
    148          1           0      -18.342123    3.360261   -0.808682
    149          1           0      -15.585964    4.184582   -1.360700
    150          1           0      -16.856680    4.980537   -2.365682
    151          1           0      -16.881388    3.284094   -2.268981
    152          1           0      -19.229205   -1.101230    0.748586
    153          1           0      -18.474906   -1.278771    2.320221
    154          1           0      -18.699917   -2.706197    1.310392
    155          1           0      -14.495088   -4.416357   -1.106453
    156          1           0      -12.688796   -7.838328   -0.401724
    157          1           0      -13.041153   -7.415026    1.233496
    158          1           0      -11.446391   -6.978774    0.534222
 ---------------------------------------------------------------------

 SCF Done:  E(RPBE1PBE) =  -4067.37798042     A.U. after   17 cycles

 Excitation energies and oscillator strengths:

 Excited State   1:      Singlet-A      1.7849 eV  694.65 nm  f=0.0000  <S**2>=0.000
     312 -> 313        0.70710
 This state for optimization and/or second-order correction.
 Total Energy, E(TD-HF/TD-DFT) =  -4067.31238832
 Copying the excited state density for this state as the 1-particle RhoCI density.

 Excited State   2:      Singlet-A      1.8293 eV  677.76 nm  f=0.3890  <S**2>=0.000
     309 -> 315        0.16631
     312 -> 314        0.69495
     312 <- 314       -0.11473

 Excited State   3:      Singlet-A      1.8527 eV  669.22 nm  f=0.3530  <S**2>=0.000
     310 -> 316        0.15628
     311 -> 313        0.69582
     311 <- 313       -0.11156

 Excited State   4:      Singlet-A      2.0414 eV  607.34 nm  f=0.0000  <S**2>=0.000
     311 -> 314        0.70710

 Excited State   5:      Singlet-A      2.1527 eV  575.94 nm  f=0.1529  <S**2>=0.000
     310 -> 313        0.66970
     311 -> 316       -0.19798

 The electronic state is 1-A.
 Alpha  occ. eigenvalues --  -46.92743 -46.92042 -19.27315 -19.25379 -19.20704
 Alpha  occ. eigenvalues --  -19.19450 -19.19389 -19.19083 -19.18892 -19.18493
 Alpha  occ. eigenvalues --  -14.42320 -14.41965 -14.41488 -14.41360 -14.39330
 Alpha  occ. eigenvalues --  -14.39219 -14.39197 -14.37852 -10.36350 -10.36295
 Alpha  occ. eigenvalues --  -10.32641 -10.32228 -10.32187 -10.31795 -10.29577
 Alpha  occ. eigenvalues --  -10.29247 -10.29081 -10.28845 -10.28803 -10.28692
 Alpha  occ. eigenvalues --  -10.28678 -10.28573 -10.28513 -10.28431 -10.28155
 Alpha  occ. eigenvalues --  -10.28144 -10.28012 -10.27956 -10.27666 -10.27156
 Alpha  occ. eigenvalues --  -10.27040 -10.26739 -10.26569 -10.26397 -10.26324
 Alpha  occ. eigenvalues --  -10.26234 -10.26212 -10.26205 -10.26130 -10.26071
 Alpha  occ. eigenvalues --  -10.26027 -10.26003 -10.25964 -10.25904 -10.25804
 Alpha  occ. eigenvalues --  -10.25729 -10.25656 -10.25593 -10.25538 -10.25428
 Alpha  occ. eigenvalues --  -10.25198 -10.25142 -10.24959 -10.24796 -10.24662
 Alpha  occ. eigenvalues --  -10.24520 -10.24500 -10.24200 -10.24198 -10.24198
 Alpha  occ. eigenvalues --  -10.24159 -10.24122 -10.24105 -10.24054 -10.23844
 Alpha  occ. eigenvalues --  -10.23720 -10.23701 -10.23185 -10.23123 -10.22986
 Alpha  occ. eigenvalues --  -10.22980 -10.22860 -10.22850 -10.22842 -10.22516
 Alpha  occ. eigenvalues --  -10.22270  -3.14716  -3.14264  -1.87565  -1.87065
 Alpha  occ. eigenvalues --   -1.87060  -1.86952  -1.86643  -1.86505  -1.12938
 Alpha  occ. eigenvalues --   -1.12110  -1.05186  -1.04794  -1.03897  -1.03723
 Alpha  occ. eigenvalues --   -1.02821  -1.00763  -0.99875  -0.99291  -0.98916
 Alpha  occ. eigenvalues --   -0.98761  -0.98078  -0.97990  -0.97340  -0.97197
 Alpha  occ. eigenvalues --   -0.87625  -0.86273  -0.84236  -0.83810  -0.83806
 Alpha  occ. eigenvalues --   -0.83543  -0.82772  -0.82576  -0.82122  -0.81922
 Alpha  occ. eigenvalues --   -0.81425  -0.80712  -0.80201  -0.80186  -0.79086
 Alpha  occ. eigenvalues --   -0.79080  -0.78536  -0.78063  -0.77151  -0.77085
 Alpha  occ. eigenvalues --   -0.76028  -0.75974  -0.75620  -0.75242  -0.74884
 Alpha  occ. eigenvalues --   -0.74830  -0.72910  -0.72367  -0.71929  -0.71879
 Alpha  occ. eigenvalues --   -0.71647  -0.71215  -0.70488  -0.70451  -0.69582
 Alpha  occ. eigenvalues --   -0.69559  -0.67252  -0.67249  -0.66171  -0.66123
 Alpha  occ. eigenvalues --   -0.64155  -0.64023  -0.63559  -0.63375  -0.63099
 Alpha  occ. eigenvalues --   -0.62613  -0.62231  -0.61600  -0.60365  -0.59849
 Alpha  occ. eigenvalues --   -0.59777  -0.59701  -0.59263  -0.59150  -0.59046
 Alpha  occ. eigenvalues --   -0.58985  -0.57337  -0.56766  -0.55384  -0.54594
 Alpha  occ. eigenvalues --   -0.54254  -0.54153  -0.53853  -0.53600  -0.53504
 Alpha  occ. eigenvalues --   -0.53137  -0.52775  -0.52122  -0.52088  -0.51859
 Alpha  occ. eigenvalues --   -0.51188  -0.50766  -0.50626  -0.50522  -0.50300
 Alpha  occ. eigenvalues --   -0.50055  -0.49995  -0.49914  -0.49765  -0.49281
 Alpha  occ. eigenvalues --   -0.48904  -0.48772  -0.48011  -0.47703  -0.47647
 Alpha  occ. eigenvalues --   -0.47486  -0.47273  -0.47043  -0.46974  -0.46841
 Alpha  occ. eigenvalues --   -0.46688  -0.46335  -0.46291  -0.46128  -0.46038
 Alpha  occ. eigenvalues --   -0.45844  -0.45621  -0.45584  -0.45204  -0.44830
 Alpha  occ. eigenvalues --   -0.44691  -0.44665  -0.44315  -0.44091  -0.44082
 Alpha  occ. eigenvalues --   -0.44018  -0.43670  -0.43607  -0.43503  -0.43493
 Alpha  occ. eigenvalues --   -0.43264  -0.43237  -0.43153  -0.43028  -0.42892
 Alpha  occ. eigenvalues --   -0.42695  -0.42303  -0.41986  -0.41973  -0.41879
 Alpha  occ. eigenvalues --   -0.41679  -0.41627  -0.41532  -0.41481  -0.41183
 Alpha  occ. eigenvalues --   -0.41157  -0.40999  -0.40772  -0.40718  -0.40685
 Alpha  occ. eigenvalues --   -0.40634  -0.40329  -0.40177  -0.40066  -0.39982
 Alpha  occ. eigenvalues --   -0.39564  -0.39548  -0.39238  -0.39185  -0.39023
 Alpha  occ. eigenvalues --   -0.38931  -0.38789  -0.38621  -0.38512  -0.38501
 Alpha  occ. eigenvalues --   -0.38151  -0.38114  -0.38010  -0.37742  -0.37545
 Alpha  occ. eigenvalues --   -0.37467  -0.37450  -0.37266  -0.37253  -0.37109
 Alpha  occ. eigenvalues --   -0.37085  -0.37010  -0.36786  -0.36445  -0.36230
 Alpha  occ. eigenvalues --   -0.36142  -0.36131  -0.35732  -0.35663  -0.35358
 Alpha  occ. eigenvalues --   -0.35307  -0.34861  -0.34501  -0.34175  -0.34105
 Alpha  occ. eigenvalues --   -0.33615  -0.33519  -0.32918  -0.32816  -0.32349
 Alpha  occ. eigenvalues --   -0.32311  -0.32169  -0.31966  -0.31604  -0.31550
 Alpha  occ. eigenvalues --   -0.31323  -0.30841  -0.30016  -0.29492  -0.29265
 Alpha  occ. eigenvalues --   -0.29184  -0.28746  -0.28222  -0.27348  -0.27078
 Alpha  occ. eigenvalues --   -0.26333  -0.26176  -0.25585  -0.25578  -0.25330
 Alpha  occ. eigenvalues --   -0.25228  -0.25199  -0.24392  -0.21304  -0.20970
 Alpha  occ. eigenvalues --   -0.19294  -0.18781
 Alpha virt. eigenvalues --   -0.11732  -0.11314  -0.05398  -0.04884  -0.04087
 Alpha virt. eigenvalues --   -0.04080  -0.02030  -0.01981  -0.01398  -0.01013
 Alpha virt. eigenvalues --   -0.00233   0.00561   0.00779   0.00918   0.01317

 Mulliken charges:
               1
     1  Mg  12.000000
     2  C    6.000000
     3  C    6.000000
     4  C    6.000000
     5  C    6.000000
     6  N    7.000000
     7  C    6.000000
     8  C    6.000000
     9  C    6.000000
    10  C    6.000000
    11  C    6.000000
    12  C    6.000000
    13  C    6.000000
    14  H    1.000000
    15  N    7.000000
    16  C    6.000000
    17  C    6.000000
    18  C    6.000000
    19  C    6.000000
    20  C    6.000000
    21  C    6.000000
    22  O    8.000000
    23  C    6.000000
    24  N    7.000000
    25  C    6.000000
    26  C    6.000000
    27  C    6.000000
    28  C    6.000000
    29  C    6.000000
    30  C    6.000000
    31  C    6.000000
    32  N    7.000000
    33  C    6.000000
    34  C    6.000000
    35  C    6.000000
    36  C    6.000000
    37  C    6.000000
    38  C    6.000000
    39  O    8.000000
    40  C    6.000000
    41  C    6.000000
    42  O    8.000000
    43  O    8.000000
    44  C    6.000000
    45  H    1.000000
    46  H    1.000000
    47  H    1.000000
    48  H    1.000000
    49  H    1.000000
    50  H    1.000000
    51  H    1.000000
    52  H    1.000000
    53  H    1.000000
    54  H    1.000000
    55  H    1.000000
    56  H    1.000000
    57  H    1.000000
    58  H    1.000000
    59  H    1.000000
    60  H    1.000000
    61  H    1.000000
    62  H    1.000000
    63  H    1.000000
    64  H    1.000000
    65  H    1.000000
    66  H    1.000000
    67  H    1.000000
    68  H    1.000000
    69  H    1.000000
    70  H    1.000000
    71  H    1.000000
    72  H    1.000000
    73  H    1.000000
    74  H    1.000000
    75  H    1.000000
    76  H    1.000000
    77  H    1.000000
    78  H    1.000000
    79  H    1.000000
    80  Mg  12.000000
    81  C    6.000000
    82  C    6.000000
    83  C    6.000000
    84  C    6.000000
    85  N    7.000000
    86  C    6.000000
    87  C    6.000000
    88  C    6.000000
    89  C    6.000000
    90  C    6.000000
    91  C    6.000000
    92  C    6.000000
    93  H    1.000000
    94  N    7.000000
    95  C    6.000000
    96  C    6.000000
    97  C    6.000000
    98  C    6.000000
    99  C    6.000000
   100  C    6.000000
   101  O    8.000000
   102  C    6.000000
   103  N    7.000000
   104  C    6.000000
   105  C    6.000000
   106  C    6.000000
   107  C    6.000000
   108  C    6.000000
   109  C    6.000000
   110  C    6.000000
   111  N    7.000000
   112  C    6.000000
   113  C    6.000000
   114  C    6.000000
   115  C    6.000000
   116  C    6.000000
   117  C    6.000000
   118  O    8.000000
   119  C    6.000000
   120  C    6.000000
   121  O    8.000000
   122  O    8.000000
   123  C    6.000000
   124  H    1.000000
   125  H    1.000000
   126  H    1.000000
   127  H    1.000000
   128  H    1.000000
   129  H    1.000000
   130  H    1.000000
   131  H    1.000000
   132  H    1.000000
   133  H    1.000000
   134  H    1.000000
   135  H    1.000000
   136  H    1.000000
   137  H    1.000000
   138  H    1.000000
   139  H    1.000000
   140  H    1.000000
   141  H    1.000000
   142  H    1.000000
   143  H    1.000000
   144  H    1.000000
   145  H    1.000000
   146  H    1.000000
   147  H    1.000000
   148  H    1.000000
   149  H    1.000000
   150  H    1.000000
   151  H    1.000000
   152  H    1.000000
   153  H    1.000000
   154  H    1.000000
   155  H    1.000000
   156  H    1.000000
   157  H    1.000000
   158  H    1.000000
 Sum of Mulliken charges = 624.00000

 Dipole moment (field-independent basis, Debye):
    X=              0.0000    Y=              0.0000    Z=             -0.0000  Tot=              0.0000
 Quadrupole moment (field-independent basis, Debye-Ang):
   XX=              0.0000   YY=             -0.0000   ZZ=             -0.0000
   XY=              0.0000   XZ=             -0.0000   YZ=              0.0000

 Normal termination of Gaussian 16 at Wed Oct 13 23:21:50 2021.
