 Gaussian 16, Revision A.03,
 Gaussian 16:  ES64L-G16RevA.03 25-Dec-2016

 --------------------------------------------------------
 #p PBE1PBE/Def2SVP td=(nstates=5) density=(transition=1)
 --------------------------------------------------------

 --------------------------------
 TDDFT excited states in gaussian
 --------------------------------
 Symbolic Z-matrix:
 Charge =  0 Multiplicity = 1

                         Standard orientation:
 ---------------------------------------------------------------------
 Center     Atomic      Atomic             Coordinates (Angstroms)
 Number     Number       Type             X           Y           Z
 ---------------------------------------------------------------------
      1         12           0       25.664148    0.385483    0.675083
      2          6           0       24.254806   -1.794275   -1.819833
      3          6           0       25.614253    2.849361   -1.687259
      4          6           0       27.254341    2.319864    2.906883
      5          6           0       26.058249   -2.328074    2.683179
      6          7           0       24.924023    0.500048   -1.582513
      7          6           0       24.366859   -0.524387   -2.291410
      8          6           0       23.870484    0.045512   -3.565837
      9          6           0       24.417472    1.499330   -3.605655
     10          6           0       25.097992    1.692804   -2.222928
     11          6           0       25.446857    1.702589   -4.762594
     12          6           0       22.380432   -0.032014   -3.786039
     13          6           0       21.814059    0.309252   -5.154871
     14          1           0       20.869221   -0.653598   -5.741496
     15          7           0       26.229920    2.320892    0.654457
     16          6           0       26.215372    3.179477   -0.479300
     17          6           0       26.641741    4.508752   -0.003012
     18          6           0       27.180469    4.305061    1.264735
     19          6           0       26.952151    2.898650    1.642936
     20          6           0       26.618420    5.715216   -0.918107
     21          6           0       27.832491    5.316697    2.231887
     22          8           0       28.482703    4.995330    3.244147
     23          6           0       27.634314    6.746569    1.932661
     24          7           0       26.613113    0.051309    2.539784
     25          6           0       27.189246    0.957661    3.302480
     26          6           0       27.769173    0.376980    4.621405
     27          6           0       27.148829   -1.021865    4.611055
     28          6           0       26.537567   -1.093928    3.230517
     29          6           0       29.334794    0.350092    4.599506
     30          6           0       26.146127   -1.333272    5.699170
     31          6           0       26.256759   -2.716722    6.364333
     32          7           0       25.162977   -1.603744    0.509342
     33          6           0       25.388413   -2.591372    1.443170
     34          6           0       24.832340   -3.902780    0.992333
     35          6           0       24.425870   -3.553463   -0.279688
     36          6           0       24.677491   -2.205307   -0.561570
     37          6           0       24.642616   -5.157635    1.782485
     38          6           0       23.809367   -4.120162   -1.470170
     39          8           0       23.394736   -5.263237   -1.625631
     40          6           0       23.661900   -3.009438   -2.535249
     41          6           0       24.222004   -3.534463   -3.754331
     42          8           0       25.438934   -3.660333   -4.032467
     43          8           0       23.239854   -3.735373   -4.676005
     44          6           0       23.617598   -3.997118   -6.047683
     45          1           0       25.525983    3.669101   -2.402923
     46          1           0       27.911986    2.893976    3.562660
     47          1           0       26.437870   -3.153243    3.289033
     48          1           0       24.384052   -0.558056   -4.313058
     49          1           0       23.627677    2.237100   -3.748211
     50          1           0       25.384162    2.514235   -5.488128
     51          1           0       25.383820    0.778119   -5.336382
     52          1           0       26.493903    1.675286   -4.459658
     53          1           0       21.850700    0.679292   -3.152151
     54          1           0       21.950700   -0.933966   -3.351129
     55          1           0       22.613319    0.410407   -5.887544
     56          1           0       21.139241    1.147207   -4.982016
     57          1           0       27.529074    6.313375   -0.894017
     58          1           0       25.784521    6.393162   -0.737291
     59          1           0       26.553836    5.483353   -1.981488
     60          1           0       26.568736    6.922381    1.784558
     61          1           0       28.176595    6.862384    0.994893
     62          1           0       27.920143    7.289693    2.832696
     63          1           0       27.376004    1.001756    5.424115
     64          1           0       27.848326   -1.856789    4.640928
     65          1           0       29.718172   -0.669382    4.569180
     66          1           0       29.750935    0.786432    5.507561
     67          1           0       29.617765    0.878472    3.688971
     68          1           0       25.120771   -1.207963    5.352710
     69          1           0       26.179094   -0.454814    6.342812
     70          1           0       25.865830   -2.608587    7.375588
     71          1           0       27.253639   -3.151388    6.284663
     72          1           0       25.606671   -3.308359    5.720121
     73          1           0       23.625923   -5.309475    2.145430
     74          1           0       25.437379   -5.147903    2.527835
     75          1           0       24.994387   -6.005957    1.194053
     76          1           0       22.591219   -2.970584   -2.735633
     77          1           0       24.684110   -3.899680   -6.252301
     78          1           0       23.012037   -3.404411   -6.732773
     79          1           0       23.373688   -5.015548   -6.351155
     80         12           0      -26.025642   -0.578873   -0.532250
     81          6           0      -24.437903    2.572123   -1.009167
     82          6           0      -23.018975   -2.141486   -1.033194
     83          6           0      -27.333776   -3.464896    0.953251
     84          6           0      -28.912031    1.113989    0.540804
     85          7           0      -23.862802    0.277896   -0.732118
     86          6           0      -23.508781    1.509792   -1.133178
     87          6           0      -22.151546    1.447306   -1.809619
     88          6           0      -21.639080   -0.072002   -1.764739
     89          6           0      -23.032674   -0.703239   -1.256798
     90          6           0      -21.241899   -0.505658   -3.193713
     91          6           0      -21.171406    2.401409   -1.146219
     92          6           0      -21.257611    2.532695    0.392977
     93          1           0      -20.118518    1.873322    1.217584
     94          7           0      -25.300522   -2.602646   -0.168390
     95          6           0      -24.006946   -2.980269   -0.456058
     96          6           0      -23.960963   -4.393867   -0.249662
     97          6           0      -25.162391   -4.838259    0.423185
     98          6           0      -26.043240   -3.643115    0.400526
     99          6           0      -22.706515   -5.208098   -0.466678
    100          6           0      -25.405254   -6.173639    1.128289
    101          8           0      -24.513383   -6.997408    1.195225
    102          6           0      -26.647646   -6.524201    1.748734
    103          7           0      -27.811613   -1.090364    0.678388
    104          6           0      -28.152461   -2.327803    1.006669
    105          6           0      -29.480232   -2.412719    1.741744
    106          6           0      -29.786083   -0.862932    1.915593
    107          6           0      -28.845698   -0.225038    0.957752
    108          6           0      -30.623220   -3.197948    0.931028
    109          6           0      -29.632899   -0.430924    3.446316
    110          6           0      -30.836540   -0.024198    4.248398
    111          7           0      -26.661398    1.327584   -0.506784
    112          6           0      -27.918361    1.862977   -0.159089
    113          6           0      -27.966246    3.308200   -0.449045
    114          6           0      -26.639804    3.566273   -0.794451
    115          6           0      -25.815908    2.389857   -0.710608
    116          6           0      -29.195438    4.280755   -0.483490
    117          6           0      -25.750413    4.666326   -1.180776
    118          8           0      -25.935335    5.878537   -1.378898
    119          6           0      -24.307865    4.086341   -1.353640
    120          6           0      -23.603062    4.844408   -0.282185
    121          8           0      -23.894602    4.831684    0.886248
    122          8           0      -22.682675    5.641253   -0.817575
    123          6           0      -21.784283    6.442261    0.085315
    124          1           0      -22.165505   -2.659215   -1.475576
    125          1           0      -27.890643   -4.299279    1.384267
    126          1           0      -29.803267    1.546383    1.001510
    127          1           0      -22.449609    1.814973   -2.791522
    128          1           0      -20.820577   -0.216994   -1.059160
    129          1           0      -20.189498   -0.788504   -3.181464
    130          1           0      -21.333956    0.277518   -3.946658
    131          1           0      -21.845301   -1.385740   -3.414490
    132          1           0      -21.304459    3.402706   -1.555948
    133          1           0      -20.144873    2.079763   -1.324323
    134          1           0      -22.087730    2.039412    0.898430
    135          1           0      -21.283075    3.607862    0.570738
    136          1           0      -21.861183   -4.582243   -0.753861
    137          1           0      -22.949391   -6.004464   -1.171015
    138          1           0      -22.514612   -5.756274    0.455032
    139          1           0      -26.934951   -5.908921    2.601640
    140          1           0      -26.592788   -7.551766    2.107673
    141          1           0      -27.367695   -6.368954    0.944556
    142          1           0      -29.402147   -2.802397    2.756393
    143          1           0      -30.861063   -0.841556    1.735631
    144          1           0      -30.204704   -3.595085    0.005782
    145          1           0      -31.385437   -2.466462    0.661926
    146          1           0      -31.147738   -3.981251    1.480390
    147          1           0      -29.046515    0.483039    3.541493
    148          1           0      -29.141068   -1.211607    4.024986
    149          1           0      -30.945836    1.054068    4.364843
    150          1           0      -30.578092   -0.484270    5.202717
    151          1           0      -31.756450   -0.551213    3.994635
    152          1           0      -29.468354    4.503716    0.547606
    153          1           0      -29.975082    3.789116   -1.065569
    154          1           0      -28.873581    5.223891   -0.924712
    155          1           0      -24.017809    4.308114   -2.381323
    156          1           0      -22.230896    7.386983    0.396210
    157          1           0      -20.836041    6.669451   -0.403538
    158          1           0      -21.595095    5.787996    0.936323
 ---------------------------------------------------------------------

 SCF Done:  E(RPBE1PBE) =  -4067.34810415     A.U. after   16 cycles

 Excitation energies and oscillator strengths:

 Excited State   1:      Singlet-A      1.8532 eV  669.02 nm  f=0.3418  <S**2>=0.000
     309 -> 315       -0.19402
     311 -> 313        0.68724
 This state for optimization and/or second-order correction.
 Total Energy, E(TD-HF/TD-DFT) =  -4067.27999964
 Copying the excited state density for this state as the 1-particle RhoCI density.

 Excited State   2:      Singlet-A      1.9171 eV  646.72 nm  f=0.3715  <S**2>=0.000
     310 -> 316        0.19073
     312 -> 314        0.68789

 Excited State   3:      Singlet-A      1.9259 eV  643.78 nm  f=0.0000  <S**2>=0.000
     312 -> 313        0.70711

 Excited State   4:      Singlet-A      2.1882 eV  566.60 nm  f=0.0000  <S**2>=0.000
     311 -> 314        0.70711

 Excited State   5:      Singlet-A      2.2158 eV  559.54 nm  f=0.0721  <S**2>=0.000
     309 -> 313        0.63258
     311 -> 315        0.30038

 The electronic state is 1-A.
 Alpha  occ. eigenvalues --  -46.93594 -46.91908 -19.25827 -19.25717 -19.19222
 Alpha  occ. eigenvalues --  -19.19144 -19.19095 -19.19089 -19.18864 -19.18268
 Alpha  occ. eigenvalues --  -14.41938 -14.41472 -14.41415 -14.40625 -14.39856
 Alpha  occ. eigenvalues --  -14.39431 -14.39269 -14.39206 -10.36129 -10.35747
 Alpha  occ. eigenvalues --  -10.32339 -10.32198 -10.31653 -10.31419 -10.29783
 Alpha  occ. eigenvalues --  -10.29682 -10.29154 -10.28810 -10.28563 -10.28517
 Alpha  occ. eigenvalues --  -10.28464 -10.28445 -10.28412 -10.28366 -10.28268
 Alpha  occ. eigenvalues --  -10.28224 -10.28156 -10.28048 -10.27826 -10.27722
 Alpha  occ. eigenvalues --  -10.27483 -10.26726 -10.26644 -10.26585 -10.26552
 Alpha  occ. eigenvalues --  -10.26133 -10.26089 -10.26047 -10.26028 -10.25917
 Alpha  occ. eigenvalues --  -10.25900 -10.25833 -10.25782 -10.25770 -10.25694
 Alpha  occ. eigenvalues --  -10.25671 -10.25593 -10.25566 -10.25391 -10.25099
 Alpha  occ. eigenvalues --  -10.25022 -10.24971 -10.24953 -10.24930 -10.24736
 Alpha  occ. eigenvalues --  -10.24702 -10.24574 -10.24506 -10.24451 -10.24325
 Alpha  occ. eigenvalues --  -10.24180 -10.24103 -10.23882 -10.23685 -10.23666
 Alpha  occ. eigenvalues --  -10.23600 -10.23571 -10.23494 -10.23489 -10.23417
 Alpha  occ. eigenvalues --  -10.23332 -10.23183 -10.22981 -10.22934 -10.22479
 Alpha  occ. eigenvalues --  -10.22358  -3.15488  -3.14092  -1.88290  -1.87893
 Alpha  occ. eigenvalues --   -1.87687  -1.86942  -1.86457  -1.86328  -1.11839
 Alpha  occ. eigenvalues --   -1.10898  -1.04940  -1.04237  -1.03728  -1.03586
 Alpha  occ. eigenvalues --   -1.02531  -1.00749  -1.00442  -0.99323  -0.99227
 Alpha  occ. eigenvalues --   -0.98288  -0.97688  -0.97098  -0.96819  -0.96236
 Alpha  occ. eigenvalues --   -0.87562  -0.86318  -0.84435  -0.83592  -0.83263
 Alpha  occ. eigenvalues --   -0.83064  -0.82788  -0.82573  -0.81873  -0.81416
 Alpha  occ. eigenvalues --   -0.81402  -0.80985  -0.80492  -0.79623  -0.78992
 Alpha  occ. eigenvalues --   -0.78924  -0.78349  -0.78347  -0.77224  -0.77094
 Alpha  occ. eigenvalues --   -0.76847  -0.76757  -0.75601  -0.75443  -0.75284
 Alpha  occ. eigenvalues --   -0.74615  -0.72948  -0.72252  -0.72045  -0.71772
 Alpha  occ. eigenvalues --   -0.71650  -0.70883  -0.70707  -0.70572  -0.69614
 Alpha  occ. eigenvalues --   -0.69313  -0.67477  -0.67316  -0.66420  -0.66196
 Alpha  occ. eigenvalues --   -0.63938  -0.63663  -0.63241  -0.62941  -0.62549
 Alpha  occ. eigenvalues --   -0.62508  -0.61151  -0.60947  -0.60863  -0.60022
 Alpha  occ. eigenvalues --   -0.59861  -0.59667  -0.59634  -0.59350  -0.59130
 Alpha  occ. eigenvalues --   -0.58583  -0.57152  -0.57020  -0.54935  -0.54861
 Alpha  occ. eigenvalues --   -0.54512  -0.54074  -0.53866  -0.53607  -0.53415
 Alpha  occ. eigenvalues --   -0.53094  -0.52866  -0.52413  -0.52242  -0.51849
 Alpha  occ. eigenvalues --   -0.51072  -0.50761  -0.50374  -0.50265  -0.50104
 Alpha  occ. eigenvalues --   -0.49611  -0.49494  -0.49123  -0.48979  -0.48583
 Alpha  occ. eigenvalues --   -0.48472  -0.48452  -0.48096  -0.47952  -0.47757
 Alpha  occ. eigenvalues --   -0.47704  -0.47478  -0.47218  -0.46940  -0.46677
 Alpha  occ. eigenvalues --   -0.46659  -0.46501  -0.46426  -0.46242  -0.46094
 Alpha  occ. eigenvalues --   -0.45805  -0.45433  -0.45228  -0.45046  -0.44880
 Alpha  occ. eigenvalues --   -0.44820  -0.44602  -0.44375  -0.44294  -0.44251
 Alpha  occ. eigenvalues --   -0.44049  -0.43821  -0.43647  -0.43536  -0.43292
 Alpha  occ. eigenvalues --   -0.43135  -0.43040  -0.43003  -0.42933  -0.42583
 Alpha  occ. eigenvalues --   -0.42461  -0.42405  -0.42029  -0.41973  -0.41913
 Alpha  occ. eigenvalues --   -0.41716  -0.41649  -0.41623  -0.41343  -0.41291
 Alpha  occ. eigenvalues --   -0.41048  -0.40974  -0.40858  -0.40544  -0.40400
 Alpha  occ. eigenvalues --   -0.40301  -0.40101  -0.39964  -0.39939  -0.39888
 Alpha  occ. eigenvalues --   -0.39827  -0.39579  -0.39340  -0.39152  -0.38777
 Alpha  occ. eigenvalues --   -0.38775  -0.38586  -0.38572  -0.38522  -0.38363
 Alpha  occ. eigenvalues --   -0.38134  -0.38039  -0.37999  -0.37762  -0.37358
 Alpha  occ. eigenvalues --   -0.37270  -0.37218  -0.36931  -0.36893  -0.36602
 Alpha  occ. eigenvalues --   -0.36476  -0.36385  -0.36354  -0.36229  -0.36133
 Alpha  occ. eigenvalues --   -0.36087  -0.35993  -0.35750  -0.35731  -0.35052
 Alpha  occ. eigenvalues --   -0.35022  -0.34975  -0.34908  -0.34745  -0.33750
 Alpha  occ. eigenvalues --   -0.33666  -0.32945  -0.32924  -0.32421  -0.32134
 Alpha  occ. eigenvalues --   -0.32113  -0.31788  -0.31429  -0.31078  -0.31001
 Alpha  occ. eigenvalues --   -0.30727  -0.30602  -0.29292  -0.29143  -0.29082
 Alpha  occ. eigenvalues --   -0.28847  -0.28589  -0.28196  -0.27179  -0.27031
 Alpha  occ. eigenvalues --   -0.26207  -0.26034  -0.25886  -0.25750  -0.25546
 Alpha  occ. eigenvalues --   -0.25413  -0.25383  -0.24500  -0.21241  -0.21019
 Alpha  occ. eigenvalues --   -0.19001  -0.18616
 Alpha virt. eigenvalues --   -0.11282  -0.10704  -0.05944  -0.05249  -0.03982
 Alpha virt. eigenvalues --   -0.03516  -0.02082  -0.01926  -0.01680  -0.00140
 Alpha virt. eigenvalues --    0.00371   0.00399   0.00947   0.01437   0.02540

 Mulliken charges:
               1
     1  Mg  11.999986
     2  C    5.999903
     3  C    5.999993
     4  C    6.000080
     5  C    6.000005
     6  N    7.000007
     7  C    6.000061
     8  C    5.999980
     9  C    6.000006
    10  C    5.999914
    11  C    6.000029
    12  C    5.999992
    13  C    6.000001
    14  H    1.000023
    15  N    7.000083
    16  C    5.999833
    17  C    5.999931
    18  C    5.999915
    19  C    5.999897
    20  C    5.999996
    21  C    5.999947
    22  O    7.999888
    23  C    6.000001
    24  N    7.000017
    25  C    5.999906
    26  C    6.000028
    27  C    6.000004
    28  C    6.000079
    29  C    5.999997
    30  C    5.999958
    31  C    6.000001
    32  N    6.999980
    33  C    6.000092
    34  C    6.000192
    35  C    5.999974
    36  C    6.000157
    37  C    6.000003
    38  C    6.000048
    39  O    8.000166
    40  C    5.999994
    41  C    6.000034
    42  O    7.999996
    43  O    8.000003
    44  C    5.999993
    45  H    0.999928
    46  H    0.999958
    47  H    1.000065
    48  H    0.999992
    49  H    0.999975
    50  H    0.999978
    51  H    0.999959
    52  H    0.999994
    53  H    1.000020
    54  H    0.999991
    55  H    1.000001
    56  H    1.000003
    57  H    0.999933
    58  H    0.999920
    59  H    0.999940
    60  H    0.999970
    61  H    0.999972
    62  H    0.999928
    63  H    1.000003
    64  H    1.000004
    65  H    0.999964
    66  H    0.999983
    67  H    1.000018
    68  H    1.000019
    69  H    1.000048
    70  H    1.000026
    71  H    1.000008
    72  H    0.999992
    73  H    1.000096
    74  H    1.000052
    75  H    1.000064
    76  H    1.000047
    77  H    1.000002
    78  H    1.000019
    79  H    1.000034
    80  Mg  11.994582
    81  C    5.988590
    82  C    6.023861
    83  C    6.012945
    84  C    5.981634
    85  N    6.993824
    86  C    6.026816
    87  C    5.998947
    88  C    6.013561
    89  C    5.959666
    90  C    6.000853
    91  C    5.997328
    92  C    5.992909
    93  H    1.012932
    94  N    7.008157
    95  C    5.959085
    96  C    5.982027
    97  C    5.989469
    98  C    5.964979
    99  C    6.003009
   100  C    5.988446
   101  O    7.982954
   102  C    6.003691
   103  N    6.996391
   104  C    5.973809
   105  C    6.012195
   106  C    5.985763
   107  C    6.036863
   108  C    6.002588
   109  C    5.999322
   110  C    5.998386
   111  N    6.996853
   112  C    6.039620
   113  C    6.026363
   114  C    6.001588
   115  C    6.029783
   116  C    6.004182
   117  C    6.016058
   118  O    8.032017
   119  C    5.999851
   120  C    6.006383
   121  O    8.002486
   122  O    8.001333
   123  C    5.998373
   124  H    0.993511
   125  H    0.990461
   126  H    1.008857
   127  H    0.994482
   128  H    0.994587
   129  H    0.995917
   130  H    0.989931
   131  H    1.003978
   132  H    0.995120
   133  H    1.007285
   134  H    0.999959
   135  H    0.996153
   136  H    0.982216
   137  H    0.981995
   138  H    0.984502
   139  H    0.989465
   140  H    0.988402
   141  H    0.993604
   142  H    0.998428
   143  H    1.004360
   144  H    1.003254
   145  H    0.988467
   146  H    0.998606
   147  H    0.996518
   148  H    1.012522
   149  H    0.997562
   150  H    1.004819
   151  H    1.004393
   152  H    1.015501
   153  H    1.013944
   154  H    1.009788
   155  H    1.009366
   156  H    1.001791
   157  H    1.005595
   158  H    1.004190
 Sum of Mulliken charges = 624.00000

 Dipole moment (field-independent basis, Debye):
    X=             -3.0142    Y=              9.3857    Z=             -0.3170  Tot=              9.8630
 Quadrupole moment (field-independent basis, Debye-Ang):
   XX=            156.4431   YY=             -8.7783   ZZ=              0.3553
   XY=           -241.9673   XZ=              9.7959   YZ=             -1.7507

 Normal termination of Gaussian 16 at Fri Oct 15 03:53:00 2021.
