 Gaussian 16, Revision A.03,
 Gaussian 16:  ES64L-G16RevA.03 25-Dec-2016

 --------------------------------------------------------
 #p PBE1PBE/Def2SVP td=(nstates=5) density=(transition=1)
 --------------------------------------------------------

 --------------------------------
 TDDFT excited states in gaussian
 --------------------------------
 Symbolic Z-matrix:
 Charge =  0 Multiplicity = 1

                         Standard orientation:
 ---------------------------------------------------------------------
 Center     Atomic      Atomic             Coordinates (Angstroms)
 Number     Number       Type             X           Y           Z
 ---------------------------------------------------------------------
      1         12           0      -21.824975   -0.673899   -0.142375
      2          6           0      -23.652396    2.136451    0.774042
      3          6           0      -20.181626    1.164024   -2.438231
      4          6           0      -20.644794   -3.520937   -1.535458
      5          6           0      -24.133445   -2.666066    1.662060
      6          7           0      -21.912363    1.397773   -0.621907
      7          6           0      -22.593413    2.455739   -0.060298
      8          6           0      -22.232509    3.781519   -0.785245
      9          6           0      -21.577364    3.242811   -2.094348
     10          6           0      -21.088964    1.867873   -1.662658
     11          6           0      -22.554430    3.122072   -3.316380
     12          6           0      -21.450109    4.662445    0.205925
     13          6           0      -21.836311    6.092411    0.185956
     14          1           0      -21.469161    6.847223    1.382440
     15          7           0      -20.425533   -1.065551   -1.604693
     16          6           0      -19.818885   -0.144567   -2.397318
     17          6           0      -18.691294   -0.770199   -3.041212
     18          6           0      -18.828632   -2.178519   -2.765699
     19          6           0      -20.068270   -2.314633   -1.995347
     20          6           0      -17.728163   -0.041895   -3.908604
     21          6           0      -18.014773   -3.412619   -3.274776
     22          8           0      -18.265926   -4.568544   -2.928011
     23          6           0      -16.778318   -3.239434   -4.111887
     24          7           0      -22.581484   -2.780697   -0.193004
     25          6           0      -21.771270   -3.794907   -0.772589
     26          6           0      -22.208335   -5.178213   -0.420109
     27          6           0      -23.166667   -4.819830    0.761881
     28          6           0      -23.256789   -3.296474    0.796493
     29          6           0      -22.872463   -5.963483   -1.601434
     30          6           0      -22.670771   -5.357299    2.153916
     31          6           0      -21.210060   -5.000794    2.530219
     32          7           0      -23.477842   -0.370734    1.077218
     33          6           0      -24.287670   -1.271905    1.785585
     34          6           0      -25.246973   -0.494394    2.476555
     35          6           0      -25.004410    0.827326    2.123775
     36          6           0      -23.944885    0.837583    1.277710
     37          6           0      -26.267195   -1.023829    3.433373
     38          6           0      -25.496528    2.116911    2.264806
     39          8           0      -26.475755    2.522889    2.916835
     40          6           0      -24.656785    3.112934    1.409476
     41          6           0      -24.084167    4.105357    2.469085
     42          8           0      -23.228412    3.829023    3.328512
     43          8           0      -24.701770    5.337225    2.281867
     44          6           0      -24.515487    6.392013    3.328420
     45          1           0      -19.790377    1.838382   -3.202936
     46          1           0      -20.300917   -4.532808   -1.762938
     47          1           0      -24.735793   -3.206385    2.395409
     48          1           0      -23.132726    4.363933   -0.978564
     49          1           0      -20.702177    3.847705   -2.329667
     50          1           0      -23.566978    3.495703   -3.161250
     51          1           0      -22.739246    2.075703   -3.556013
     52          1           0      -22.154612    3.710880   -4.141687
     53          1           0      -20.419748    4.652055   -0.146769
     54          1           0      -21.563182    4.223629    1.197636
     55          1           0      -22.925511    6.100578    0.141783
     56          1           0      -21.467747    6.536683   -0.738434
     57          1           0      -17.759799    1.032001   -3.725619
     58          1           0      -17.852978   -0.401375   -4.930577
     59          1           0      -16.712455   -0.322790   -3.629932
     60          1           0      -16.692663   -4.176324   -4.662813
     61          1           0      -15.893985   -3.139893   -3.482064
     62          1           0      -16.880088   -2.424865   -4.829650
     63          1           0      -21.408518   -5.808421   -0.028704
     64          1           0      -24.153875   -5.230307    0.547242
     65          1           0      -23.221307   -5.249406   -2.347913
     66          1           0      -23.730344   -6.589024   -1.354273
     67          1           0      -22.224834   -6.658988   -2.136019
     68          1           0      -22.868785   -6.429255    2.144240
     69          1           0      -23.397219   -4.944444    2.853781
     70          1           0      -21.142664   -4.427382    3.454965
     71          1           0      -20.800474   -4.438804    1.690408
     72          1           0      -20.586340   -5.882343    2.675301
     73          1           0      -27.230924   -0.685215    3.053129
     74          1           0      -26.024234   -0.637785    4.423331
     75          1           0      -26.347077   -2.109972    3.479916
     76          1           0      -25.337782    3.652943    0.752188
     77          1           0      -24.914788    5.973343    4.251925
     78          1           0      -24.997142    7.356482    3.167756
     79          1           0      -23.426947    6.427637    3.283802
     80         12           0       21.862175   -0.547897    0.543236
     81          6           0       21.301334    2.380482   -1.446654
     82          6           0       22.466178    1.383182    3.129294
     83          6           0       23.110295   -3.273284    1.957058
     84          6           0       21.509588   -2.436041   -2.593535
     85          7           0       21.831441    1.635399    0.805078
     86          6           0       21.613403    2.668736   -0.127777
     87          6           0       21.726497    4.114834    0.487158
     88          6           0       22.052636    3.678272    2.044295
     89          6           0       22.114929    2.154097    2.040649
     90          6           0       23.419529    4.294695    2.569732
     91          6           0       20.478160    5.042759    0.285738
     92          6           0       20.401341    6.258186    1.201974
     93          1           0       20.540352    7.613557    0.484879
     94          7           0       22.587356   -0.908734    2.346938
     95          6           0       22.771435   -0.007618    3.369200
     96          6           0       23.275203   -0.634084    4.573193
     97          6           0       23.444256   -2.024863    4.195334
     98          6           0       22.959717   -2.118738    2.772165
     99          6           0       23.480263    0.000140    5.867831
    100          6           0       23.934691   -3.206284    5.014234
    101          8           0       23.922115   -4.342018    4.629960
    102          6           0       24.536542   -2.842640    6.345582
    103          7           0       22.316110   -2.563681   -0.231803
    104          6           0       22.805115   -3.507271    0.611769
    105          6           0       22.911666   -4.884286   -0.096460
    106          6           0       22.264931   -4.592708   -1.495120
    107          6           0       21.956042   -3.109039   -1.437664
    108          6           0       24.326483   -5.546237   -0.217757
    109          6           0       20.970808   -5.409813   -1.842691
    110          6           0       21.262499   -6.864765   -2.271917
    111          7           0       21.515485   -0.193350   -1.567422
    112          6           0       21.327375   -1.018620   -2.652110
    113          6           0       20.948594   -0.237583   -3.761744
    114          6           0       20.970455    1.057625   -3.401882
    115          6           0       21.349279    1.084953   -2.025457
    116          6           0       20.533159   -0.884009   -5.076841
    117          6           0       20.835749    2.466331   -3.786175
    118          8           0       20.573661    2.966121   -4.849722
    119          6           0       21.079474    3.376937   -2.489910
    120          6           0       22.364955    4.111562   -2.700220
    121          8           0       23.514305    3.807797   -2.472720
    122          8           0       21.986415    5.338686   -3.207664
    123          6           0       23.068130    6.308689   -3.501320
    124          1           0       22.735345    1.941019    4.028508
    125          1           0       23.665366   -4.088308    2.427728
    126          1           0       21.334511   -3.148420   -3.403073
    127          1           0       22.641193    4.566189    0.102472
    128          1           0       21.262243    4.083037    2.676822
    129          1           0       23.275888    4.683588    3.577696
    130          1           0       23.923719    5.052818    1.971041
    131          1           0       24.151546    3.504061    2.731616
    132          1           0       19.681124    4.309699    0.416711
    133          1           0       20.265490    5.416408   -0.716130
    134          1           0       21.193919    6.191977    1.946788
    135          1           0       19.394253    6.319720    1.613462
    136          1           0       22.727295   -0.535173    6.446217
    137          1           0       23.332797    1.078434    5.805613
    138          1           0       24.438589   -0.148785    6.364946
    139          1           0       23.769597   -2.908317    7.117205
    140          1           0       25.255402   -2.024522    6.292052
    141          1           0       25.342152   -3.568602    6.451791
    142          1           0       22.142502   -5.499789    0.371015
    143          1           0       23.036782   -4.659684   -2.262162
    144          1           0       24.676090   -5.757753   -1.228685
    145          1           0       24.209149   -6.544857    0.202476
    146          1           0       25.139468   -5.003547    0.264562
    147          1           0       20.456936   -4.931825   -2.675943
    148          1           0       20.345312   -5.333508   -0.952202
    149          1           0       22.291009   -6.959736   -2.620667
    150          1           0       20.522589   -7.102069   -3.036234
    151          1           0       21.192555   -7.591989   -1.462443
    152          1           0       19.851637   -0.241217   -5.634128
    153          1           0       20.089609   -1.856714   -4.863972
    154          1           0       21.412748   -1.140905   -5.667535
    155          1           0       20.242619    4.051504   -2.307431
    156          1           0       22.779588    6.791208   -4.435056
    157          1           0       24.055881    5.860864   -3.609391
    158          1           0       22.963097    6.955264   -2.629556
 ---------------------------------------------------------------------

 SCF Done:  E(RPBE1PBE) =  -4067.39070760     A.U. after   16 cycles

 Excitation energies and oscillator strengths:

 Excited State   1:      Singlet-A      1.8237 eV  679.85 nm  f=0.3577  <S**2>=0.000
     309 -> 315        0.15444
     311 -> 313        0.69677
     311 <- 313       -0.11764
 This state for optimization and/or second-order correction.
 Total Energy, E(TD-HF/TD-DFT) =  -4067.32368792
 Copying the excited state density for this state as the 1-particle RhoCI density.

 Excited State   2:      Singlet-A      1.8601 eV  666.54 nm  f=0.3878  <S**2>=0.000
     310 -> 316       -0.16835
     312 -> 314        0.69334
     312 <- 314       -0.10831

 Excited State   3:      Singlet-A      1.8732 eV  661.89 nm  f=0.0000  <S**2>=0.000
     312 -> 313        0.70711

 Excited State   4:      Singlet-A      2.0567 eV  602.83 nm  f=0.0000  <S**2>=0.000
     311 -> 314        0.70711

 Excited State   5:      Singlet-A      2.2252 eV  557.19 nm  f=0.1243  <S**2>=0.000
     310 -> 314        0.65918
     312 -> 316        0.23949

 The electronic state is 1-A.
 Alpha  occ. eigenvalues --  -46.92001 -46.91716 -19.25407 -19.24503 -19.20231
 Alpha  occ. eigenvalues --  -19.20090 -19.19301 -19.19184 -19.18994 -19.17865
 Alpha  occ. eigenvalues --  -14.41714 -14.41552 -14.40929 -14.40882 -14.39286
 Alpha  occ. eigenvalues --  -14.39030 -14.38527 -14.38161 -10.37073 -10.35945
 Alpha  occ. eigenvalues --  -10.32470 -10.32420 -10.31907 -10.30736 -10.29175
 Alpha  occ. eigenvalues --  -10.28685 -10.28667 -10.28617 -10.28420 -10.28374
 Alpha  occ. eigenvalues --  -10.28135 -10.28124 -10.28009 -10.27971 -10.27870
 Alpha  occ. eigenvalues --  -10.27866 -10.27833 -10.26958 -10.26949 -10.26881
 Alpha  occ. eigenvalues --  -10.26805 -10.26750 -10.26698 -10.26454 -10.26204
 Alpha  occ. eigenvalues --  -10.26141 -10.26013 -10.25939 -10.25773 -10.25720
 Alpha  occ. eigenvalues --  -10.25518 -10.25515 -10.25398 -10.25354 -10.25332
 Alpha  occ. eigenvalues --  -10.25002 -10.24989 -10.24848 -10.24771 -10.24720
 Alpha  occ. eigenvalues --  -10.24707 -10.24601 -10.24482 -10.24446 -10.24441
 Alpha  occ. eigenvalues --  -10.24439 -10.24405 -10.24390 -10.24277 -10.24192
 Alpha  occ. eigenvalues --  -10.24024 -10.23906 -10.23666 -10.23595 -10.23397
 Alpha  occ. eigenvalues --  -10.23361 -10.23302 -10.23272 -10.23238 -10.23101
 Alpha  occ. eigenvalues --  -10.23033 -10.23028 -10.23020 -10.22983 -10.22404
 Alpha  occ. eigenvalues --  -10.21393  -3.14122  -3.13890  -1.86959  -1.86710
 Alpha  occ. eigenvalues --   -1.86477  -1.86369  -1.86268  -1.86115  -1.10416
 Alpha  occ. eigenvalues --   -1.09148  -1.06143  -1.05535  -1.04234  -1.02620
 Alpha  occ. eigenvalues --   -1.02261  -1.01446  -0.99447  -0.98600  -0.98480
 Alpha  occ. eigenvalues --   -0.98167  -0.98003  -0.97140  -0.96856  -0.96213
 Alpha  occ. eigenvalues --   -0.87359  -0.86890  -0.83464  -0.83313  -0.83234
 Alpha  occ. eigenvalues --   -0.82896  -0.82548  -0.82317  -0.82116  -0.81496
 Alpha  occ. eigenvalues --   -0.81437  -0.81201  -0.80847  -0.80386  -0.78888
 Alpha  occ. eigenvalues --   -0.78205  -0.77800  -0.77474  -0.76465  -0.76454
 Alpha  occ. eigenvalues --   -0.76238  -0.75799  -0.75255  -0.75055  -0.74724
 Alpha  occ. eigenvalues --   -0.74437  -0.72555  -0.72442  -0.71370  -0.71303
 Alpha  occ. eigenvalues --   -0.71217  -0.70937  -0.70334  -0.69855  -0.69827
 Alpha  occ. eigenvalues --   -0.69213  -0.67679  -0.67218  -0.66474  -0.65745
 Alpha  occ. eigenvalues --   -0.64136  -0.63972  -0.63191  -0.63136  -0.62203
 Alpha  occ. eigenvalues --   -0.61982  -0.61450  -0.60941  -0.59855  -0.59537
 Alpha  occ. eigenvalues --   -0.59149  -0.59082  -0.59027  -0.58825  -0.58562
 Alpha  occ. eigenvalues --   -0.58470  -0.56160  -0.56025  -0.54644  -0.54458
 Alpha  occ. eigenvalues --   -0.54312  -0.54082  -0.53764  -0.53368  -0.53109
 Alpha  occ. eigenvalues --   -0.52678  -0.52504  -0.52172  -0.51539  -0.51355
 Alpha  occ. eigenvalues --   -0.50714  -0.50562  -0.50173  -0.50144  -0.49877
 Alpha  occ. eigenvalues --   -0.49604  -0.49460  -0.49305  -0.49027  -0.48832
 Alpha  occ. eigenvalues --   -0.48534  -0.48277  -0.48064  -0.47649  -0.47552
 Alpha  occ. eigenvalues --   -0.47431  -0.47314  -0.47019  -0.46963  -0.46537
 Alpha  occ. eigenvalues --   -0.46490  -0.46253  -0.46115  -0.46029  -0.45934
 Alpha  occ. eigenvalues --   -0.45483  -0.45140  -0.45060  -0.44943  -0.44839
 Alpha  occ. eigenvalues --   -0.44437  -0.44251  -0.44137  -0.44070  -0.44035
 Alpha  occ. eigenvalues --   -0.43833  -0.43771  -0.43593  -0.43417  -0.43369
 Alpha  occ. eigenvalues --   -0.43183  -0.43089  -0.42739  -0.42665  -0.42657
 Alpha  occ. eigenvalues --   -0.42494  -0.42425  -0.42337  -0.42062  -0.41777
 Alpha  occ. eigenvalues --   -0.41675  -0.41436  -0.41327  -0.41046  -0.41029
 Alpha  occ. eigenvalues --   -0.40703  -0.40597  -0.40538  -0.40418  -0.40267
 Alpha  occ. eigenvalues --   -0.40236  -0.40004  -0.39932  -0.39785  -0.39642
 Alpha  occ. eigenvalues --   -0.39501  -0.39378  -0.39164  -0.38945  -0.38744
 Alpha  occ. eigenvalues --   -0.38657  -0.38525  -0.38312  -0.38293  -0.38223
 Alpha  occ. eigenvalues --   -0.38021  -0.37971  -0.37847  -0.37643  -0.37589
 Alpha  occ. eigenvalues --   -0.37439  -0.37111  -0.36936  -0.36783  -0.36739
 Alpha  occ. eigenvalues --   -0.36542  -0.36455  -0.36383  -0.35971  -0.35950
 Alpha  occ. eigenvalues --   -0.35797  -0.35763  -0.35631  -0.35488  -0.35377
 Alpha  occ. eigenvalues --   -0.35106  -0.34879  -0.34361  -0.34002  -0.33800
 Alpha  occ. eigenvalues --   -0.33207  -0.33111  -0.33027  -0.32786  -0.32397
 Alpha  occ. eigenvalues --   -0.32090  -0.31917  -0.31627  -0.31507  -0.31439
 Alpha  occ. eigenvalues --   -0.30999  -0.30670  -0.29414  -0.29302  -0.29137
 Alpha  occ. eigenvalues --   -0.29107  -0.28714  -0.28269  -0.26994  -0.26879
 Alpha  occ. eigenvalues --   -0.25787  -0.25766  -0.25655  -0.25494  -0.25365
 Alpha  occ. eigenvalues --   -0.25317  -0.25029  -0.24799  -0.21165  -0.20580
 Alpha  occ. eigenvalues --   -0.18844  -0.18608
 Alpha virt. eigenvalues --   -0.11427  -0.10987  -0.05133  -0.04731  -0.03667
 Alpha virt. eigenvalues --   -0.03321  -0.02020  -0.01785  -0.00509  -0.00247
 Alpha virt. eigenvalues --    0.00378   0.00727   0.00807   0.01395   0.02060

 Mulliken charges:
               1
     1  Mg  12.002551
     2  C    5.975460
     3  C    6.003466
     4  C    6.032533
     5  C    6.016514
     6  N    6.978633
     7  C    6.031861
     8  C    5.996999
     9  C    6.006765
    10  C    5.976697
    11  C    6.003211
    12  C    5.994128
    13  C    6.000544
    14  H    0.998666
    15  N    7.007157
    16  C    5.964645
    17  C    5.980430
    18  C    5.987076
    19  C    5.961865
    20  C    6.003189
    21  C    5.987738
    22  O    7.970838
    23  C    6.004953
    24  N    7.016554
    25  C    5.958252
    26  C    6.014726
    27  C    5.992509
    28  C    6.017850
    29  C    5.999547
    30  C    5.992296
    31  C    5.994594
    32  N    6.998065
    33  C    6.027406
    34  C    6.030191
    35  C    6.000271
    36  C    6.027646
    37  C    5.996987
    38  C    6.014813
    39  O    8.028564
    40  C    6.003866
    41  C    6.003168
    42  O    8.003553
    43  O    8.001568
    44  C    5.999466
    45  H    0.985931
    46  H    0.995855
    47  H    1.015919
    48  H    0.998517
    49  H    0.998627
    50  H    0.984167
    51  H    1.000543
    52  H    0.996663
    53  H    1.011852
    54  H    0.994351
    55  H    0.996271
    56  H    1.005420
    57  H    0.985646
    58  H    0.981528
    59  H    0.982654
    60  H    0.987042
    61  H    0.989354
    62  H    0.996029
    63  H    0.999176
    64  H    1.002899
    65  H    1.000499
    66  H    0.990794
    67  H    1.003447
    68  H    1.009739
    69  H    0.993560
    70  H    0.997380
    71  H    1.013323
    72  H    1.006751
    73  H    1.017473
    74  H    1.018796
    75  H    1.016181
    76  H    1.008086
    77  H    0.999078
    78  H    1.004297
    79  H    1.004341
    80  Mg  12.000038
    81  C    5.999679
    82  C    6.000045
    83  C    6.000293
    84  C    6.000000
    85  N    6.999893
    86  C    6.000401
    87  C    5.999853
    88  C    6.000143
    89  C    5.999725
    90  C    6.000015
    91  C    5.999971
    92  C    6.000010
    93  H    0.999980
    94  N    7.000066
    95  C    5.999588
    96  C    5.999808
    97  C    5.999833
    98  C    5.999638
    99  C    6.000074
   100  C    5.999805
   101  O    7.999688
   102  C    6.000095
   103  N    7.000053
   104  C    5.999535
   105  C    6.000120
   106  C    5.999910
   107  C    6.000296
   108  C    6.000011
   109  C    5.999927
   110  C    6.000007
   111  N    6.999978
   112  C    6.000258
   113  C    6.000370
   114  C    5.999932
   115  C    6.000439
   116  C    5.999985
   117  C    6.000237
   118  O    8.000359
   119  C    6.000115
   120  C    5.999963
   121  O    8.000070
   122  O    8.000043
   123  C    5.999978
   124  H    0.999859
   125  H    0.999911
   126  H    1.000132
   127  H    1.000022
   128  H    0.999954
   129  H    0.999969
   130  H    0.999850
   131  H    1.000041
   132  H    1.000054
   133  H    0.999961
   134  H    1.000041
   135  H    1.000053
   136  H    0.999806
   137  H    0.999792
   138  H    0.999749
   139  H    0.999875
   140  H    0.999902
   141  H    0.999802
   142  H    1.000015
   143  H    0.999984
   144  H    0.999898
   145  H    0.999985
   146  H    1.000021
   147  H    0.999991
   148  H    1.000121
   149  H    0.999999
   150  H    1.000054
   151  H    1.000067
   152  H    1.000205
   153  H    1.000226
   154  H    1.000205
   155  H    1.000130
   156  H    1.000040
   157  H    1.000007
   158  H    1.000049
 Sum of Mulliken charges = 624.00000

 Dipole moment (field-independent basis, Debye):
    X=             -7.5253    Y=              1.0267    Z=              6.7640  Tot=             10.1704
 Quadrupole moment (field-independent basis, Debye-Ang):
   XX=            326.6135   YY=              0.5646   ZZ=             -4.4965
   XY=            -15.5086   XZ=           -151.6085   YZ=             -4.7464

 Normal termination of Gaussian 16 at Thu Oct 14 15:00:54 2021.
