 Gaussian 16, Revision A.03,
 Gaussian 16:  ES64L-G16RevA.03 25-Dec-2016

 --------------------------------------------------------
 #p PBE1PBE/Def2SVP td=(nstates=5) density=(transition=1)
 --------------------------------------------------------

 --------------------------------
 TDDFT excited states in gaussian
 --------------------------------
 Symbolic Z-matrix:
 Charge =  0 Multiplicity = 1

                         Standard orientation:
 ---------------------------------------------------------------------
 Center     Atomic      Atomic             Coordinates (Angstroms)
 Number     Number       Type             X           Y           Z
 ---------------------------------------------------------------------
      1         12           0       30.282073    0.142138    0.007424
      2          6           0       26.960670   -0.753482    0.002948
      3          6           0       30.959682   -1.950893   -2.616976
      4          6           0       33.614678    1.216917   -0.092577
      5          6           0       29.570546    2.851331    2.027377
      6          7           0       28.975472   -1.023070   -1.271783
      7          6           0       27.660906   -1.423770   -1.017923
      8          6           0       27.148777   -2.380092   -2.097945
      9          6           0       28.502177   -2.804910   -2.722328
     10          6           0       29.579443   -1.808676   -2.246785
     11          6           0       28.832168   -4.296623   -2.496530
     12          6           0       26.192759   -1.685080   -3.087565
     13          6           0       24.919198   -2.488639   -3.523544
     14          1           0       24.417016   -2.225172   -4.889313
     15          7           0       32.003004   -0.344872   -1.134468
     16          6           0       32.102501   -1.287715   -2.099335
     17          6           0       33.457258   -1.564321   -2.472871
     18          6           0       34.270052   -0.757059   -1.660154
     19          6           0       33.286466    0.093618   -0.870321
     20          6           0       33.877460   -2.666208   -3.447705
     21          6           0       35.840813   -0.705572   -1.642591
     22          8           0       36.470566   -1.390493   -2.488756
     23          6           0       36.685752    0.097380   -0.562324
     24          7           0       31.371612    1.978926    0.612321
     25          6           0       32.722528    2.082040    0.579092
     26          6           0       33.244381    3.232596    1.400940
     27          6           0       31.967150    3.805308    2.052448
     28          6           0       30.902083    2.811941    1.581024
     29          6           0       34.390269    2.856975    2.398082
     30          6           0       31.719214    5.350926    1.708555
     31          6           0       32.025106    6.318993    2.857296
     32          7           0       28.640391    0.893535    0.906853
     33          6           0       28.457837    2.008686    1.754010
     34          6           0       27.112151    1.955865    2.340424
     35          6           0       26.544724    0.847070    1.728099
     36          6           0       27.471676    0.345400    0.799675
     37          6           0       26.457953    2.859855    3.323005
     38          6           0       25.309932    0.054108    1.644493
     39          8           0       24.298472    0.019945    2.364515
     40          6           0       25.544991   -1.056093    0.543270
     41          6           0       25.438515   -2.455484    1.134264
     42          8           0       25.936484   -2.870138    2.185679
     43          8           0       24.612363   -3.104642    0.265613
     44          6           0       24.173435   -4.433427    0.657799
     45          1           0       31.189667   -2.618944   -3.449494
     46          1           0       34.633649    1.590061    0.030005
     47          1           0       29.280432    3.679668    2.676841
     48          1           0       26.601317   -3.199190   -1.630428
     49          1           0       28.337148   -2.666201   -3.790753
     50          1           0       28.028412   -4.995569   -2.265217
     51          1           0       29.468980   -4.322282   -1.612400
     52          1           0       29.352638   -4.736730   -3.346806
     53          1           0       26.700896   -1.313248   -3.976890
     54          1           0       25.937857   -0.738535   -2.610324
     55          1           0       24.113654   -2.283062   -2.818659
     56          1           0       25.165405   -3.551383   -3.520349
     57          1           0       34.563558   -3.302884   -2.889582
     58          1           0       34.184511   -2.221653   -4.394458
     59          1           0       32.971961   -3.254788   -3.594904
     60          1           0       36.750968    1.120161   -0.931636
     61          1           0       37.675650   -0.358237   -0.553776
     62          1           0       36.244386   -0.139378    0.406167
     63          1           0       33.668845    3.967106    0.716402
     64          1           0       31.869705    3.670021    3.129368
     65          1           0       34.222099    3.289950    3.383778
     66          1           0       35.370246    3.188092    2.054902
     67          1           0       34.486669    1.772669    2.435321
     68          1           0       30.677194    5.562366    1.468929
     69          1           0       32.262927    5.623510    0.804091
     70          1           0       32.495999    7.219533    2.462708
     71          1           0       32.701998    5.844487    3.567436
     72          1           0       31.146177    6.623206    3.425363
     73          1           0       27.209636    3.574488    3.658287
     74          1           0       25.890467    2.274401    4.046675
     75          1           0       25.763211    3.471826    2.746744
     76          1           0       24.866319   -0.951802   -0.303687
     77          1           0       24.970074   -5.062548    1.056911
     78          1           0       23.659647   -5.028973   -0.096793
     79          1           0       23.415229   -4.353579    1.437225
     80         12           0      -30.444226    0.400468   -0.197271
     81          6           0      -27.555622   -0.520604    1.628689
     82          6           0      -31.640806   -2.714005    0.310188
     83          6           0      -33.029277    1.265097   -2.010620
     84          6           0      -28.659540    3.339469   -1.219531
     85          7           0      -29.643926   -1.499045    0.780106
     86          6           0      -28.569455   -1.501223    1.653766
     87          6           0      -28.649220   -2.769351    2.433062
     88          6           0      -29.586918   -3.665921    1.623926
     89          6           0      -30.389967   -2.591573    0.848692
     90          6           0      -28.774772   -4.576814    0.628738
     91          6           0      -29.125683   -2.647974    3.979295
     92          6           0      -28.409967   -3.470540    5.094191
     93          1           0      -28.216805   -4.991482    4.827953
     94          7           0      -32.113330   -0.639950   -0.770572
     95          6           0      -32.407225   -1.864743   -0.447175
     96          6           0      -33.682603   -2.219309   -1.093692
     97          6           0      -34.243037   -1.013171   -1.613201
     98          6           0      -33.107125   -0.054094   -1.505844
     99          6           0      -34.380898   -3.624847   -1.184546
    100          6           0      -35.626340   -0.696275   -2.180575
    101          8           0      -35.935145    0.387922   -2.710965
    102          6           0      -36.588484   -1.780875   -2.300497
    103          7           0      -30.697779    2.048403   -1.602851
    104          6           0      -31.963804    2.229665   -2.153399
    105          6           0      -32.032534    3.660107   -2.814732
    106          6           0      -30.684046    4.304916   -2.408070
    107          6           0      -29.966196    3.181766   -1.656322
    108          6           0      -32.367057    3.613670   -4.305876
    109          6           0      -30.771116    5.662018   -1.665430
    110          6           0      -29.726436    6.745791   -2.020161
    111          7           0      -28.519940    1.267788    0.091190
    112          6           0      -27.921388    2.417207   -0.415040
    113          6           0      -26.651973    2.599855    0.241608
    114          6           0      -26.447818    1.447288    1.001776
    115          6           0      -27.615850    0.641300    0.908455
    116          6           0      -25.805069    3.715640    0.151886
    117          6           0      -25.546617    0.766547    1.943277
    118          8           0      -24.468321    1.072187    2.427264
    119          6           0      -26.262115   -0.544285    2.407134
    120          6           0      -25.333298   -1.702160    2.087969
    121          8           0      -25.127661   -2.352973    1.088589
    122          8           0      -24.784909   -1.963207    3.310378
    123          6           0      -24.073551   -3.251816    3.486285
    124          1           0      -32.080179   -3.687326    0.540011
    125          1           0      -33.986036    1.586683   -2.427177
    126          1           0      -28.197110    4.321266   -1.336861
    127          1           0      -27.713823   -3.316432    2.553296
    128          1           0      -30.322369   -4.175819    2.245716
    129          1           0      -29.230615   -5.549753    0.448298
    130          1           0      -27.797488   -4.869464    1.013413
    131          1           0      -28.772336   -4.028051   -0.312423
    132          1           0      -30.205694   -2.780664    4.033927
    133          1           0      -29.043878   -1.610108    4.304292
    134          1           0      -29.125530   -3.411672    5.915119
    135          1           0      -27.479907   -2.914515    5.212442
    136          1           0      -35.299612   -3.728069   -0.607574
    137          1           0      -33.655094   -4.360736   -0.837321
    138          1           0      -34.760493   -3.892149   -2.170765
    139          1           0      -36.734528   -2.280028   -1.342210
    140          1           0      -36.262053   -2.507757   -3.044370
    141          1           0      -37.559268   -1.320587   -2.481761
    142          1           0      -32.781591    4.214038   -2.248693
    143          1           0      -30.026860    4.395405   -3.272734
    144          1           0      -31.440747    3.536901   -4.876177
    145          1           0      -32.834454    4.518015   -4.694186
    146          1           0      -32.835706    2.656854   -4.533657
    147          1           0      -30.818661    5.572210   -0.580287
    148          1           0      -31.741568    6.132844   -1.828070
    149          1           0      -28.973023    6.652541   -1.237864
    150          1           0      -30.249489    7.691333   -1.873537
    151          1           0      -29.324525    6.568896   -3.017420
    152          1           0      -24.743321    3.614193    0.375474
    153          1           0      -26.256420    4.499124    0.761416
    154          1           0      -25.826681    4.007196   -0.897552
    155          1           0      -26.478178   -0.493785    3.474153
    156          1           0      -24.410070   -3.619810    4.455106
    157          1           0      -22.985459   -3.201394    3.517419
    158          1           0      -24.387127   -3.957674    2.717619
 ---------------------------------------------------------------------

 SCF Done:  E(RPBE1PBE) =  -4067.38897394     A.U. after   16 cycles

 Excitation energies and oscillator strengths:

 Excited State   1:      Singlet-A      1.8386 eV  674.36 nm  f=0.3539  <S**2>=0.000
     309 -> 316        0.16802
     311 -> 313        0.69270
     311 <- 313       -0.10468
 This state for optimization and/or second-order correction.
 Total Energy, E(TD-HF/TD-DFT) =  -4067.32140843
 Copying the excited state density for this state as the 1-particle RhoCI density.

 Excited State   2:      Singlet-A      1.8849 eV  657.79 nm  f=0.3769  <S**2>=0.000
     310 -> 315        0.17658
     312 -> 314        0.68857

 Excited State   3:      Singlet-A      1.9829 eV  625.26 nm  f=0.0000  <S**2>=0.000
     312 -> 313        0.70711

 Excited State   4:      Singlet-A      2.0926 eV  592.48 nm  f=0.0000  <S**2>=0.000
     311 -> 314        0.70711

 Excited State   5:      Singlet-A      2.2418 eV  553.07 nm  f=0.0970  <S**2>=0.000
     309 -> 313        0.64072
     311 -> 316       -0.28286

 The electronic state is 1-A.
 Alpha  occ. eigenvalues --  -46.92740 -46.92570 -19.27068 -19.25054 -19.20570
 Alpha  occ. eigenvalues --  -19.20249 -19.19691 -19.19409 -19.18918 -19.18902
 Alpha  occ. eigenvalues --  -14.41990 -14.41631 -14.41302 -14.40918 -14.39713
 Alpha  occ. eigenvalues --  -14.39426 -14.38878 -14.38663 -10.37041 -10.36240
 Alpha  occ. eigenvalues --  -10.33690 -10.32560 -10.32107 -10.31990 -10.29712
 Alpha  occ. eigenvalues --  -10.29445 -10.29295 -10.29005 -10.29001 -10.28719
 Alpha  occ. eigenvalues --  -10.28684 -10.28567 -10.28468 -10.28388 -10.28108
 Alpha  occ. eigenvalues --  -10.27796 -10.27711 -10.27701 -10.27551 -10.27370
 Alpha  occ. eigenvalues --  -10.27343 -10.27069 -10.26368 -10.26341 -10.25960
 Alpha  occ. eigenvalues --  -10.25946 -10.25933 -10.25923 -10.25855 -10.25802
 Alpha  occ. eigenvalues --  -10.25744 -10.25714 -10.25697 -10.25695 -10.25550
 Alpha  occ. eigenvalues --  -10.25442 -10.25373 -10.25354 -10.25336 -10.25252
 Alpha  occ. eigenvalues --  -10.25244 -10.25163 -10.25046 -10.24991 -10.24869
 Alpha  occ. eigenvalues --  -10.24803 -10.24701 -10.24628 -10.24609 -10.24368
 Alpha  occ. eigenvalues --  -10.24212 -10.24209 -10.24180 -10.24026 -10.23774
 Alpha  occ. eigenvalues --  -10.23578 -10.23517 -10.23450 -10.23265 -10.23263
 Alpha  occ. eigenvalues --  -10.23229 -10.23182 -10.23085 -10.22697 -10.22600
 Alpha  occ. eigenvalues --  -10.22574  -3.14712  -3.14681  -1.87549  -1.87487
 Alpha  occ. eigenvalues --   -1.87087  -1.87042  -1.86934  -1.86925  -1.11677
 Alpha  occ. eigenvalues --   -1.10886  -1.04349  -1.03998  -1.03247  -1.03127
 Alpha  occ. eigenvalues --   -1.02662  -1.02598  -0.99783  -0.99417  -0.98727
 Alpha  occ. eigenvalues --   -0.98554  -0.98010  -0.97688  -0.96748  -0.96735
 Alpha  occ. eigenvalues --   -0.87147  -0.85868  -0.83178  -0.83169  -0.83093
 Alpha  occ. eigenvalues --   -0.82962  -0.82771  -0.82295  -0.81899  -0.81764
 Alpha  occ. eigenvalues --   -0.81332  -0.81247  -0.81165  -0.80574  -0.78567
 Alpha  occ. eigenvalues --   -0.78509  -0.78214  -0.77885  -0.76969  -0.76782
 Alpha  occ. eigenvalues --   -0.76577  -0.75840  -0.75783  -0.75311  -0.74972
 Alpha  occ. eigenvalues --   -0.74518  -0.72651  -0.72324  -0.71747  -0.71719
 Alpha  occ. eigenvalues --   -0.71342  -0.70976  -0.70235  -0.70164  -0.69608
 Alpha  occ. eigenvalues --   -0.69464  -0.67199  -0.66986  -0.66267  -0.66141
 Alpha  occ. eigenvalues --   -0.63535  -0.63363  -0.63220  -0.63111  -0.62337
 Alpha  occ. eigenvalues --   -0.62187  -0.61718  -0.61566  -0.60565  -0.59969
 Alpha  occ. eigenvalues --   -0.59837  -0.59665  -0.59432  -0.59424  -0.59123
 Alpha  occ. eigenvalues --   -0.58897  -0.57328  -0.56529  -0.54985  -0.54488
 Alpha  occ. eigenvalues --   -0.54179  -0.54130  -0.53823  -0.53544  -0.53194
 Alpha  occ. eigenvalues --   -0.52944  -0.52389  -0.52338  -0.52074  -0.51761
 Alpha  occ. eigenvalues --   -0.50745  -0.50499  -0.50435  -0.50412  -0.49803
 Alpha  occ. eigenvalues --   -0.49729  -0.49570  -0.49012  -0.48402  -0.48273
 Alpha  occ. eigenvalues --   -0.48124  -0.47945  -0.47842  -0.47805  -0.47625
 Alpha  occ. eigenvalues --   -0.47391  -0.47273  -0.46992  -0.46969  -0.46669
 Alpha  occ. eigenvalues --   -0.46596  -0.46254  -0.46136  -0.46130  -0.45896
 Alpha  occ. eigenvalues --   -0.45878  -0.45737  -0.45549  -0.45466  -0.45389
 Alpha  occ. eigenvalues --   -0.44958  -0.44605  -0.44580  -0.44143  -0.44105
 Alpha  occ. eigenvalues --   -0.43962  -0.43936  -0.43674  -0.43556  -0.43426
 Alpha  occ. eigenvalues --   -0.43201  -0.42861  -0.42849  -0.42761  -0.42502
 Alpha  occ. eigenvalues --   -0.42349  -0.42236  -0.42108  -0.42083  -0.41980
 Alpha  occ. eigenvalues --   -0.41796  -0.41502  -0.41455  -0.41358  -0.41291
 Alpha  occ. eigenvalues --   -0.41147  -0.40999  -0.40692  -0.40635  -0.40379
 Alpha  occ. eigenvalues --   -0.40314  -0.40061  -0.39762  -0.39643  -0.39531
 Alpha  occ. eigenvalues --   -0.39482  -0.39184  -0.39180  -0.38796  -0.38738
 Alpha  occ. eigenvalues --   -0.38678  -0.38638  -0.38563  -0.38372  -0.38288
 Alpha  occ. eigenvalues --   -0.38169  -0.37824  -0.37781  -0.37713  -0.37537
 Alpha  occ. eigenvalues --   -0.37316  -0.37173  -0.37126  -0.37005  -0.36982
 Alpha  occ. eigenvalues --   -0.36755  -0.36675  -0.36495  -0.36376  -0.36162
 Alpha  occ. eigenvalues --   -0.36072  -0.35754  -0.35748  -0.35540  -0.35419
 Alpha  occ. eigenvalues --   -0.35094  -0.34724  -0.34665  -0.34601  -0.34237
 Alpha  occ. eigenvalues --   -0.33699  -0.33645  -0.33363  -0.33106  -0.32667
 Alpha  occ. eigenvalues --   -0.32390  -0.32372  -0.31914  -0.31620  -0.31463
 Alpha  occ. eigenvalues --   -0.31385  -0.30950  -0.30045  -0.29747  -0.29585
 Alpha  occ. eigenvalues --   -0.29124  -0.28662  -0.28597  -0.26951  -0.26890
 Alpha  occ. eigenvalues --   -0.26481  -0.26252  -0.25912  -0.25764  -0.25607
 Alpha  occ. eigenvalues --   -0.25393  -0.25351  -0.24946  -0.21079  -0.20908
 Alpha  occ. eigenvalues --   -0.18722  -0.18623
 Alpha virt. eigenvalues --   -0.11118  -0.10811  -0.05558  -0.05528  -0.04258
 Alpha virt. eigenvalues --   -0.03988  -0.02489  -0.02147  -0.01113  -0.00882
 Alpha virt. eigenvalues --    0.00242   0.00698   0.01125   0.01273   0.01560

 Mulliken charges:
               1
     1  Mg  12.001014
     2  C    5.973081
     3  C    6.009240
     4  C    6.024402
     5  C    6.000564
     6  N    6.984165
     7  C    6.034643
     8  C    5.992617
     9  C    6.008348
    10  C    5.969588
    11  C    6.002951
    12  C    6.000410
    13  C    5.998657
    14  H    1.003700
    15  N    7.004456
    16  C    5.967347
    17  C    5.979715
    18  C    5.987806
    19  C    5.962565
    20  C    6.001725
    21  C    5.988914
    22  O    7.979254
    23  C    5.997995
    24  N    7.006894
    25  C    5.965219
    26  C    6.010701
    27  C    5.992258
    28  C    6.031609
    29  C    6.000637
    30  C    5.996886
    31  C    5.999431
    32  N    7.000040
    33  C    6.035657
    34  C    6.024096
    35  C    6.003044
    36  C    6.026521
    37  C    5.998229
    38  C    6.017297
    39  O    8.030313
    40  C    6.000484
    41  C    6.005704
    42  O    8.001964
    43  O    8.001762
    44  C    5.998389
    45  H    0.989710
    46  H    0.994656
    47  H    1.012740
    48  H    0.998187
    49  H    0.995019
    50  H    0.987305
    51  H    0.999259
    52  H    1.000798
    53  H    1.008317
    54  H    0.992704
    55  H    0.995276
    56  H    1.003858
    57  H    0.986313
    58  H    0.983833
    59  H    0.985155
    60  H    0.990099
    61  H    0.989421
    62  H    0.991735
    63  H    0.999266
    64  H    0.997528
    65  H    0.990449
    66  H    1.002390
    67  H    1.003442
    68  H    0.996873
    69  H    1.011023
    70  H    1.005268
    71  H    1.005261
    72  H    0.997990
    73  H    1.014715
    74  H    1.015004
    75  H    1.018335
    76  H    1.007392
    77  H    1.004859
    78  H    1.005087
    79  H    1.000438
    80  Mg  11.999984
    81  C    6.000113
    82  C    5.999967
    83  C    5.999888
    84  C    6.000001
    85  N    6.999929
    86  C    5.999827
    87  C    6.000067
    88  C    5.999987
    89  C    6.000141
    90  C    6.000003
    91  C    6.000008
    92  C    6.000000
    93  H    0.999966
    94  N    6.999984
    95  C    6.000156
    96  C    6.000159
    97  C    6.000063
    98  C    6.000194
    99  C    5.999963
   100  C    6.000072
   101  O    8.000158
   102  C    5.999955
   103  N    7.000054
   104  C    6.000218
   105  C    5.999933
   106  C    6.000039
   107  C    5.999898
   108  C    5.999983
   109  C    6.000028
   110  C    6.000004
   111  N    6.999979
   112  C    5.999852
   113  C    5.999791
   114  C    5.999996
   115  C    5.999809
   116  C    6.000067
   117  C    5.999930
   118  O    7.999786
   119  C    5.999990
   120  C    5.999986
   121  O    7.999959
   122  O    8.000000
   123  C    6.000018
   124  H    1.000032
   125  H    1.000064
   126  H    0.999973
   127  H    0.999968
   128  H    0.999993
   129  H    1.000000
   130  H    1.000044
   131  H    1.000001
   132  H    0.999946
   133  H    1.000016
   134  H    0.999985
   135  H    1.000010
   136  H    1.000118
   137  H    1.000088
   138  H    1.000107
   139  H    1.000041
   140  H    1.000050
   141  H    1.000095
   142  H    1.000021
   143  H    1.000004
   144  H    1.000043
   145  H    1.000047
   146  H    0.999970
   147  H    0.999997
   148  H    0.999963
   149  H    1.000018
   150  H    0.999987
   151  H    0.999988
   152  H    0.999889
   153  H    0.999877
   154  H    0.999908
   155  H    0.999950
   156  H    0.999973
   157  H    0.999948
   158  H    0.999982
 Sum of Mulliken charges = 624.00000

 Dipole moment (field-independent basis, Debye):
    X=             -7.9275    Y=              3.5854    Z=              5.0807  Tot=             10.0754
 Quadrupole moment (field-independent basis, Debye-Ang):
   XX=           -474.6984   YY=              4.2782   ZZ=             -0.4630
   XY=            110.8173   XZ=            154.5295   YZ=              0.5602

 Normal termination of Gaussian 16 at Fri Oct 15 16:07:45 2021.
