 Gaussian 16, Revision A.03,
 Gaussian 16:  ES64L-G16RevA.03 25-Dec-2016

 --------------------------------------------------------
 #p PBE1PBE/Def2SVP td=(nstates=5) density=(transition=1)
 --------------------------------------------------------

 --------------------------------
 TDDFT excited states in gaussian
 --------------------------------
 Symbolic Z-matrix:
 Charge =  0 Multiplicity = 1

                         Standard orientation:
 ---------------------------------------------------------------------
 Center     Atomic      Atomic             Coordinates (Angstroms)
 Number     Number       Type             X           Y           Z
 ---------------------------------------------------------------------
      1         12           0      -13.504492   -0.531706    0.184101
      2          6           0      -12.930052    2.911558   -0.632548
      3          6           0      -12.600193    0.211989    3.427663
      4          6           0      -13.428975   -3.750362    0.740664
      5          6           0      -14.160217   -1.049951   -3.179212
      6          7           0      -12.549412    1.354971    1.239354
      7          6           0      -12.559609    2.605474    0.683247
      8          6           0      -12.327459    3.666811    1.791882
      9          6           0      -12.157361    2.798237    3.107920
     10          6           0      -12.424488    1.331355    2.609052
     11          6           0      -10.768517    2.872470    3.871331
     12          6           0      -13.458107    4.718761    1.946301
     13          6           0      -13.063070    6.144319    2.100522
     14          1           0      -11.622013    6.605107    2.543490
     15          7           0      -13.057275   -1.682739    1.884284
     16          6           0      -12.835294   -1.214520    3.179079
     17          6           0      -12.591302   -2.367733    4.066582
     18          6           0      -12.951947   -3.535268    3.290170
     19          6           0      -13.155744   -3.026863    1.913774
     20          6           0      -12.148140   -2.302181    5.496801
     21          6           0      -13.079756   -5.023220    3.693286
     22          8           0      -13.684738   -5.894388    3.033470
     23          6           0      -12.598321   -5.408049    5.034256
     24          7           0      -13.695300   -2.098668   -1.038758
     25          6           0      -13.551173   -3.374015   -0.538289
     26          6           0      -13.981512   -4.439227   -1.584504
     27          6           0      -14.572851   -3.506601   -2.732294
     28          6           0      -14.136353   -2.118331   -2.297432
     29          6           0      -12.891093   -5.464312   -2.100699
     30          6           0      -16.075072   -3.559564   -2.961141
     31          6           0      -16.523014   -4.125568   -4.324980
     32          7           0      -13.735580    0.676115   -1.535381
     33          6           0      -13.974485    0.311514   -2.839270
     34          6           0      -13.917769    1.493444   -3.709384
     35          6           0      -13.568949    2.522788   -2.853143
     36          6           0      -13.466349    1.987880   -1.549593
     37          6           0      -14.103244    1.585020   -5.188073
     38          6           0      -13.332433    3.921612   -2.845524
     39          8           0      -13.454374    4.807305   -3.738945
     40          6           0      -12.918603    4.229853   -1.469115
     41          6           0      -11.609539    4.971960   -1.474746
     42          8           0      -10.557844    4.504853   -1.751116
     43          8           0      -11.795076    6.222714   -1.053249
     44          6           0      -10.773412    7.191138   -1.265055
     45          1           0      -12.316159    0.356586    4.472266
     46          1           0      -13.483333   -4.840863    0.786147
     47          1           0      -14.290947   -1.236824   -4.246365
     48          1           0      -11.401646    4.177353    1.524130
     49          1           0      -12.936432    3.055381    3.824943
     50          1           0      -10.080568    3.638785    3.515233
     51          1           0      -10.256203    1.928512    3.679753
     52          1           0      -10.929047    2.966903    4.945731
     53          1           0      -14.086686    4.539902    2.819436
     54          1           0      -14.130386    4.743718    1.089160
     55          1           0      -13.664223    6.609253    2.882488
     56          1           0      -13.279148    6.642124    1.155623
     57          1           0      -11.252093   -2.908913    5.625656
     58          1           0      -12.954771   -2.738519    6.085923
     59          1           0      -12.105068   -1.273787    5.856971
     60          1           0      -11.524177   -5.224531    5.061353
     61          1           0      -12.738737   -6.487212    5.090891
     62          1           0      -13.203040   -4.970919    5.828355
     63          1           0      -14.808103   -4.979534   -1.121972
     64          1           0      -14.084899   -3.805579   -3.659935
     65          1           0      -11.936337   -5.273404   -1.612011
     66          1           0      -12.822524   -5.505508   -3.188436
     67          1           0      -13.244236   -6.462922   -1.842973
     68          1           0      -16.635533   -2.651041   -2.740301
     69          1           0      -16.475591   -4.262337   -2.231287
     70          1           0      -17.320081   -3.593108   -4.843508
     71          1           0      -17.048143   -5.057879   -4.115554
     72          1           0      -15.732141   -4.251509   -5.063179
     73          1           0      -14.608707    0.712150   -5.602233
     74          1           0      -13.136648    1.533841   -5.689037
     75          1           0      -14.536164    2.565989   -5.383593
     76          1           0      -13.702468    4.866576   -1.059784
     77          1           0      -10.800686    7.432794   -2.328516
     78          1           0       -9.785850    6.757159   -1.107878
     79          1           0      -10.980008    8.109056   -0.714101
     80         12           0       12.553470   -0.747677   -0.141509
     81          6           0       15.155889    1.466858   -0.069466
     82          6           0       10.451376    1.561815    1.020281
     83          6           0       10.263186   -3.065444   -0.070144
     84          6           0       14.997324   -3.258421   -0.794421
     85          7           0       12.810649    1.279559    0.589414
     86          6           0       13.894537    2.026311    0.261447
     87          6           0       13.603991    3.500276    0.336840
     88          6           0       12.155666    3.485046    0.971595
     89          6           0       11.788846    2.017060    0.946358
     90          6           0       12.052453    4.156775    2.361951
     91          6           0       13.786039    4.303068   -1.091366
     92          6           0       14.571573    5.623355   -1.096472
     93          1           0       14.644951    6.407055    0.251611
     94          7           0       10.666065   -0.713357    0.215793
     95          6           0        9.912677    0.309074    0.698224
     96          6           0        8.554017   -0.075230    0.994167
     97          6           0        8.434584   -1.337734    0.496808
     98          6           0        9.847264   -1.790312    0.303559
     99          6           0        7.696572    0.929056    1.742341
    100          6           0        7.172066   -2.214409    0.378029
    101          8           0        7.174332   -3.354744   -0.023656
    102          6           0        5.916934   -1.538219    0.844923
    103          7           0       12.692433   -2.898841   -0.234498
    104          6           0       11.533043   -3.577892   -0.299823
    105          6           0       11.781930   -5.055625   -0.617801
    106          6           0       13.251258   -5.053181   -1.160794
    107          6           0       13.707078   -3.658879   -0.683928
    108          6           0       11.541888   -6.126331    0.530109
    109          6           0       13.419987   -5.153866   -2.723650
    110          6           0       12.820173   -4.152487   -3.675335
    111          7           0       14.644534   -0.952639   -0.483164
    112          6           0       15.529273   -2.023564   -0.645963
    113          6           0       16.918904   -1.563948   -0.764508
    114          6           0       16.819501   -0.180840   -0.551511
    115          6           0       15.425057    0.097691   -0.396105
    116          6           0       18.146453   -2.372237   -1.098154
    117          6           0       17.525586    1.012770   -0.442096
    118          8           0       18.715876    1.284021   -0.469101
    119          6           0       16.480873    2.156010   -0.363770
    120          6           0       16.996807    2.984102    0.750308
    121          8           0       16.851382    2.739453    1.950401
    122          8           0       17.765287    4.011915    0.285826
    123          6           0       18.606582    4.763707    1.222384
    124          1           0        9.758657    2.384106    1.212329
    125          1           0        9.542288   -3.883225   -0.120322
    126          1           0       15.625338   -4.119320   -1.036106
    127          1           0       14.231099    3.977346    1.090072
    128          1           0       11.464363    3.966362    0.280174
    129          1           0       11.998024    3.380377    3.124966
    130          1           0       11.129385    4.735390    2.397672
    131          1           0       12.951335    4.761974    2.480226
    132          1           0       12.767741    4.491302   -1.431785
    133          1           0       14.317063    3.682466   -1.812454
    134          1           0       14.087363    6.346463   -1.752254
    135          1           0       15.559291    5.462861   -1.528458
    136          1           0        8.060302    1.202243    2.733006
    137          1           0        6.704483    0.652077    2.098413
    138          1           0        7.639695    1.734356    1.009950
    139          1           0        5.761095   -0.602909    0.307849
    140          1           0        6.084533   -1.478947    1.920130
    141          1           0        4.959527   -2.027006    0.668048
    142          1           0       11.021911   -5.245984   -1.376422
    143          1           0       13.829347   -5.791579   -0.604760
    144          1           0       11.201635   -5.619486    1.432804
    145          1           0       12.484080   -6.575485    0.841922
    146          1           0       10.871225   -6.953293    0.291843
    147          1           0       13.006880   -6.150217   -2.882963
    148          1           0       14.467070   -5.162085   -3.024707
    149          1           0       12.149670   -3.487498   -3.129417
    150          1           0       12.213856   -4.656412   -4.427870
    151          1           0       13.515062   -3.469961   -4.164201
    152          1           0       18.799047   -2.511424   -0.237408
    153          1           0       18.697775   -1.888484   -1.904638
    154          1           0       17.734200   -3.353170   -1.335951
    155          1           0       16.374908    2.676282   -1.315887
    156          1           0       19.467106    5.217831    0.729669
    157          1           0       18.827869    4.191307    2.121913
    158          1           0       18.075417    5.594007    1.687391
 ---------------------------------------------------------------------

 SCF Done:  E(RPBE1PBE) =  -4067.36566306     A.U. after   16 cycles

 Excitation energies and oscillator strengths:

 Excited State   1:      Singlet-A      1.7172 eV  722.03 nm  f=0.0000  <S**2>=0.000
     312 -> 313        0.70710
 This state for optimization and/or second-order correction.
 Total Energy, E(TD-HF/TD-DFT) =  -4067.30255895
 Copying the excited state density for this state as the 1-particle RhoCI density.

 Excited State   2:      Singlet-A      1.8640 eV  665.16 nm  f=0.4035  <S**2>=0.000
     309 -> 316        0.17324
     311 -> 313        0.69385
     311 <- 313       -0.11112

 Excited State   3:      Singlet-A      1.8951 eV  654.22 nm  f=0.3665  <S**2>=0.000
     310 -> 315        0.18688
     312 -> 314        0.68785

 Excited State   4:      Singlet-A      2.1938 eV  565.15 nm  f=0.0000  <S**2>=0.000
     311 -> 314        0.70709

 Excited State   5:      Singlet-A      2.2041 eV  562.51 nm  f=0.1193  <S**2>=0.000
     309 -> 313        0.66061
     311 -> 316       -0.24068

 The electronic state is 1-A.
 Alpha  occ. eigenvalues --  -46.92372 -46.91335 -19.25614 -19.24598 -19.19896
 Alpha  occ. eigenvalues --  -19.19814 -19.19095 -19.19049 -19.18622 -19.18068
 Alpha  occ. eigenvalues --  -14.41602 -14.41224 -14.41152 -14.40540 -14.39511
 Alpha  occ. eigenvalues --  -14.39407 -14.39288 -14.38467 -10.35991 -10.35301
 Alpha  occ. eigenvalues --  -10.32866 -10.32358 -10.31648 -10.30802 -10.29329
 Alpha  occ. eigenvalues --  -10.28952 -10.28723 -10.28611 -10.28323 -10.28291
 Alpha  occ. eigenvalues --  -10.28266 -10.28054 -10.28024 -10.27909 -10.27805
 Alpha  occ. eigenvalues --  -10.27647 -10.27543 -10.27492 -10.26905 -10.26808
 Alpha  occ. eigenvalues --  -10.26788 -10.26705 -10.26519 -10.26266 -10.26210
 Alpha  occ. eigenvalues --  -10.26158 -10.26147 -10.25935 -10.25914 -10.25884
 Alpha  occ. eigenvalues --  -10.25731 -10.25714 -10.25674 -10.25480 -10.25465
 Alpha  occ. eigenvalues --  -10.25394 -10.25386 -10.25358 -10.25248 -10.25214
 Alpha  occ. eigenvalues --  -10.25176 -10.25106 -10.25055 -10.25013 -10.24982
 Alpha  occ. eigenvalues --  -10.24670 -10.24371 -10.24357 -10.24058 -10.23951
 Alpha  occ. eigenvalues --  -10.23865 -10.23754 -10.23616 -10.23528 -10.23499
 Alpha  occ. eigenvalues --  -10.23494 -10.23461 -10.23445 -10.23108 -10.23069
 Alpha  occ. eigenvalues --  -10.22986 -10.22917 -10.22705 -10.22663 -10.22622
 Alpha  occ. eigenvalues --  -10.21995  -3.14529  -3.13762  -1.87352  -1.86917
 Alpha  occ. eigenvalues --   -1.86750  -1.86570  -1.86152  -1.86019  -1.13391
 Alpha  occ. eigenvalues --   -1.09641  -1.06045  -1.04509  -1.03896  -1.03280
 Alpha  occ. eigenvalues --   -1.02612  -1.00764  -1.00117  -0.99409  -0.99252
 Alpha  occ. eigenvalues --   -0.98816  -0.98430  -0.97760  -0.97308  -0.96605
 Alpha  occ. eigenvalues --   -0.87852  -0.86797  -0.83768  -0.83537  -0.82808
 Alpha  occ. eigenvalues --   -0.82758  -0.82667  -0.82252  -0.82223  -0.81965
 Alpha  occ. eigenvalues --   -0.81795  -0.81360  -0.80993  -0.80698  -0.78913
 Alpha  occ. eigenvalues --   -0.78612  -0.77874  -0.77871  -0.76937  -0.76850
 Alpha  occ. eigenvalues --   -0.76690  -0.76412  -0.76102  -0.75380  -0.74921
 Alpha  occ. eigenvalues --   -0.74803  -0.73187  -0.72749  -0.72068  -0.71833
 Alpha  occ. eigenvalues --   -0.71527  -0.71297  -0.70673  -0.70010  -0.69681
 Alpha  occ. eigenvalues --   -0.69524  -0.67614  -0.67131  -0.66093  -0.66040
 Alpha  occ. eigenvalues --   -0.63974  -0.63796  -0.63457  -0.63409  -0.62610
 Alpha  occ. eigenvalues --   -0.61941  -0.61636  -0.60831  -0.60425  -0.59815
 Alpha  occ. eigenvalues --   -0.59513  -0.59455  -0.59321  -0.59232  -0.59037
 Alpha  occ. eigenvalues --   -0.58318  -0.57592  -0.56335  -0.55518  -0.54808
 Alpha  occ. eigenvalues --   -0.54548  -0.53979  -0.53898  -0.53788  -0.53563
 Alpha  occ. eigenvalues --   -0.52865  -0.52555  -0.52439  -0.52358  -0.52104
 Alpha  occ. eigenvalues --   -0.50955  -0.50814  -0.50806  -0.49852  -0.49719
 Alpha  occ. eigenvalues --   -0.49603  -0.49578  -0.49154  -0.48700  -0.48391
 Alpha  occ. eigenvalues --   -0.48195  -0.48053  -0.47828  -0.47796  -0.47706
 Alpha  occ. eigenvalues --   -0.47374  -0.47285  -0.47040  -0.47018  -0.46864
 Alpha  occ. eigenvalues --   -0.46804  -0.46268  -0.46195  -0.46127  -0.46013
 Alpha  occ. eigenvalues --   -0.45891  -0.45801  -0.45226  -0.44957  -0.44822
 Alpha  occ. eigenvalues --   -0.44816  -0.44672  -0.44449  -0.43977  -0.43947
 Alpha  occ. eigenvalues --   -0.43910  -0.43787  -0.43711  -0.43474  -0.43389
 Alpha  occ. eigenvalues --   -0.43330  -0.43131  -0.43043  -0.43006  -0.42704
 Alpha  occ. eigenvalues --   -0.42641  -0.42469  -0.42368  -0.42166  -0.41833
 Alpha  occ. eigenvalues --   -0.41618  -0.41564  -0.41471  -0.41325  -0.41222
 Alpha  occ. eigenvalues --   -0.41000  -0.40973  -0.40687  -0.40520  -0.40504
 Alpha  occ. eigenvalues --   -0.40232  -0.40135  -0.40028  -0.39648  -0.39607
 Alpha  occ. eigenvalues --   -0.39347  -0.39254  -0.39164  -0.38856  -0.38695
 Alpha  occ. eigenvalues --   -0.38595  -0.38531  -0.38376  -0.38085  -0.38077
 Alpha  occ. eigenvalues --   -0.37913  -0.37729  -0.37667  -0.37661  -0.37502
 Alpha  occ. eigenvalues --   -0.37186  -0.37042  -0.36920  -0.36742  -0.36681
 Alpha  occ. eigenvalues --   -0.36565  -0.36402  -0.36370  -0.36190  -0.36067
 Alpha  occ. eigenvalues --   -0.35901  -0.35893  -0.35615  -0.35397  -0.35258
 Alpha  occ. eigenvalues --   -0.35021  -0.34700  -0.34465  -0.34133  -0.34011
 Alpha  occ. eigenvalues --   -0.33446  -0.33265  -0.33164  -0.32933  -0.32061
 Alpha  occ. eigenvalues --   -0.32050  -0.31483  -0.31454  -0.31357  -0.31323
 Alpha  occ. eigenvalues --   -0.30963  -0.30100  -0.29562  -0.29557  -0.29325
 Alpha  occ. eigenvalues --   -0.28707  -0.28564  -0.27849  -0.27657  -0.27162
 Alpha  occ. eigenvalues --   -0.26333  -0.26196  -0.26105  -0.26096  -0.25737
 Alpha  occ. eigenvalues --   -0.25504  -0.25388  -0.25101  -0.21076  -0.20650
 Alpha  occ. eigenvalues --   -0.18999  -0.18252
 Alpha virt. eigenvalues --   -0.11442  -0.10421  -0.05203  -0.05113  -0.04424
 Alpha virt. eigenvalues --   -0.03905  -0.02454  -0.01844  -0.00576  -0.00032
 Alpha virt. eigenvalues --    0.00966   0.01100   0.01586   0.01661   0.01683

 Mulliken charges:
               1
     1  Mg  12.000000
     2  C    6.000000
     3  C    6.000000
     4  C    6.000000
     5  C    6.000000
     6  N    7.000000
     7  C    6.000000
     8  C    6.000000
     9  C    6.000000
    10  C    6.000000
    11  C    6.000000
    12  C    6.000000
    13  C    6.000000
    14  H    1.000000
    15  N    7.000000
    16  C    6.000000
    17  C    6.000000
    18  C    6.000000
    19  C    6.000000
    20  C    6.000000
    21  C    6.000000
    22  O    8.000000
    23  C    6.000000
    24  N    7.000000
    25  C    6.000000
    26  C    6.000000
    27  C    6.000000
    28  C    6.000000
    29  C    6.000000
    30  C    6.000000
    31  C    6.000000
    32  N    7.000000
    33  C    6.000000
    34  C    6.000000
    35  C    6.000000
    36  C    6.000000
    37  C    6.000000
    38  C    6.000000
    39  O    8.000000
    40  C    6.000000
    41  C    6.000000
    42  O    8.000000
    43  O    8.000000
    44  C    6.000000
    45  H    1.000000
    46  H    1.000000
    47  H    1.000000
    48  H    1.000000
    49  H    1.000000
    50  H    1.000000
    51  H    1.000000
    52  H    1.000000
    53  H    1.000000
    54  H    1.000000
    55  H    1.000000
    56  H    1.000000
    57  H    1.000000
    58  H    1.000000
    59  H    1.000000
    60  H    1.000000
    61  H    1.000000
    62  H    1.000000
    63  H    1.000000
    64  H    1.000000
    65  H    1.000000
    66  H    1.000000
    67  H    1.000000
    68  H    1.000000
    69  H    1.000000
    70  H    1.000000
    71  H    1.000000
    72  H    1.000000
    73  H    1.000000
    74  H    1.000000
    75  H    1.000000
    76  H    1.000000
    77  H    1.000000
    78  H    1.000000
    79  H    1.000000
    80  Mg  12.000000
    81  C    6.000000
    82  C    6.000000
    83  C    6.000000
    84  C    6.000000
    85  N    7.000000
    86  C    6.000000
    87  C    6.000000
    88  C    6.000000
    89  C    6.000000
    90  C    6.000000
    91  C    6.000000
    92  C    6.000000
    93  H    1.000000
    94  N    7.000000
    95  C    6.000000
    96  C    6.000000
    97  C    6.000000
    98  C    6.000000
    99  C    6.000000
   100  C    6.000000
   101  O    8.000000
   102  C    6.000000
   103  N    7.000000
   104  C    6.000000
   105  C    6.000000
   106  C    6.000000
   107  C    6.000000
   108  C    6.000000
   109  C    6.000000
   110  C    6.000000
   111  N    7.000000
   112  C    6.000000
   113  C    6.000000
   114  C    6.000000
   115  C    6.000000
   116  C    6.000000
   117  C    6.000000
   118  O    8.000000
   119  C    6.000000
   120  C    6.000000
   121  O    8.000000
   122  O    8.000000
   123  C    6.000000
   124  H    1.000000
   125  H    1.000000
   126  H    1.000000
   127  H    1.000000
   128  H    1.000000
   129  H    1.000000
   130  H    1.000000
   131  H    1.000000
   132  H    1.000000
   133  H    1.000000
   134  H    1.000000
   135  H    1.000000
   136  H    1.000000
   137  H    1.000000
   138  H    1.000000
   139  H    1.000000
   140  H    1.000000
   141  H    1.000000
   142  H    1.000000
   143  H    1.000000
   144  H    1.000000
   145  H    1.000000
   146  H    1.000000
   147  H    1.000000
   148  H    1.000000
   149  H    1.000000
   150  H    1.000000
   151  H    1.000000
   152  H    1.000000
   153  H    1.000000
   154  H    1.000000
   155  H    1.000000
   156  H    1.000000
   157  H    1.000000
   158  H    1.000000
 Sum of Mulliken charges = 624.00000

 Dipole moment (field-independent basis, Debye):
    X=             -0.0000    Y=              0.0000    Z=             -0.0000  Tot=              0.0000
 Quadrupole moment (field-independent basis, Debye-Ang):
   XX=             -0.0000   YY=             -0.0000   ZZ=             -0.0000
   XY=             -0.0000   XZ=              0.0000   YZ=              0.0000

 Normal termination of Gaussian 16 at Fri Oct 15 09:18:02 2021.
