 Gaussian 16, Revision A.03,
 Gaussian 16:  ES64L-G16RevA.03 25-Dec-2016

 --------------------------------------------------------
 #p PBE1PBE/Def2SVP td=(nstates=5) density=(transition=1)
 --------------------------------------------------------

 --------------------------------
 TDDFT excited states in gaussian
 --------------------------------
 Symbolic Z-matrix:
 Charge =  0 Multiplicity = 1

                         Standard orientation:
 ---------------------------------------------------------------------
 Center     Atomic      Atomic             Coordinates (Angstroms)
 Number     Number       Type             X           Y           Z
 ---------------------------------------------------------------------
      1         12           0       22.400558   -0.616698    0.435131
      2          6           0       22.020849    2.327798   -1.380074
      3          6           0       23.302288    1.156254    3.154496
      4          6           0       23.172532   -3.531240    1.963197
      5          6           0       21.948193   -2.358437   -2.506213
      6          7           0       22.646452    1.554168    0.806925
      7          6           0       22.231496    2.565057   -0.022213
      8          6           0       22.351213    3.874372    0.660482
      9          6           0       22.809220    3.577955    2.093218
     10          6           0       22.928756    1.993150    2.086435
     11          6           0       24.036671    4.292551    2.636933
     12          6           0       20.960533    4.725007    0.568133
     13          6           0       20.996465    6.082975   -0.171389
     14          1           0       20.228336    7.270823    0.353869
     15          7           0       23.016658   -1.127403    2.328762
     16          6           0       23.363149   -0.239400    3.336054
     17          6           0       23.808729   -0.960219    4.472593
     18          6           0       23.786703   -2.344808    4.152545
     19          6           0       23.291837   -2.383701    2.772609
     20          6           0       24.094628   -0.159071    5.802579
     21          6           0       24.269407   -3.469231    5.067170
     22          8           0       24.324007   -4.670042    4.761417
     23          6           0       24.634885   -3.168074    6.453985
     24          7           0       22.795066   -2.668157   -0.193866
     25          6           0       22.978608   -3.691092    0.615061
     26          6           0       23.159262   -5.002344   -0.182502
     27          6           0       22.283764   -4.605199   -1.435740
     28          6           0       22.311123   -3.081068   -1.379809
     29          6           0       24.589548   -5.477629   -0.634891
     30          6           0       20.784112   -5.170947   -1.484748
     31          6           0       19.868397   -4.810638   -0.387611
     32          7           0       22.084384   -0.187103   -1.645974
     33          6           0       21.898937   -1.029789   -2.759475
     34          6           0       21.689432   -0.232809   -3.925967
     35          6           0       21.789284    1.069133   -3.477406
     36          6           0       21.925462    1.041420   -2.050769
     37          6           0       21.685519   -0.699329   -5.298932
     38          6           0       21.574232    2.388120   -3.848144
     39          8           0       21.316563    2.903410   -4.940903
     40          6           0       21.802862    3.300995   -2.558434
     41          6           0       23.071744    4.043471   -2.818678
     42          8           0       24.202375    3.661023   -3.035810
     43          8           0       22.725622    5.331905   -2.804360
     44          6           0       23.839216    6.314297   -3.013421
     45          1           0       23.353873    1.830753    4.011697
     46          1           0       23.281230   -4.450763    2.540873
     47          1           0       21.741541   -2.925701   -3.415906
     48          1           0       23.128620    4.402970    0.110225
     49          1           0       21.991060    3.800951    2.777690
     50          1           0       24.748879    3.506045    2.390190
     51          1           0       23.986818    4.589407    3.684696
     52          1           0       24.387045    5.206325    2.157751
     53          1           0       20.575008    4.872173    1.576567
     54          1           0       20.182283    4.229045   -0.012454
     55          1           0       20.530294    5.906630   -1.141196
     56          1           0       22.012659    6.388382   -0.417171
     57          1           0       25.091628   -0.422834    6.154947
     58          1           0       23.352689   -0.666791    6.419018
     59          1           0       24.121274    0.929689    5.756860
     60          1           0       25.425471   -2.420208    6.496992
     61          1           0       25.186389   -4.040068    6.804713
     62          1           0       23.798201   -2.963860    7.122579
     63          1           0       22.556788   -5.775381    0.294717
     64          1           0       22.826472   -5.043767   -2.272794
     65          1           0       25.261989   -4.693099   -0.979847
     66          1           0       24.355046   -6.198484   -1.418966
     67          1           0       25.105479   -5.980388    0.183552
     68          1           0       20.734474   -6.259993   -1.499538
     69          1           0       20.212605   -4.701984   -2.285667
     70          1           0       19.530730   -3.813800   -0.667671
     71          1           0       20.256926   -4.733095    0.628293
     72          1           0       18.958477   -5.395413   -0.256819
     73          1           0       22.745221   -0.762674   -5.549017
     74          1           0       21.190164   -0.044889   -6.015592
     75          1           0       21.135163   -1.630307   -5.439250
     76          1           0       20.947668    3.932684   -2.317962
     77          1           0       24.010326    6.739834   -2.024359
     78          1           0       23.543097    7.051495   -3.759371
     79          1           0       24.805957    5.917954   -3.325215
     80         12           0      -22.194234   -0.717459   -0.155563
     81          6           0      -24.048720    2.103922    1.036946
     82          6           0      -20.181848    1.419029   -1.938714
     83          6           0      -20.688288   -3.321818   -1.690901
     84          6           0      -24.883700   -2.733242    0.914367
     85          7           0      -22.141120    1.493618   -0.390277
     86          6           0      -22.930119    2.476083    0.228443
     87          6           0      -22.407530    3.838305   -0.149633
     88          6           0      -21.562540    3.526553   -1.456107
     89          6           0      -21.310504    1.998564   -1.294957
     90          6           0      -22.456196    3.867292   -2.701553
     91          6           0      -21.672877    4.591200    1.015173
     92          6           0      -22.083971    5.976205    1.060467
     93          1           0      -21.684442    6.760566    2.409497
     94          7           0      -20.526436   -0.834529   -1.482352
     95          6           0      -19.826573    0.148603   -2.061091
     96          6           0      -18.730581   -0.415404   -2.787389
     97          6           0      -18.851755   -1.788800   -2.756223
     98          6           0      -20.074733   -2.083320   -1.875587
     99          6           0      -17.755508    0.461976   -3.635056
    100          6           0      -17.916512   -2.860607   -3.352847
    101          8           0      -18.215879   -4.022970   -3.246768
    102          6           0      -16.598285   -2.473569   -3.980681
    103          7           0      -22.885482   -2.700310   -0.574541
    104          6           0      -21.978150   -3.602064   -1.119695
    105          6           0      -22.451508   -5.007275   -0.936017
    106          6           0      -23.796122   -4.829026   -0.075656
    107          6           0      -23.844334   -3.339081    0.168334
    108          6           0      -22.593889   -5.750956   -2.220904
    109          6           0      -23.926622   -5.688463    1.298889
    110          6           0      -25.035132   -6.659064    1.410604
    111          7           0      -24.073149   -0.449817    0.828038
    112          6           0      -25.024560   -1.383994    1.170623
    113          6           0      -26.135772   -0.660286    1.928444
    114          6           0      -25.740877    0.690684    2.000356
    115          6           0      -24.504220    0.775784    1.269600
    116          6           0      -27.412461   -1.332549    2.451569
    117          6           0      -26.215593    1.980664    2.400440
    118          8           0      -27.256978    2.307228    3.013366
    119          6           0      -25.236420    2.976620    1.653733
    120          6           0      -24.866969    4.060640    2.710478
    121          8           0      -23.775748    4.021020    3.307900
    122          8           0      -25.838620    5.004661    2.760328
    123          6           0      -25.562079    5.919438    3.920849
    124          1           0      -19.407450    2.085517   -2.325094
    125          1           0      -20.207793   -4.182822   -2.161634
    126          1           0      -25.710979   -3.282653    1.368184
    127          1           0      -23.276133    4.403426   -0.486908
    128          1           0      -20.653445    4.125146   -1.501638
    129          1           0      -23.247370    3.140191   -2.882811
    130          1           0      -21.812746    3.983525   -3.572620
    131          1           0      -22.921774    4.840133   -2.541995
    132          1           0      -20.624805    4.654949    0.721659
    133          1           0      -21.762465    4.062533    1.964462
    134          1           0      -23.169630    6.062763    1.107808
    135          1           0      -21.643785    6.475250    0.196812
    136          1           0      -16.777674    0.185802   -3.240609
    137          1           0      -17.875124    1.537560   -3.505882
    138          1           0      -17.894957    0.251182   -4.695265
    139          1           0      -16.113425   -3.345123   -4.420599
    140          1           0      -16.128171   -2.116244   -3.064538
    141          1           0      -16.791343   -1.697004   -4.720744
    142          1           0      -21.664781   -5.441518   -0.318811
    143          1           0      -24.618483   -5.138140   -0.720366
    144          1           0      -21.788945   -6.484468   -2.198037
    145          1           0      -22.375703   -5.137484   -3.094928
    146          1           0      -23.563182   -6.221461   -2.387400
    147          1           0      -24.140920   -4.909079    2.030096
    148          1           0      -22.946002   -6.108201    1.519177
    149          1           0      -25.721366   -6.383290    2.210890
    150          1           0      -24.431039   -7.493012    1.766324
    151          1           0      -25.478504   -6.920055    0.448695
    152          1           0      -28.157512   -1.194534    1.668817
    153          1           0      -27.770820   -0.884955    3.378526
    154          1           0      -27.195580   -2.376941    2.675994
    155          1           0      -25.856952    3.373413    0.851405
    156          1           0      -25.769773    5.492083    4.901697
    157          1           0      -26.072961    6.880700    3.875889
    158          1           0      -24.509714    6.189892    3.832041
 ---------------------------------------------------------------------

 SCF Done:  E(RPBE1PBE) =  -4067.32272919     A.U. after   16 cycles

 Excitation energies and oscillator strengths:

 Excited State   1:      Singlet-A      1.6807 eV  737.68 nm  f=0.0000  <S**2>=0.000
     312 -> 313        0.70711
 This state for optimization and/or second-order correction.
 Total Energy, E(TD-HF/TD-DFT) =  -4067.26096384
 Copying the excited state density for this state as the 1-particle RhoCI density.

 Excited State   2:      Singlet-A      1.8312 eV  677.07 nm  f=0.3441  <S**2>=0.000
     309 -> 315       -0.18210
     312 -> 314        0.68919

 Excited State   3:      Singlet-A      1.8587 eV  667.05 nm  f=0.3514  <S**2>=0.000
     310 -> 316        0.16384
     311 -> 313        0.69249
     311 <- 313       -0.10763

 Excited State   4:      Singlet-A      2.1770 eV  569.52 nm  f=0.1427  <S**2>=0.000
     310 -> 313        0.66023
     311 -> 316       -0.23475

 Excited State   5:      Singlet-A      2.2731 eV  545.45 nm  f=0.0125  <S**2>=0.000
     309 -> 314        0.57934
     312 -> 315        0.39830

 The electronic state is 1-A.
 Alpha  occ. eigenvalues --  -46.92813 -46.92761 -19.26851 -19.25713 -19.20079
 Alpha  occ. eigenvalues --  -19.19472 -19.19331 -19.19179 -19.18931 -19.18499
 Alpha  occ. eigenvalues --  -14.41726 -14.41665 -14.41501 -14.41249 -14.39411
 Alpha  occ. eigenvalues --  -14.38928 -14.38925 -14.38641 -10.36795 -10.35634
 Alpha  occ. eigenvalues --  -10.32605 -10.32238 -10.32219 -10.31306 -10.29239
 Alpha  occ. eigenvalues --  -10.28960 -10.28939 -10.28909 -10.28889 -10.28852
 Alpha  occ. eigenvalues --  -10.28802 -10.28612 -10.28461 -10.28395 -10.28040
 Alpha  occ. eigenvalues --  -10.27861 -10.27542 -10.27230 -10.26825 -10.26713
 Alpha  occ. eigenvalues --  -10.26665 -10.26653 -10.26484 -10.26463 -10.26399
 Alpha  occ. eigenvalues --  -10.26380 -10.26310 -10.26209 -10.26091 -10.25888
 Alpha  occ. eigenvalues --  -10.25839 -10.25836 -10.25705 -10.25654 -10.25567
 Alpha  occ. eigenvalues --  -10.25554 -10.25369 -10.25301 -10.25291 -10.25269
 Alpha  occ. eigenvalues --  -10.25265 -10.25232 -10.25160 -10.25047 -10.24937
 Alpha  occ. eigenvalues --  -10.24795 -10.24168 -10.24086 -10.24044 -10.24040
 Alpha  occ. eigenvalues --  -10.24008 -10.23992 -10.23785 -10.23774 -10.23681
 Alpha  occ. eigenvalues --  -10.23601 -10.23589 -10.23431 -10.23403 -10.22919
 Alpha  occ. eigenvalues --  -10.22910 -10.22799 -10.22723 -10.22514 -10.22368
 Alpha  occ. eigenvalues --  -10.22150  -3.14754  -3.14735  -1.87597  -1.87569
 Alpha  occ. eigenvalues --   -1.87106  -1.87095  -1.86993  -1.86957  -1.11807
 Alpha  occ. eigenvalues --   -1.10863  -1.06274  -1.03882  -1.03325  -1.02738
 Alpha  occ. eigenvalues --   -1.02198  -1.01983  -1.00061  -0.98956  -0.98573
 Alpha  occ. eigenvalues --   -0.98087  -0.97585  -0.97371  -0.97345  -0.96257
 Alpha  occ. eigenvalues --   -0.86586  -0.85686  -0.83547  -0.83198  -0.83069
 Alpha  occ. eigenvalues --   -0.82931  -0.82722  -0.82499  -0.82295  -0.81972
 Alpha  occ. eigenvalues --   -0.81595  -0.81514  -0.81188  -0.79946  -0.78972
 Alpha  occ. eigenvalues --   -0.78687  -0.78568  -0.78152  -0.77395  -0.76868
 Alpha  occ. eigenvalues --   -0.76545  -0.76273  -0.75866  -0.75113  -0.75055
 Alpha  occ. eigenvalues --   -0.74798  -0.73110  -0.72377  -0.72004  -0.71869
 Alpha  occ. eigenvalues --   -0.71739  -0.70923  -0.70327  -0.69824  -0.69724
 Alpha  occ. eigenvalues --   -0.69240  -0.67952  -0.66602  -0.66171  -0.65968
 Alpha  occ. eigenvalues --   -0.63807  -0.63504  -0.63141  -0.62343  -0.62195
 Alpha  occ. eigenvalues --   -0.61872  -0.61605  -0.60722  -0.60301  -0.59943
 Alpha  occ. eigenvalues --   -0.59527  -0.59363  -0.59358  -0.59013  -0.58821
 Alpha  occ. eigenvalues --   -0.58518  -0.56697  -0.56649  -0.55039  -0.54518
 Alpha  occ. eigenvalues --   -0.54409  -0.53911  -0.53698  -0.53287  -0.53025
 Alpha  occ. eigenvalues --   -0.52852  -0.52842  -0.52406  -0.52041  -0.51561
 Alpha  occ. eigenvalues --   -0.51068  -0.50517  -0.50282  -0.50127  -0.50039
 Alpha  occ. eigenvalues --   -0.49670  -0.49650  -0.49378  -0.49222  -0.48919
 Alpha  occ. eigenvalues --   -0.48585  -0.48121  -0.48070  -0.47933  -0.47845
 Alpha  occ. eigenvalues --   -0.47601  -0.47477  -0.47347  -0.47311  -0.47166
 Alpha  occ. eigenvalues --   -0.47044  -0.46762  -0.46519  -0.46494  -0.45880
 Alpha  occ. eigenvalues --   -0.45715  -0.45621  -0.45219  -0.45058  -0.45016
 Alpha  occ. eigenvalues --   -0.44899  -0.44539  -0.44448  -0.44348  -0.44151
 Alpha  occ. eigenvalues --   -0.44019  -0.43860  -0.43841  -0.43626  -0.43435
 Alpha  occ. eigenvalues --   -0.43316  -0.43183  -0.43005  -0.42845  -0.42750
 Alpha  occ. eigenvalues --   -0.42584  -0.42498  -0.42152  -0.42007  -0.41802
 Alpha  occ. eigenvalues --   -0.41560  -0.41427  -0.41354  -0.41226  -0.41007
 Alpha  occ. eigenvalues --   -0.41006  -0.40930  -0.40782  -0.40555  -0.40523
 Alpha  occ. eigenvalues --   -0.40174  -0.40105  -0.39501  -0.39437  -0.39281
 Alpha  occ. eigenvalues --   -0.39166  -0.39101  -0.39035  -0.38881  -0.38791
 Alpha  occ. eigenvalues --   -0.38564  -0.38494  -0.38290  -0.38208  -0.38074
 Alpha  occ. eigenvalues --   -0.37827  -0.37800  -0.37789  -0.37627  -0.37327
 Alpha  occ. eigenvalues --   -0.37273  -0.37054  -0.36977  -0.36875  -0.36837
 Alpha  occ. eigenvalues --   -0.36745  -0.36460  -0.36409  -0.36054  -0.35980
 Alpha  occ. eigenvalues --   -0.35823  -0.35686  -0.35609  -0.35126  -0.35122
 Alpha  occ. eigenvalues --   -0.34707  -0.34404  -0.33909  -0.33753  -0.33476
 Alpha  occ. eigenvalues --   -0.33086  -0.33074  -0.32967  -0.32716  -0.32277
 Alpha  occ. eigenvalues --   -0.32102  -0.32068  -0.31983  -0.31401  -0.31204
 Alpha  occ. eigenvalues --   -0.31174  -0.29941  -0.29709  -0.29293  -0.29227
 Alpha  occ. eigenvalues --   -0.29012  -0.28988  -0.28377  -0.27137  -0.27118
 Alpha  occ. eigenvalues --   -0.26203  -0.26005  -0.25965  -0.25823  -0.25756
 Alpha  occ. eigenvalues --   -0.25488  -0.25266  -0.25087  -0.21067  -0.20998
 Alpha  occ. eigenvalues --   -0.19105  -0.17932
 Alpha virt. eigenvalues --   -0.11466  -0.10271  -0.05888  -0.05192  -0.04247
 Alpha virt. eigenvalues --   -0.03946  -0.02155  -0.01983  -0.00914  -0.00630
 Alpha virt. eigenvalues --    0.00464   0.01005   0.01016   0.01663   0.01898

 Mulliken charges:
               1
     1  Mg  12.000000
     2  C    6.000000
     3  C    6.000000
     4  C    6.000000
     5  C    6.000000
     6  N    7.000000
     7  C    6.000000
     8  C    6.000000
     9  C    6.000000
    10  C    6.000000
    11  C    6.000000
    12  C    6.000000
    13  C    6.000000
    14  H    1.000000
    15  N    7.000000
    16  C    6.000000
    17  C    6.000000
    18  C    6.000000
    19  C    6.000000
    20  C    6.000000
    21  C    6.000000
    22  O    8.000000
    23  C    6.000000
    24  N    7.000000
    25  C    6.000000
    26  C    6.000000
    27  C    6.000000
    28  C    6.000000
    29  C    6.000000
    30  C    6.000000
    31  C    6.000000
    32  N    7.000000
    33  C    6.000000
    34  C    6.000000
    35  C    6.000000
    36  C    6.000000
    37  C    6.000000
    38  C    6.000000
    39  O    8.000000
    40  C    6.000000
    41  C    6.000000
    42  O    8.000000
    43  O    8.000000
    44  C    6.000000
    45  H    1.000000
    46  H    1.000000
    47  H    1.000000
    48  H    1.000000
    49  H    1.000000
    50  H    1.000000
    51  H    1.000000
    52  H    1.000000
    53  H    1.000000
    54  H    1.000000
    55  H    1.000000
    56  H    1.000000
    57  H    1.000000
    58  H    1.000000
    59  H    1.000000
    60  H    1.000000
    61  H    1.000000
    62  H    1.000000
    63  H    1.000000
    64  H    1.000000
    65  H    1.000000
    66  H    1.000000
    67  H    1.000000
    68  H    1.000000
    69  H    1.000000
    70  H    1.000000
    71  H    1.000000
    72  H    1.000000
    73  H    1.000000
    74  H    1.000000
    75  H    1.000000
    76  H    1.000000
    77  H    1.000000
    78  H    1.000000
    79  H    1.000000
    80  Mg  12.000000
    81  C    6.000000
    82  C    6.000000
    83  C    6.000000
    84  C    6.000000
    85  N    7.000000
    86  C    6.000000
    87  C    6.000000
    88  C    6.000000
    89  C    6.000000
    90  C    6.000000
    91  C    6.000000
    92  C    6.000000
    93  H    1.000000
    94  N    7.000000
    95  C    6.000000
    96  C    6.000000
    97  C    6.000000
    98  C    6.000000
    99  C    6.000000
   100  C    6.000000
   101  O    8.000000
   102  C    6.000000
   103  N    7.000000
   104  C    6.000000
   105  C    6.000000
   106  C    6.000000
   107  C    6.000000
   108  C    6.000000
   109  C    6.000000
   110  C    6.000000
   111  N    7.000000
   112  C    6.000000
   113  C    6.000000
   114  C    6.000000
   115  C    6.000000
   116  C    6.000000
   117  C    6.000000
   118  O    8.000000
   119  C    6.000000
   120  C    6.000000
   121  O    8.000000
   122  O    8.000000
   123  C    6.000000
   124  H    1.000000
   125  H    1.000000
   126  H    1.000000
   127  H    1.000000
   128  H    1.000000
   129  H    1.000000
   130  H    1.000000
   131  H    1.000000
   132  H    1.000000
   133  H    1.000000
   134  H    1.000000
   135  H    1.000000
   136  H    1.000000
   137  H    1.000000
   138  H    1.000000
   139  H    1.000000
   140  H    1.000000
   141  H    1.000000
   142  H    1.000000
   143  H    1.000000
   144  H    1.000000
   145  H    1.000000
   146  H    1.000000
   147  H    1.000000
   148  H    1.000000
   149  H    1.000000
   150  H    1.000000
   151  H    1.000000
   152  H    1.000000
   153  H    1.000000
   154  H    1.000000
   155  H    1.000000
   156  H    1.000000
   157  H    1.000000
   158  H    1.000000
 Sum of Mulliken charges = 624.00000

 Dipole moment (field-independent basis, Debye):
    X=              0.0000    Y=             -0.0000    Z=             -0.0000  Tot=              0.0000
 Quadrupole moment (field-independent basis, Debye-Ang):
   XX=             -0.0000   YY=             -0.0000   ZZ=              0.0000
   XY=              0.0000   XZ=             -0.0000   YZ=             -0.0000

 Normal termination of Gaussian 16 at Thu Oct 14 04:03:49 2021.
