 Gaussian 16, Revision A.03,
 Gaussian 16:  ES64L-G16RevA.03 25-Dec-2016

 --------------------------------------------------------
 #p PBE1PBE/Def2SVP td=(nstates=5) density=(transition=1)
 --------------------------------------------------------

 --------------------------------
 TDDFT excited states in gaussian
 --------------------------------
 Symbolic Z-matrix:
 Charge =  0 Multiplicity = 1

                         Standard orientation:
 ---------------------------------------------------------------------
 Center     Atomic      Atomic             Coordinates (Angstroms)
 Number     Number       Type             X           Y           Z
 ---------------------------------------------------------------------
      1         12           0       26.502814   -0.558245    0.102488
      2          6           0       24.648513    2.138658    1.406782
      3          6           0       28.336789    1.642692   -1.720451
      4          6           0       28.172541   -3.192331   -1.206538
      5          6           0       24.292445   -2.742810    1.651838
      6          7           0       26.435438    1.592264   -0.205886
      7          6           0       25.671113    2.511266    0.518276
      8          6           0       26.131286    3.901835    0.198695
      9          6           0       26.923891    3.697088   -1.114175
     10          6           0       27.263863    2.187949   -1.009745
     11          6           0       26.178561    3.975109   -2.457669
     12          6           0       26.971385    4.622692    1.319210
     13          6           0       26.537704    6.023463    1.613433
     14          1           0       27.654451    7.075533    1.747639
     15          7           0       28.070614   -0.715409   -1.160072
     16          6           0       28.783603    0.332888   -1.765270
     17          6           0       29.855858   -0.184124   -2.518211
     18          6           0       29.852428   -1.652262   -2.388270
     19          6           0       28.703685   -1.905039   -1.566054
     20          6           0       30.756206    0.607306   -3.421171
     21          6           0       30.755098   -2.792067   -3.032412
     22          8           0       30.575585   -3.954878   -2.757920
     23          6           0       31.933800   -2.444462   -3.930410
     24          7           0       26.191293   -2.671990    0.124786
     25          6           0       27.025300   -3.529032   -0.518961
     26          6           0       26.525900   -5.039545   -0.320689
     27          6           0       25.455045   -4.908274    0.848991
     28          6           0       25.281620   -3.330426    0.892825
     29          6           0       25.930411   -5.738408   -1.574125
     30          6           0       25.924971   -5.503427    2.223986
     31          6           0       24.942515   -6.458512    2.759043
     32          7           0       24.788186   -0.373390    1.246370
     33          6           0       24.052506   -1.359038    1.902610
     34          6           0       23.019048   -0.750447    2.695225
     35          6           0       23.199134    0.604808    2.507537
     36          6           0       24.258262    0.797749    1.677723
     37          6           0       22.057876   -1.576424    3.589353
     38          6           0       22.679509    1.919497    2.836336
     39          8           0       21.668983    2.190850    3.446646
     40          6           0       23.613894    2.998494    2.093942
     41          6           0       22.782453    3.801686    1.178817
     42          8           0       22.090517    3.325809    0.240806
     43          8           0       22.869972    5.109946    1.555136
     44          6           0       21.809829    5.983331    0.985652
     45          1           0       28.854775    2.403852   -2.307567
     46          1           0       28.644253   -4.096645   -1.596185
     47          1           0       23.566058   -3.440317    2.072899
     48          1           0       25.328071    4.578477   -0.095528
     49          1           0       27.825110    4.307100   -1.178104
     50          1           0       25.448248    4.783223   -2.399304
     51          1           0       25.704529    3.039428   -2.755268
     52          1           0       26.814662    4.165151   -3.321792
     53          1           0       28.003878    4.567659    0.974727
     54          1           0       26.981800    4.047274    2.245352
     55          1           0       25.982743    5.877637    2.540311
     56          1           0       25.933036    6.399314    0.788180
     57          1           0       31.772442    0.761884   -3.057913
     58          1           0       30.372238    1.623147   -3.505513
     59          1           0       30.891303    0.265115   -4.446858
     60          1           0       32.452964   -3.385533   -4.107768
     61          1           0       32.529678   -1.631106   -3.515274
     62          1           0       31.577958   -1.917632   -4.816291
     63          1           0       27.374278   -5.682190   -0.084832
     64          1           0       24.529110   -5.381583    0.518925
     65          1           0       25.827198   -5.124805   -2.469682
     66          1           0       24.934759   -6.148304   -1.402712
     67          1           0       26.590456   -6.574436   -1.806950
     68          1           0       25.990701   -4.690800    2.948421
     69          1           0       26.868274   -6.047776    2.184730
     70          1           0       25.285470   -7.469175    2.536026
     71          1           0       23.893623   -6.350657    2.485101
     72          1           0       24.857498   -6.321531    3.837111
     73          1           0       22.478227   -2.572009    3.733520
     74          1           0       21.032871   -1.537936    3.217761
     75          1           0       22.106105   -1.079388    4.557518
     76          1           0       24.117751    3.651830    2.806700
     77          1           0       21.858844    6.976701    1.431342
     78          1           0       20.873868    5.563390    1.354704
     79          1           0       21.913559    5.935660   -0.098715
     80         12           0      -26.322646   -0.734646    0.009110
     81          6           0      -25.177816    2.444055   -1.253839
     82          6           0      -26.850100    0.879926    3.077053
     83          6           0      -27.480674   -3.589136    1.145222
     84          6           0      -25.433603   -2.211761   -3.032084
     85          7           0      -25.995488    1.471529    0.785421
     86          6           0      -25.739472    2.589692    0.056438
     87          6           0      -26.025151    3.859267    0.841940
     88          6           0      -26.232131    3.336404    2.371287
     89          6           0      -26.342463    1.811353    2.082527
     90          6           0      -25.130554    3.775973    3.368032
     91          6           0      -27.253740    4.653102    0.282498
     92          6           0      -26.932031    6.118790   -0.108573
     93          1           0      -27.727113    7.229944    0.791248
     94          7           0      -27.045999   -1.259416    1.798138
     95          6           0      -27.184737   -0.498793    3.008246
     96          6           0      -27.774212   -1.273057    4.126081
     97          6           0      -27.995541   -2.546917    3.507365
     98          6           0      -27.510768   -2.497959    2.117766
     99          6           0      -28.012319   -0.734392    5.538215
    100          6           0      -28.515956   -3.790524    4.121236
    101          8           0      -28.905163   -4.780045    3.510398
    102          6           0      -28.720622   -3.808988    5.648810
    103          7           0      -26.586412   -2.543651   -0.884181
    104          6           0      -27.065457   -3.604378   -0.195048
    105          6           0      -26.897154   -4.905810   -0.928721
    106          6           0      -26.287221   -4.501063   -2.293336
    107          6           0      -26.128972   -2.974251   -2.114780
    108          6           0      -26.142881   -5.972500   -0.162968
    109          6           0      -27.324871   -4.846834   -3.515951
    110          6           0      -26.719308   -5.756678   -4.717511
    111          7           0      -25.229842   -0.113309   -1.705795
    112          6           0      -25.032014   -0.847081   -2.900235
    113          6           0      -24.426636    0.058020   -3.883826
    114          6           0      -24.611200    1.341123   -3.304806
    115          6           0      -24.977318    1.171422   -1.968717
    116          6           0      -23.809246   -0.246428   -5.245434
    117          6           0      -24.246453    2.768855   -3.526868
    118          8           0      -23.673135    3.418332   -4.444981
    119          6           0      -24.733938    3.518898   -2.227375
    120          6           0      -23.594278    4.336997   -1.695649
    121          8           0      -22.466118    3.943493   -1.601850
    122          8           0      -24.021040    5.613627   -1.455788
    123          6           0      -22.895426    6.561271   -1.257001
    124          1           0      -26.868007    1.394039    4.040074
    125          1           0      -27.849639   -4.566734    1.463361
    126          1           0      -25.183034   -2.643107   -4.003235
    127          1           0      -25.105706    4.443903    0.810520
    128          1           0      -27.198916    3.625640    2.784194
    129          1           0      -24.567418    2.914891    3.729110
    130          1           0      -25.570556    4.311185    4.210493
    131          1           0      -24.422472    4.517534    2.998080
    132          1           0      -28.066039    4.703386    1.008043
    133          1           0      -27.654477    4.189958   -0.619566
    134          1           0      -27.315597    6.393545   -1.091511
    135          1           0      -25.871584    6.361744   -0.168059
    136          1           0      -28.018508    0.349059    5.661478
    137          1           0      -27.360291   -1.140402    6.311530
    138          1           0      -29.014994   -1.074469    5.799193
    139          1           0      -27.769925   -3.660563    6.160836
    140          1           0      -29.214585   -4.719293    5.990259
    141          1           0      -29.384591   -2.983374    5.904897
    142          1           0      -27.883878   -5.357702   -1.038714
    143          1           0      -25.306938   -4.954039   -2.438570
    144          1           0      -26.778831   -6.782706    0.194784
    145          1           0      -25.672468   -5.633853    0.760070
    146          1           0      -25.353208   -6.353259   -0.811018
    147          1           0      -27.743709   -3.967068   -4.003421
    148          1           0      -28.201648   -5.397046   -3.175458
    149          1           0      -25.857855   -6.267913   -4.287362
    150          1           0      -26.431823   -5.152698   -5.579112
    151          1           0      -27.393727   -6.572452   -4.976534
    152          1           0      -23.945104    0.572593   -5.951457
    153          1           0      -24.391175   -1.054130   -5.690893
    154          1           0      -22.806113   -0.592060   -4.995294
    155          1           0      -25.477865    4.238722   -2.567795
    156          1           0      -22.264002    6.153148   -0.468032
    157          1           0      -23.380799    7.444812   -0.842720
    158          1           0      -22.228199    6.778556   -2.091041
 ---------------------------------------------------------------------

 SCF Done:  E(RPBE1PBE) =  -4067.38894893     A.U. after   16 cycles

 Excitation energies and oscillator strengths:

 Excited State   1:      Singlet-A      1.8271 eV  678.59 nm  f=0.3545  <S**2>=0.000
     310 -> 315        0.18276
     312 -> 314        0.69145
     312 <- 314       -0.10668
 This state for optimization and/or second-order correction.
 Total Energy, E(TD-HF/TD-DFT) =  -4067.32180480
 Copying the excited state density for this state as the 1-particle RhoCI density.

 Excited State   2:      Singlet-A      1.9748 eV  627.82 nm  f=0.0000  <S**2>=0.000
     312 -> 313        0.70711

 Excited State   3:      Singlet-A      2.0328 eV  609.92 nm  f=0.0000  <S**2>=0.000
     311 -> 314        0.70711

 Excited State   4:      Singlet-A      2.1728 eV  570.63 nm  f=0.1317  <S**2>=0.000
     310 -> 314        0.65738
     312 -> 315       -0.25558

 Excited State   5:      Singlet-A      2.4982 eV  496.28 nm  f=0.0000  <S**2>=0.000
     310 -> 313        0.70711

 The electronic state is 1-A.
 Alpha  occ. eigenvalues --  -46.91959 -46.90609 -19.26310 -19.26285 -19.19979
 Alpha  occ. eigenvalues --  -19.19950 -19.19777 -19.19368 -19.19050 -19.19029
 Alpha  occ. eigenvalues --  -14.41947 -14.41583 -14.41492 -14.41062 -14.40299
 Alpha  occ. eigenvalues --  -14.39005 -14.38950 -14.38317 -10.36448 -10.35834
 Alpha  occ. eigenvalues --  -10.33383 -10.32421 -10.32296 -10.32105 -10.29441
 Alpha  occ. eigenvalues --  -10.29384 -10.29137 -10.29083 -10.29075 -10.29033
 Alpha  occ. eigenvalues --  -10.28875 -10.28683 -10.28474 -10.28298 -10.28268
 Alpha  occ. eigenvalues --  -10.28186 -10.28164 -10.28079 -10.27932 -10.27416
 Alpha  occ. eigenvalues --  -10.27014 -10.26864 -10.26839 -10.26790 -10.26439
 Alpha  occ. eigenvalues --  -10.26418 -10.26416 -10.26390 -10.26141 -10.25909
 Alpha  occ. eigenvalues --  -10.25844 -10.25789 -10.25774 -10.25723 -10.25667
 Alpha  occ. eigenvalues --  -10.25603 -10.25579 -10.25519 -10.25519 -10.25471
 Alpha  occ. eigenvalues --  -10.25455 -10.25441 -10.25323 -10.24996 -10.24960
 Alpha  occ. eigenvalues --  -10.24930 -10.24543 -10.24516 -10.24445 -10.24091
 Alpha  occ. eigenvalues --  -10.24083 -10.23990 -10.23925 -10.23905 -10.23686
 Alpha  occ. eigenvalues --  -10.23674 -10.23516 -10.23447 -10.23426 -10.23354
 Alpha  occ. eigenvalues --  -10.23210 -10.23078 -10.22986 -10.22804 -10.22191
 Alpha  occ. eigenvalues --  -10.22097  -3.14178  -3.12911  -1.87017  -1.86553
 Alpha  occ. eigenvalues --   -1.86423  -1.85759  -1.85274  -1.85161  -1.11717
 Alpha  occ. eigenvalues --   -1.10529  -1.06346  -1.05179  -1.04557  -1.03501
 Alpha  occ. eigenvalues --   -1.01886  -1.01129  -0.99516  -0.98650  -0.98113
 Alpha  occ. eigenvalues --   -0.97846  -0.97244  -0.97200  -0.96621  -0.95981
 Alpha  occ. eigenvalues --   -0.86990  -0.85938  -0.83455  -0.82935  -0.82890
 Alpha  occ. eigenvalues --   -0.82761  -0.82324  -0.82299  -0.81707  -0.81371
 Alpha  occ. eigenvalues --   -0.81232  -0.80651  -0.80221  -0.80075  -0.78552
 Alpha  occ. eigenvalues --   -0.78236  -0.78118  -0.77475  -0.77185  -0.76220
 Alpha  occ. eigenvalues --   -0.76070  -0.75502  -0.75485  -0.75004  -0.74998
 Alpha  occ. eigenvalues --   -0.73967  -0.73253  -0.72478  -0.71641  -0.71468
 Alpha  occ. eigenvalues --   -0.71104  -0.71102  -0.70318  -0.70046  -0.69582
 Alpha  occ. eigenvalues --   -0.69208  -0.67358  -0.67033  -0.65844  -0.65393
 Alpha  occ. eigenvalues --   -0.63483  -0.63152  -0.63049  -0.62483  -0.61965
 Alpha  occ. eigenvalues --   -0.61959  -0.61512  -0.60896  -0.60370  -0.60013
 Alpha  occ. eigenvalues --   -0.59947  -0.59600  -0.59086  -0.58986  -0.58598
 Alpha  occ. eigenvalues --   -0.58555  -0.56945  -0.56541  -0.55278  -0.54832
 Alpha  occ. eigenvalues --   -0.54605  -0.53857  -0.53848  -0.53314  -0.52948
 Alpha  occ. eigenvalues --   -0.52723  -0.52468  -0.52410  -0.52096  -0.51727
 Alpha  occ. eigenvalues --   -0.50687  -0.50683  -0.50270  -0.50037  -0.49869
 Alpha  occ. eigenvalues --   -0.49484  -0.49471  -0.49061  -0.48409  -0.48388
 Alpha  occ. eigenvalues --   -0.48051  -0.47982  -0.47956  -0.47304  -0.47271
 Alpha  occ. eigenvalues --   -0.47177  -0.46892  -0.46653  -0.46442  -0.46441
 Alpha  occ. eigenvalues --   -0.46271  -0.46042  -0.45992  -0.45857  -0.45765
 Alpha  occ. eigenvalues --   -0.45464  -0.45452  -0.45079  -0.44997  -0.44697
 Alpha  occ. eigenvalues --   -0.44666  -0.44530  -0.44354  -0.44351  -0.44042
 Alpha  occ. eigenvalues --   -0.43997  -0.43896  -0.43718  -0.43555  -0.43358
 Alpha  occ. eigenvalues --   -0.43268  -0.42946  -0.42792  -0.42657  -0.42633
 Alpha  occ. eigenvalues --   -0.42404  -0.42263  -0.42061  -0.41939  -0.41693
 Alpha  occ. eigenvalues --   -0.41572  -0.41429  -0.41327  -0.41207  -0.41167
 Alpha  occ. eigenvalues --   -0.40922  -0.40798  -0.40717  -0.40567  -0.40505
 Alpha  occ. eigenvalues --   -0.40324  -0.40097  -0.39844  -0.39734  -0.39638
 Alpha  occ. eigenvalues --   -0.39508  -0.39496  -0.39450  -0.39238  -0.39218
 Alpha  occ. eigenvalues --   -0.39138  -0.38892  -0.38741  -0.38453  -0.38266
 Alpha  occ. eigenvalues --   -0.38164  -0.38097  -0.37855  -0.37685  -0.37641
 Alpha  occ. eigenvalues --   -0.37451  -0.37444  -0.37088  -0.37025  -0.36762
 Alpha  occ. eigenvalues --   -0.36761  -0.36720  -0.36388  -0.36141  -0.36109
 Alpha  occ. eigenvalues --   -0.35853  -0.35674  -0.35589  -0.35359  -0.35338
 Alpha  occ. eigenvalues --   -0.35130  -0.34890  -0.34458  -0.34079  -0.33777
 Alpha  occ. eigenvalues --   -0.33559  -0.33344  -0.33240  -0.32838  -0.32834
 Alpha  occ. eigenvalues --   -0.32504  -0.32242  -0.31737  -0.31443  -0.31394
 Alpha  occ. eigenvalues --   -0.31054  -0.30635  -0.29746  -0.29481  -0.29357
 Alpha  occ. eigenvalues --   -0.29125  -0.28579  -0.28576  -0.27128  -0.26935
 Alpha  occ. eigenvalues --   -0.26468  -0.25989  -0.25890  -0.25686  -0.25627
 Alpha  occ. eigenvalues --   -0.25558  -0.25137  -0.25005  -0.20919  -0.20837
 Alpha  occ. eigenvalues --   -0.19113  -0.18914
 Alpha virt. eigenvalues --   -0.11406  -0.11391  -0.05309  -0.04831  -0.04063
 Alpha virt. eigenvalues --   -0.03544  -0.02369  -0.01680  -0.00181   0.00003
 Alpha virt. eigenvalues --    0.00677   0.00706   0.01018   0.01295   0.01450

 Mulliken charges:
               1
     1  Mg  12.000000
     2  C    6.000006
     3  C    6.000014
     4  C    5.999999
     5  C    5.999980
     6  N    7.000004
     7  C    5.999987
     8  C    6.000005
     9  C    6.000002
    10  C    5.999997
    11  C    5.999998
    12  C    6.000004
    13  C    5.999997
    14  H    1.000010
    15  N    7.000005
    16  C    5.999997
    17  C    5.999998
    18  C    5.999994
    19  C    6.000012
    20  C    6.000004
    21  C    6.000012
    22  O    8.000015
    23  C    5.999999
    24  N    6.999994
    25  C    6.000002
    26  C    6.000002
    27  C    6.000002
    28  C    6.000008
    29  C    5.999998
    30  C    6.000004
    31  C    5.999996
    32  N    6.999994
    33  C    6.000008
    34  C    5.999989
    35  C    6.000009
    36  C    5.999988
    37  C    5.999994
    38  C    5.999996
    39  O    7.999987
    40  C    5.999997
    41  C    5.999994
    42  O    7.999977
    43  O    8.000010
    44  C    6.000004
    45  H    1.000005
    46  H    1.000009
    47  H    0.999993
    48  H    0.999988
    49  H    1.000004
    50  H    0.999998
    51  H    0.999989
    52  H    0.999990
    53  H    0.999997
    54  H    1.000016
    55  H    1.000010
    56  H    0.999984
    57  H    1.000027
    58  H    1.000008
    59  H    1.000004
    60  H    1.000018
    61  H    1.000013
    62  H    0.999994
    63  H    1.000010
    64  H    0.999988
    65  H    0.999980
    66  H    1.000001
    67  H    1.000005
    68  H    1.000013
    69  H    1.000003
    70  H    1.000000
    71  H    0.999991
    72  H    1.000018
    73  H    0.999999
    74  H    0.999970
    75  H    1.000007
    76  H    1.000004
    77  H    1.000000
    78  H    0.999994
    79  H    0.999977
    80  Mg  12.003980
    81  C    5.975289
    82  C    5.997384
    83  C    6.029346
    84  C    5.997585
    85  N    6.982664
    86  C    6.032381
    87  C    5.990289
    88  C    6.011062
    89  C    5.972827
    90  C    6.002412
    91  C    5.998816
    92  C    5.997935
    93  H    1.006425
    94  N    7.002781
    95  C    5.969486
    96  C    5.975919
    97  C    5.987363
    98  C    5.973811
    99  C    6.003229
   100  C    5.988460
   101  O    7.968642
   102  C    6.003930
   103  N    7.008660
   104  C    5.964012
   105  C    6.008538
   106  C    5.989466
   107  C    6.028653
   108  C    6.000589
   109  C    5.995464
   110  C    5.999244
   111  N    6.998094
   112  C    6.036833
   113  C    6.030121
   114  C    6.002424
   115  C    6.028429
   116  C    6.001364
   117  C    6.011711
   118  O    8.029119
   119  C    6.003482
   120  C    6.006943
   121  O    7.999978
   122  O    8.001718
   123  C    5.998348
   124  H    0.986933
   125  H    0.998416
   126  H    1.012288
   127  H    0.997470
   128  H    0.999243
   129  H    1.000579
   130  H    0.996616
   131  H    0.987164
   132  H    1.007988
   133  H    0.995408
   134  H    0.997035
   135  H    0.998135
   136  H    0.985363
   137  H    0.981839
   138  H    0.985270
   139  H    0.992663
   140  H    0.986319
   141  H    0.994959
   142  H    1.001753
   143  H    1.003307
   144  H    1.002695
   145  H    1.005501
   146  H    0.991340
   147  H    0.999186
   148  H    1.011591
   149  H    1.003732
   150  H    0.997499
   151  H    1.006051
   152  H    1.013907
   153  H    1.015014
   154  H    1.015883
   155  H    1.004485
   156  H    1.004334
   157  H    1.004760
   158  H    1.000071
 Sum of Mulliken charges = 624.00000

 Dipole moment (field-independent basis, Debye):
    X=              3.6582    Y=              1.8248    Z=             -9.2530  Tot=             10.1158
 Quadrupole moment (field-independent basis, Debye-Ang):
   XX=           -190.6477   YY=              0.1071   ZZ=             -2.9949
   XY=            -50.5683   XZ=            242.6907   YZ=              7.2120

 Normal termination of Gaussian 16 at Thu Oct 14 02:32:49 2021.
