 Gaussian 16, Revision A.03,
 Gaussian 16:  ES64L-G16RevA.03 25-Dec-2016

 --------------------------------------------------------
 #p PBE1PBE/Def2SVP td=(nstates=5) density=(transition=1)
 --------------------------------------------------------

 --------------------------------
 TDDFT excited states in gaussian
 --------------------------------
 Symbolic Z-matrix:
 Charge =  0 Multiplicity = 1

                         Standard orientation:
 ---------------------------------------------------------------------
 Center     Atomic      Atomic             Coordinates (Angstroms)
 Number     Number       Type             X           Y           Z
 ---------------------------------------------------------------------
      1         12           0      -23.563338   -0.593287   -0.066894
      2          6           0      -22.726420    2.552266   -0.995218
      3          6           0      -23.393119    0.346878    3.272546
      4          6           0      -24.394373   -3.741161    0.861406
      5          6           0      -23.253613   -1.646220   -3.349949
      6          7           0      -23.222294    1.237236    0.916177
      7          6           0      -22.858519    2.426663    0.373666
      8          6           0      -22.861717    3.544710    1.383301
      9          6           0      -22.801994    2.783371    2.761817
     10          6           0      -23.197984    1.347795    2.284246
     11          6           0      -21.499031    2.857542    3.662675
     12          6           0      -24.195087    4.415635    1.297454
     13          6           0      -24.001609    5.858456    1.850329
     14          1           0      -22.948355    6.182863    2.922972
     15          7           0      -23.789523   -1.634655    1.817986
     16          6           0      -23.677515   -1.010472    3.088043
     17          6           0      -23.943638   -1.971140    4.115949
     18          6           0      -24.229618   -3.206797    3.433074
     19          6           0      -24.153093   -2.859204    1.969097
     20          6           0      -23.996601   -1.663565    5.571395
     21          6           0      -24.575537   -4.573642    4.013122
     22          8           0      -24.702386   -5.645738    3.351833
     23          6           0      -24.775146   -4.717450    5.512348
     24          7           0      -23.725595   -2.439196   -1.069584
     25          6           0      -24.274979   -3.590086   -0.502307
     26          6           0      -24.717163   -4.671868   -1.529679
     27          6           0      -24.349781   -3.875798   -2.904117
     28          6           0      -23.774285   -2.582051   -2.457215
     29          6           0      -23.898790   -5.948296   -1.296357
     30          6           0      -25.491434   -3.748128   -3.869132
     31          6           0      -25.187592   -4.298765   -5.233111
     32          7           0      -23.007221    0.129892   -1.798405
     33          6           0      -22.938908   -0.363549   -3.095371
     34          6           0      -22.518028    0.655346   -3.983998
     35          6           0      -22.363993    1.847050   -3.225866
     36          6           0      -22.772965    1.518334   -1.916200
     37          6           0      -22.304222    0.588352   -5.447458
     38          6           0      -21.898969    3.216380   -3.259356
     39          8           0      -21.409420    3.938449   -4.105771
     40          6           0      -22.209967    3.721767   -1.771272
     41          6           0      -21.137512    4.600911   -1.236354
     42          8           0      -19.949597    4.425528   -1.330759
     43          8           0      -21.606816    5.701444   -0.628249
     44          6           0      -20.551829    6.593795   -0.069031
     45          1           0      -23.143714    0.698207    4.276076
     46          1           0      -24.529990   -4.776547    1.180577
     47          1           0      -23.243363   -1.867820   -4.419104
     48          1           0      -21.941467    4.128214    1.361354
     49          1           0      -23.644186    3.112888    3.369436
     50          1           0      -20.819725    3.566487    3.189202
     51          1           0      -20.964079    1.929006    3.855644
     52          1           0      -21.824442    3.190219    4.648523
     53          1           0      -24.929782    3.833421    1.853923
     54          1           0      -24.480219    4.463631    0.246432
     55          1           0      -24.996921    6.094331    2.227362
     56          1           0      -23.887268    6.502633    0.978914
     57          1           0      -24.932729   -1.237899    5.932882
     58          1           0      -23.153714   -0.998201    5.754045
     59          1           0      -23.686779   -2.499363    6.198030
     60          1           0      -23.777330   -4.833649    5.935113
     61          1           0      -25.328682   -5.648552    5.631279
     62          1           0      -25.261189   -3.861251    5.980427
     63          1           0      -25.761031   -4.890087   -1.303924
     64          1           0      -23.572756   -4.434236   -3.427204
     65          1           0      -23.074633   -5.863065   -0.587811
     66          1           0      -23.611783   -6.363865   -2.262002
     67          1           0      -24.578164   -6.648929   -0.810043
     68          1           0      -25.771933   -2.713981   -4.069467
     69          1           0      -26.421272   -4.210889   -3.538206
     70          1           0      -25.965521   -4.962079   -5.610106
     71          1           0      -24.260218   -4.870931   -5.232855
     72          1           0      -24.985534   -3.413463   -5.836748
     73          1           0      -21.972780   -0.373538   -5.839762
     74          1           0      -21.384760    1.157282   -5.588312
     75          1           0      -23.190953    0.946616   -5.970497
     76          1           0      -23.054617    4.360627   -2.030832
     77          1           0      -20.068058    7.191913   -0.842558
     78          1           0      -19.867627    6.055176    0.586818
     79          1           0      -21.033729    7.312028    0.594757
     80         12           0       23.746793   -0.810028    0.124490
     81          6           0       21.650783    2.208020    0.682737
     82          6           0       26.133954    1.414964   -0.755730
     83          6           0       25.343351   -3.452665   -0.593216
     84          6           0       20.713373   -2.661189    0.337755
     85          7           0       23.823772    1.515057   -0.055889
     86          6           0       22.939517    2.481423    0.392888
     87          6           0       23.518697    3.899630    0.450002
     88          6           0       24.779549    3.674248   -0.440391
     89          6           0       24.957883    2.106720   -0.448305
     90          6           0       24.686700    4.225073   -1.828511
     91          6           0       23.782927    4.508322    1.867953
     92          6           0       23.669585    5.987413    2.029714
     93          1           0       24.677718    6.618259    2.984969
     94          7           0       25.567895   -1.023770   -0.554914
     95          6           0       26.473459    0.024722   -0.820316
     96          6           0       27.752939   -0.563837   -1.093071
     97          6           0       27.531481   -1.994022   -0.882849
     98          6           0       26.140869   -2.171618   -0.667241
     99          6           0       29.081272    0.238695   -1.352529
    100          6           0       28.597304   -3.046467   -0.909322
    101          8           0       28.331871   -4.266731   -0.783203
    102          6           0       30.044351   -2.736247   -1.033475
    103          7           0       23.150121   -2.755136   -0.263535
    104          6           0       24.028298   -3.723226   -0.532895
    105          6           0       23.387355   -5.142137   -0.663083
    106          6           0       22.031711   -4.860024    0.085654
    107          6           0       21.916611   -3.312426    0.020676
    108          6           0       23.149686   -5.549230   -2.152912
    109          6           0       22.066752   -5.339776    1.597382
    110          6           0       22.462508   -6.795621    1.921868
    111          7           0       21.624589   -0.366183    0.484589
    112          6           0       20.559529   -1.252174    0.600343
    113          6           0       19.340198   -0.515994    0.839065
    114          6           0       19.726710    0.828133    0.916091
    115          6           0       21.113554    0.897161    0.609699
    116          6           0       17.988115   -1.085874    1.108214
    117          6           0       19.228148    2.177124    1.149672
    118          8           0       18.135426    2.639051    1.450566
    119          6           0       20.559508    3.090491    1.081542
    120          6           0       20.245052    4.170838    0.162476
    121          8           0       19.971597    4.067352   -1.043672
    122          8           0       19.867438    5.251641    0.906646
    123          6           0       19.440271    6.442621    0.245165
    124          1           0       26.896711    2.186266   -0.882636
    125          1           0       25.855043   -4.387515   -0.830511
    126          1           0       19.819308   -3.284801    0.408309
    127          1           0       22.823694    4.550049   -0.081487
    128          1           0       25.675844    4.025320    0.070128
    129          1           0       24.558108    3.375257   -2.498898
    130          1           0       25.631250    4.696084   -2.100297
    131          1           0       23.881785    4.930485   -2.033988
    132          1           0       24.814792    4.269884    2.124257
    133          1           0       23.145216    3.974818    2.572282
    134          1           0       22.665890    6.121651    2.432546
    135          1           0       23.561473    6.506317    1.077169
    136          1           0       29.798216    0.238889   -0.532031
    137          1           0       28.872750    1.257510   -1.677981
    138          1           0       29.482792   -0.292636   -2.216307
    139          1           0       30.247694   -2.467071   -2.070273
    140          1           0       30.564717   -3.656828   -0.767781
    141          1           0       30.258918   -1.964757   -0.294718
    142          1           0       24.077372   -5.825508   -0.166981
    143          1           0       21.138984   -5.274872   -0.381380
    144          1           0       23.829122   -6.377211   -2.356717
    145          1           0       23.251060   -4.750625   -2.887080
    146          1           0       22.123276   -5.916872   -2.114969
    147          1           0       21.061974   -5.249737    2.009507
    148          1           0       22.675656   -4.609290    2.129746
    149          1           0       23.330410   -6.704929    2.574858
    150          1           0       22.769682   -7.206639    0.959770
    151          1           0       21.669512   -7.342462    2.431767
    152          1           0       18.176299   -2.141976    1.302803
    153          1           0       17.419168   -0.955513    0.187710
    154          1           0       17.441144   -0.578698    1.902987
    155          1           0       20.786186    3.478240    2.074535
    156          1           0       19.502152    6.347726   -0.839156
    157          1           0       20.153460    7.207064    0.553782
    158          1           0       18.471547    6.775247    0.615310
 ---------------------------------------------------------------------

 SCF Done:  E(RPBE1PBE) =  -4067.37605294     A.U. after   17 cycles

 Excitation energies and oscillator strengths:

 Excited State   1:      Singlet-A      1.7479 eV  709.33 nm  f=0.0000  <S**2>=0.000
     312 -> 313        0.70711
 This state for optimization and/or second-order correction.
 Total Energy, E(TD-HF/TD-DFT) =  -4067.31181890
 Copying the excited state density for this state as the 1-particle RhoCI density.

 Excited State   2:      Singlet-A      1.8022 eV  687.94 nm  f=0.3703  <S**2>=0.000
     310 -> 315       -0.16358
     312 -> 314        0.69742
     312 <- 314       -0.11962

 Excited State   3:      Singlet-A      1.8204 eV  681.09 nm  f=0.3636  <S**2>=0.000
     309 -> 316       -0.15128
     311 -> 313        0.70061
     311 <- 313       -0.12604

 Excited State   4:      Singlet-A      2.0733 eV  598.00 nm  f=0.0000  <S**2>=0.000
     311 -> 314        0.70711

 Excited State   5:      Singlet-A      2.2176 eV  559.08 nm  f=0.1172  <S**2>=0.000
     310 -> 314        0.65145
     312 -> 315        0.25931

 The electronic state is 1-A.
 Alpha  occ. eigenvalues --  -46.92314 -46.90550 -19.25760 -19.25359 -19.20019
 Alpha  occ. eigenvalues --  -19.19532 -19.19419 -19.18961 -19.18709 -19.17782
 Alpha  occ. eigenvalues --  -14.42274 -14.41653 -14.41285 -14.41072 -14.39393
 Alpha  occ. eigenvalues --  -14.39200 -14.39118 -14.38480 -10.36018 -10.35562
 Alpha  occ. eigenvalues --  -10.33031 -10.32324 -10.32250 -10.31216 -10.29259
 Alpha  occ. eigenvalues --  -10.29104 -10.29101 -10.28655 -10.28555 -10.28443
 Alpha  occ. eigenvalues --  -10.28425 -10.28360 -10.28303 -10.28263 -10.28230
 Alpha  occ. eigenvalues --  -10.27977 -10.27716 -10.27636 -10.27544 -10.26855
 Alpha  occ. eigenvalues --  -10.26842 -10.26698 -10.26663 -10.26502 -10.26378
 Alpha  occ. eigenvalues --  -10.26311 -10.26068 -10.26048 -10.26009 -10.25997
 Alpha  occ. eigenvalues --  -10.25992 -10.25851 -10.25754 -10.25717 -10.25490
 Alpha  occ. eigenvalues --  -10.25473 -10.25468 -10.25448 -10.25442 -10.25349
 Alpha  occ. eigenvalues --  -10.25341 -10.25234 -10.25203 -10.25108 -10.25057
 Alpha  occ. eigenvalues --  -10.25015 -10.24577 -10.24557 -10.24554 -10.24290
 Alpha  occ. eigenvalues --  -10.24035 -10.23634 -10.23564 -10.23472 -10.23453
 Alpha  occ. eigenvalues --  -10.23256 -10.23213 -10.23168 -10.23136 -10.23089
 Alpha  occ. eigenvalues --  -10.23066 -10.22990 -10.22980 -10.22971 -10.22858
 Alpha  occ. eigenvalues --  -10.22550  -3.14552  -3.12979  -1.87361  -1.86922
 Alpha  occ. eigenvalues --   -1.86798  -1.85813  -1.85334  -1.85250  -1.12062
 Alpha  occ. eigenvalues --   -1.11203  -1.04872  -1.04858  -1.02266  -1.02073
 Alpha  occ. eigenvalues --   -1.02061  -1.01694  -0.99654  -0.99083  -0.98588
 Alpha  occ. eigenvalues --   -0.98333  -0.98220  -0.97334  -0.97151  -0.96031
 Alpha  occ. eigenvalues --   -0.87960  -0.87715  -0.84004  -0.83735  -0.83117
 Alpha  occ. eigenvalues --   -0.83085  -0.82818  -0.82363  -0.82008  -0.81790
 Alpha  occ. eigenvalues --   -0.81513  -0.81147  -0.80698  -0.80528  -0.78974
 Alpha  occ. eigenvalues --   -0.78643  -0.78293  -0.78064  -0.77405  -0.76741
 Alpha  occ. eigenvalues --   -0.76355  -0.75869  -0.75459  -0.75374  -0.75092
 Alpha  occ. eigenvalues --   -0.74740  -0.72884  -0.72589  -0.72094  -0.71731
 Alpha  occ. eigenvalues --   -0.71628  -0.71591  -0.70824  -0.70536  -0.69814
 Alpha  occ. eigenvalues --   -0.69575  -0.67753  -0.67324  -0.66278  -0.65351
 Alpha  occ. eigenvalues --   -0.63636  -0.63488  -0.63037  -0.63026  -0.62561
 Alpha  occ. eigenvalues --   -0.62545  -0.61398  -0.61094  -0.60259  -0.60077
 Alpha  occ. eigenvalues --   -0.59775  -0.59578  -0.59488  -0.59304  -0.58963
 Alpha  occ. eigenvalues --   -0.58660  -0.56882  -0.56564  -0.55395  -0.54863
 Alpha  occ. eigenvalues --   -0.54427  -0.54336  -0.53958  -0.53528  -0.53302
 Alpha  occ. eigenvalues --   -0.52984  -0.52884  -0.52521  -0.52347  -0.52295
 Alpha  occ. eigenvalues --   -0.50667  -0.50387  -0.50129  -0.49852  -0.49726
 Alpha  occ. eigenvalues --   -0.49565  -0.49409  -0.49193  -0.48722  -0.48502
 Alpha  occ. eigenvalues --   -0.48226  -0.47945  -0.47829  -0.47593  -0.47460
 Alpha  occ. eigenvalues --   -0.47297  -0.47077  -0.47033  -0.47000  -0.46880
 Alpha  occ. eigenvalues --   -0.46656  -0.46587  -0.46440  -0.46003  -0.45875
 Alpha  occ. eigenvalues --   -0.45756  -0.45725  -0.45516  -0.44966  -0.44881
 Alpha  occ. eigenvalues --   -0.44632  -0.44535  -0.44409  -0.44388  -0.44339
 Alpha  occ. eigenvalues --   -0.44222  -0.44021  -0.43846  -0.43569  -0.43449
 Alpha  occ. eigenvalues --   -0.43429  -0.43061  -0.42975  -0.42834  -0.42790
 Alpha  occ. eigenvalues --   -0.42675  -0.42501  -0.42360  -0.42274  -0.41985
 Alpha  occ. eigenvalues --   -0.41937  -0.41815  -0.41381  -0.41319  -0.41244
 Alpha  occ. eigenvalues --   -0.41036  -0.41032  -0.40873  -0.40710  -0.40662
 Alpha  occ. eigenvalues --   -0.40076  -0.39966  -0.39908  -0.39723  -0.39619
 Alpha  occ. eigenvalues --   -0.39543  -0.39512  -0.39344  -0.39245  -0.38846
 Alpha  occ. eigenvalues --   -0.38775  -0.38689  -0.38478  -0.38381  -0.38129
 Alpha  occ. eigenvalues --   -0.38100  -0.37978  -0.37865  -0.37626  -0.37502
 Alpha  occ. eigenvalues --   -0.37223  -0.37128  -0.37022  -0.36838  -0.36785
 Alpha  occ. eigenvalues --   -0.36763  -0.36364  -0.36256  -0.36119  -0.35898
 Alpha  occ. eigenvalues --   -0.35723  -0.35689  -0.35508  -0.35321  -0.35273
 Alpha  occ. eigenvalues --   -0.35250  -0.34948  -0.34682  -0.34351  -0.34205
 Alpha  occ. eigenvalues --   -0.33540  -0.33222  -0.33095  -0.32970  -0.32752
 Alpha  occ. eigenvalues --   -0.32636  -0.32230  -0.32223  -0.32033  -0.31580
 Alpha  occ. eigenvalues --   -0.31481  -0.30662  -0.29819  -0.29812  -0.29382
 Alpha  occ. eigenvalues --   -0.29071  -0.28649  -0.28406  -0.27199  -0.26985
 Alpha  occ. eigenvalues --   -0.26254  -0.25926  -0.25732  -0.25507  -0.25481
 Alpha  occ. eigenvalues --   -0.25420  -0.25180  -0.24703  -0.21224  -0.21181
 Alpha  occ. eigenvalues --   -0.19290  -0.18688
 Alpha virt. eigenvalues --   -0.11982  -0.11388  -0.05118  -0.04408  -0.04073
 Alpha virt. eigenvalues --   -0.03912  -0.02220  -0.02120  -0.01006  -0.00450
 Alpha virt. eigenvalues --    0.00130   0.00858   0.00948   0.01211   0.01265

 Mulliken charges:
               1
     1  Mg  12.000000
     2  C    6.000000
     3  C    6.000000
     4  C    6.000000
     5  C    6.000000
     6  N    7.000000
     7  C    6.000000
     8  C    6.000000
     9  C    6.000000
    10  C    6.000000
    11  C    6.000000
    12  C    6.000000
    13  C    6.000000
    14  H    1.000000
    15  N    7.000000
    16  C    6.000000
    17  C    6.000000
    18  C    6.000000
    19  C    6.000000
    20  C    6.000000
    21  C    6.000000
    22  O    8.000000
    23  C    6.000000
    24  N    7.000000
    25  C    6.000000
    26  C    6.000000
    27  C    6.000000
    28  C    6.000000
    29  C    6.000000
    30  C    6.000000
    31  C    6.000000
    32  N    7.000000
    33  C    6.000000
    34  C    6.000000
    35  C    6.000000
    36  C    6.000000
    37  C    6.000000
    38  C    6.000000
    39  O    8.000000
    40  C    6.000000
    41  C    6.000000
    42  O    8.000000
    43  O    8.000000
    44  C    6.000000
    45  H    1.000000
    46  H    1.000000
    47  H    1.000000
    48  H    1.000000
    49  H    1.000000
    50  H    1.000000
    51  H    1.000000
    52  H    1.000000
    53  H    1.000000
    54  H    1.000000
    55  H    1.000000
    56  H    1.000000
    57  H    1.000000
    58  H    1.000000
    59  H    1.000000
    60  H    1.000000
    61  H    1.000000
    62  H    1.000000
    63  H    1.000000
    64  H    1.000000
    65  H    1.000000
    66  H    1.000000
    67  H    1.000000
    68  H    1.000000
    69  H    1.000000
    70  H    1.000000
    71  H    1.000000
    72  H    1.000000
    73  H    1.000000
    74  H    1.000000
    75  H    1.000000
    76  H    1.000000
    77  H    1.000000
    78  H    1.000000
    79  H    1.000000
    80  Mg  12.000000
    81  C    6.000000
    82  C    6.000000
    83  C    6.000000
    84  C    6.000000
    85  N    7.000000
    86  C    6.000000
    87  C    6.000000
    88  C    6.000000
    89  C    6.000000
    90  C    6.000000
    91  C    6.000000
    92  C    6.000000
    93  H    1.000000
    94  N    7.000000
    95  C    6.000000
    96  C    6.000000
    97  C    6.000000
    98  C    6.000000
    99  C    6.000000
   100  C    6.000000
   101  O    8.000000
   102  C    6.000000
   103  N    7.000000
   104  C    6.000000
   105  C    6.000000
   106  C    6.000000
   107  C    6.000000
   108  C    6.000000
   109  C    6.000000
   110  C    6.000000
   111  N    7.000000
   112  C    6.000000
   113  C    6.000000
   114  C    6.000000
   115  C    6.000000
   116  C    6.000000
   117  C    6.000000
   118  O    8.000000
   119  C    6.000000
   120  C    6.000000
   121  O    8.000000
   122  O    8.000000
   123  C    6.000000
   124  H    1.000000
   125  H    1.000000
   126  H    1.000000
   127  H    1.000000
   128  H    1.000000
   129  H    1.000000
   130  H    1.000000
   131  H    1.000000
   132  H    1.000000
   133  H    1.000000
   134  H    1.000000
   135  H    1.000000
   136  H    1.000000
   137  H    1.000000
   138  H    1.000000
   139  H    1.000000
   140  H    1.000000
   141  H    1.000000
   142  H    1.000000
   143  H    1.000000
   144  H    1.000000
   145  H    1.000000
   146  H    1.000000
   147  H    1.000000
   148  H    1.000000
   149  H    1.000000
   150  H    1.000000
   151  H    1.000000
   152  H    1.000000
   153  H    1.000000
   154  H    1.000000
   155  H    1.000000
   156  H    1.000000
   157  H    1.000000
   158  H    1.000000
 Sum of Mulliken charges = 624.00000

 Dipole moment (field-independent basis, Debye):
    X=             -0.0000    Y=              0.0000    Z=             -0.0000  Tot=              0.0000
 Quadrupole moment (field-independent basis, Debye-Ang):
   XX=             -0.0000   YY=             -0.0000   ZZ=             -0.0000
   XY=             -0.0000   XZ=              0.0000   YZ=              0.0000

 Normal termination of Gaussian 16 at Fri Oct 15 01:02:08 2021.
