 Gaussian 16, Revision A.03,
 Gaussian 16:  ES64L-G16RevA.03 25-Dec-2016

 --------------------------------------------------------
 #p PBE1PBE/Def2SVP td=(nstates=5) density=(transition=1)
 --------------------------------------------------------

 --------------------------------
 TDDFT excited states in gaussian
 --------------------------------
 Symbolic Z-matrix:
 Charge =  0 Multiplicity = 1

                         Standard orientation:
 ---------------------------------------------------------------------
 Center     Atomic      Atomic             Coordinates (Angstroms)
 Number     Number       Type             X           Y           Z
 ---------------------------------------------------------------------
      1         12           0        4.821276   -0.709797   -0.243587
      2          6           0        3.127023    2.334002   -0.860635
      3          6           0        7.687699    1.093909    0.421197
      4          6           0        6.490368   -3.643530    0.054679
      5          6           0        1.944539   -2.504091   -1.134821
      6          7           0        5.269590    1.455777   -0.349987
      7          6           0        4.389412    2.533939   -0.403789
      8          6           0        5.140654    3.906447   -0.160335
      9          6           0        6.616664    3.443026   -0.037250
     10          6           0        6.562502    1.898853   -0.036742
     11          6           0        7.649320    3.962387   -1.106371
     12          6           0        4.560141    4.842743    0.977230
     13          6           0        4.115318    6.199728    0.522158
     14          1           0        4.383352    7.390590    1.525401
     15          7           0        6.774831   -1.142948    0.162614
     16          6           0        7.812810   -0.290262    0.479271
     17          6           0        9.024254   -1.064311    0.700525
     18          6           0        8.729963   -2.454129    0.607812
     19          6           0        7.256902   -2.476626    0.280250
     20          6           0       10.368851   -0.454405    1.145206
     21          6           0        9.630163   -3.666524    0.822843
     22          8           0        9.235472   -4.814153    0.799609
     23          6           0       11.163760   -3.580059    1.208314
     24          7           0        4.301436   -2.801345   -0.602368
     25          6           0        5.156186   -3.796668   -0.405856
     26          6           0        4.497587   -5.198649   -0.664332
     27          6           0        2.974338   -4.826645   -0.858121
     28          6           0        3.047753   -3.269829   -0.843317
     29          6           0        5.208105   -5.974245   -1.811093
     30          6           0        2.091270   -5.462939    0.196987
     31          6           0        0.778052   -6.024418   -0.345163
     32          7           0        2.929707   -0.291156   -1.009109
     33          6           0        1.830863   -1.098524   -1.232386
     34          6           0        0.787648   -0.265094   -1.745809
     35          6           0        1.200545    1.081240   -1.588881
     36          6           0        2.547264    1.041968   -1.131522
     37          6           0       -0.525586   -0.726258   -2.253871
     38          6           0        0.762176    2.485082   -1.676967
     39          8           0       -0.249004    3.016117   -2.126871
     40          6           0        2.113770    3.381820   -1.121348
     41          6           0        2.519088    4.313685   -2.126950
     42          8           0        3.493370    4.183240   -2.835843
     43          8           0        1.733005    5.443214   -2.092199
     44          6           0        2.081508    6.416040   -3.157495
     45          1           0        8.580816    1.624308    0.758619
     46          1           0        6.988433   -4.614161    0.089623
     47          1           0        1.071183   -3.136700   -1.310352
     48          1           0        5.129581    4.389908   -1.136595
     49          1           0        7.031819    3.734542    0.927558
     50          1           0        8.569170    4.186669   -0.565402
     51          1           0        7.229966    4.844328   -1.589922
     52          1           0        7.887281    3.241720   -1.888999
     53          1           0        5.338485    4.901340    1.738177
     54          1           0        3.676395    4.342120    1.373162
     55          1           0        3.038761    6.193470    0.346618
     56          1           0        4.646786    6.336654   -0.419169
     57          1           0       10.522451   -0.823118    2.158763
     58          1           0       10.246097    0.622069    1.266862
     59          1           0       11.238130   -0.731341    0.547456
     60          1           0       11.245551   -2.996409    2.125881
     61          1           0       11.800586   -3.335011    0.357796
     62          1           0       11.476187   -4.619533    1.303637
     63          1           0        4.523291   -5.857428    0.203452
     64          1           0        2.723203   -5.128733   -1.875059
     65          1           0        4.449025   -6.310982   -2.517716
     66          1           0        5.846219   -6.783733   -1.455735
     67          1           0        5.880344   -5.303338   -2.343444
     68          1           0        1.864158   -4.776295    1.011830
     69          1           0        2.569325   -6.270741    0.753253
     70          1           0        0.610256   -5.719528   -1.378164
     71          1           0       -0.013160   -5.590281    0.266719
     72          1           0        0.690289   -7.100339   -0.193367
     73          1           0       -0.713327   -1.799920   -2.256770
     74          1           0       -0.707544   -0.164973   -3.171153
     75          1           0       -1.199820   -0.470453   -1.436164
     76          1           0        1.833125    3.918515   -0.214645
     77          1           0        1.959000    5.951959   -4.136377
     78          1           0        3.089388    6.762584   -2.929200
     79          1           0        1.422003    7.282869   -3.173067
     80         12           0       -4.958376   -0.643547    0.283412
     81          6           0       -2.752793    1.970670    1.014310
     82          6           0       -7.315032    1.804068   -0.418980
     83          6           0       -7.134504   -3.044624    0.017771
     84          6           0       -2.436480   -2.921867    1.279893
     85          7           0       -5.147301    1.674339    0.686611
     86          6           0       -4.083104    2.472829    0.818215
     87          6           0       -4.556542    3.883348    0.704448
     88          6           0       -6.101952    3.789167    0.684178
     89          6           0       -6.233173    2.339507    0.261010
     90          6           0       -6.902667    4.126805    1.943073
     91          6           0       -4.000478    4.584080   -0.575641
     92          6           0       -3.339632    5.993990   -0.441415
     93          1           0       -3.825429    6.957819    0.685721
     94          7           0       -6.959614   -0.630778   -0.298519
     95          6           0       -7.660492    0.491874   -0.718738
     96          6           0       -8.936396    0.031307   -1.160920
     97          6           0       -8.976919   -1.401243   -0.924905
     98          6           0       -7.674939   -1.776905   -0.394232
     99          6           0      -10.077262    0.947389   -1.655205
    100          6           0      -10.150199   -2.407428   -1.102473
    101          8           0      -10.083298   -3.570537   -0.859336
    102          6           0      -11.428431   -1.839743   -1.687488
    103          7           0       -4.766604   -2.671525    0.598451
    104          6           0       -5.856712   -3.462242    0.480926
    105          6           0       -5.579421   -4.964457    0.763829
    106          6           0       -3.996936   -4.927262    0.902678
    107          6           0       -3.673551   -3.437881    0.905265
    108          6           0       -6.405312   -5.464974    2.084442
    109          6           0       -3.253022   -5.810948   -0.147319
    110          6           0       -2.697541   -5.127854   -1.384158
    111          7           0       -2.948415   -0.577582    0.978492
    112          6           0       -2.045826   -1.570509    1.248650
    113          6           0       -0.736923   -0.925313    1.617183
    114          6           0       -0.992192    0.461904    1.529553
    115          6           0       -2.368788    0.653832    1.175778
    116          6           0        0.501462   -1.592444    2.151163
    117          6           0       -0.406191    1.790859    1.686217
    118          8           0        0.745612    2.077651    2.024851
    119          6           0       -1.472143    2.770168    1.203768
    120          6           0       -1.588522    3.808303    2.282843
    121          8           0       -2.183451    3.662882    3.334947
    122          8           0       -0.771383    4.787133    1.930414
    123          6           0       -0.353138    5.735260    2.951031
    124          1           0       -8.097738    2.560420   -0.501568
    125          1           0       -7.793178   -3.876392   -0.239408
    126          1           0       -1.654791   -3.626456    1.572454
    127          1           0       -4.197740    4.440563    1.569241
    128          1           0       -6.436401    4.520849   -0.051386
    129          1           0       -6.329265    4.469499    2.804577
    130          1           0       -7.489614    3.263905    2.258951
    131          1           0       -7.593275    4.919165    1.655258
    132          1           0       -4.712861    4.613331   -1.399849
    133          1           0       -3.244854    3.850448   -0.856221
    134          1           0       -3.545577    6.460464   -1.405616
    135          1           0       -2.264173    5.862746   -0.324738
    136          1           0      -11.018302    0.785393   -1.129468
    137          1           0      -10.362340    0.734079   -2.685530
    138          1           0       -9.847860    2.013251   -1.621120
    139          1           0      -11.260187   -1.279321   -2.607352
    140          1           0      -11.915506   -1.244912   -0.914708
    141          1           0      -12.163676   -2.631628   -1.830315
    142          1           0       -5.877884   -5.607920   -0.063623
    143          1           0       -3.640608   -5.355744    1.839339
    144          1           0       -5.637794   -5.595154    2.847497
    145          1           0       -6.825599   -6.465565    1.980665
    146          1           0       -7.095320   -4.722005    2.486017
    147          1           0       -4.036618   -6.458612   -0.540771
    148          1           0       -2.485039   -6.438867    0.303907
    149          1           0       -3.495944   -4.450966   -1.690693
    150          1           0       -2.559556   -5.979090   -2.050424
    151          1           0       -1.826664   -4.476081   -1.319296
    152          1           0        0.466990   -2.659135    2.372922
    153          1           0        0.792177   -1.110973    3.084958
    154          1           0        1.285882   -1.342000    1.437671
    155          1           0       -1.181856    3.375020    0.344480
    156          1           0       -0.631683    5.575757    3.992209
    157          1           0       -0.881098    6.643518    2.658850
    158          1           0        0.632844    6.112273    2.679089
 ---------------------------------------------------------------------

 SCF Done:  E(RPBE1PBE) =  -4067.38344884     A.U. after   17 cycles

 Excitation energies and oscillator strengths:

 Excited State   1:      Singlet-A      1.6826 eV  736.85 nm  f=0.0736  <S**2>=0.000
     311 -> 314       -0.18884
     312 -> 313        0.66260
     312 -> 314       -0.14977
 This state for optimization and/or second-order correction.
 Total Energy, E(TD-HF/TD-DFT) =  -4067.32161316
 Copying the excited state density for this state as the 1-particle RhoCI density.

 Excited State   2:      Singlet-A      1.6981 eV  730.14 nm  f=0.0189  <S**2>=0.000
     311 -> 313        0.42709
     311 -> 314        0.47574
     312 -> 314       -0.28337

 Excited State   3:      Singlet-A      1.8308 eV  677.23 nm  f=0.7896  <S**2>=0.000
     309 -> 315        0.10831
     310 -> 316       -0.10159
     311 -> 313       -0.32572
     311 -> 314        0.46672
     312 -> 313        0.19071
     312 -> 314        0.34978

 Excited State   4:      Singlet-A      1.8962 eV  653.84 nm  f=0.0211  <S**2>=0.000
     309 -> 315       -0.12387
     310 -> 316       -0.13749
     311 -> 313        0.43905
     311 -> 314       -0.11482
     312 -> 313        0.10317
     312 -> 314        0.50694

 Excited State   5:      Singlet-A      2.1760 eV  569.77 nm  f=0.0130  <S**2>=0.000
     309 -> 313        0.15884
     310 -> 313        0.58057
     310 -> 314        0.29101
     312 -> 316        0.17668

 The electronic state is 1-A.
 Alpha  occ. eigenvalues --  -46.91971 -46.91463 -19.26594 -19.25042 -19.20219
 Alpha  occ. eigenvalues --  -19.19634 -19.19462 -19.19454 -19.19427 -19.18835
 Alpha  occ. eigenvalues --  -14.41595 -14.41233 -14.41108 -14.40720 -14.39710
 Alpha  occ. eigenvalues --  -14.38747 -14.38519 -14.38335 -10.35712 -10.35238
 Alpha  occ. eigenvalues --  -10.33565 -10.33126 -10.32292 -10.31641 -10.29757
 Alpha  occ. eigenvalues --  -10.29170 -10.29051 -10.28630 -10.28592 -10.28550
 Alpha  occ. eigenvalues --  -10.28537 -10.28518 -10.28154 -10.27972 -10.27942
 Alpha  occ. eigenvalues --  -10.27744 -10.27361 -10.27279 -10.27219 -10.26752
 Alpha  occ. eigenvalues --  -10.26668 -10.26597 -10.26592 -10.26529 -10.26252
 Alpha  occ. eigenvalues --  -10.26134 -10.26060 -10.26008 -10.25820 -10.25583
 Alpha  occ. eigenvalues --  -10.25524 -10.25436 -10.25388 -10.25349 -10.25300
 Alpha  occ. eigenvalues --  -10.25174 -10.25147 -10.25128 -10.25012 -10.24965
 Alpha  occ. eigenvalues --  -10.24791 -10.24438 -10.24346 -10.24235 -10.24148
 Alpha  occ. eigenvalues --  -10.24100 -10.24027 -10.24005 -10.23999 -10.23996
 Alpha  occ. eigenvalues --  -10.23876 -10.23850 -10.23776 -10.23650 -10.23602
 Alpha  occ. eigenvalues --  -10.23486 -10.23482 -10.23481 -10.23202 -10.23121
 Alpha  occ. eigenvalues --  -10.23052 -10.22944 -10.22642 -10.22632 -10.22586
 Alpha  occ. eigenvalues --  -10.22492  -3.14015  -3.13578  -1.86863  -1.86425
 Alpha  occ. eigenvalues --   -1.86424  -1.86199  -1.85945  -1.85810  -1.12769
 Alpha  occ. eigenvalues --   -1.10637  -1.06143  -1.05821  -1.04593  -1.04087
 Alpha  occ. eigenvalues --   -1.03079  -1.02269  -0.99297  -0.98589  -0.98259
 Alpha  occ. eigenvalues --   -0.97016  -0.96808  -0.96506  -0.96474  -0.95444
 Alpha  occ. eigenvalues --   -0.87251  -0.86126  -0.83489  -0.82973  -0.82427
 Alpha  occ. eigenvalues --   -0.82307  -0.82223  -0.82085  -0.81257  -0.81094
 Alpha  occ. eigenvalues --   -0.81043  -0.80269  -0.80032  -0.79640  -0.78481
 Alpha  occ. eigenvalues --   -0.78425  -0.77988  -0.77671  -0.76806  -0.76698
 Alpha  occ. eigenvalues --   -0.75413  -0.75180  -0.74926  -0.74896  -0.74066
 Alpha  occ. eigenvalues --   -0.74037  -0.72339  -0.72054  -0.71391  -0.71295
 Alpha  occ. eigenvalues --   -0.70946  -0.70639  -0.70383  -0.70023  -0.69319
 Alpha  occ. eigenvalues --   -0.68946  -0.66871  -0.66625  -0.65993  -0.65598
 Alpha  occ. eigenvalues --   -0.63877  -0.63395  -0.63135  -0.63078  -0.61904
 Alpha  occ. eigenvalues --   -0.61814  -0.61319  -0.60342  -0.60033  -0.59409
 Alpha  occ. eigenvalues --   -0.59374  -0.59164  -0.58892  -0.58867  -0.58831
 Alpha  occ. eigenvalues --   -0.58592  -0.57114  -0.55721  -0.54315  -0.54225
 Alpha  occ. eigenvalues --   -0.53940  -0.53678  -0.53446  -0.53103  -0.52890
 Alpha  occ. eigenvalues --   -0.52491  -0.52266  -0.52061  -0.51720  -0.51500
 Alpha  occ. eigenvalues --   -0.51193  -0.50388  -0.50372  -0.50185  -0.49373
 Alpha  occ. eigenvalues --   -0.49277  -0.49218  -0.49023  -0.48842  -0.48285
 Alpha  occ. eigenvalues --   -0.47977  -0.47709  -0.47527  -0.47468  -0.47127
 Alpha  occ. eigenvalues --   -0.47088  -0.47025  -0.46739  -0.46646  -0.46485
 Alpha  occ. eigenvalues --   -0.46235  -0.46187  -0.46062  -0.45845  -0.45639
 Alpha  occ. eigenvalues --   -0.45562  -0.45459  -0.45109  -0.45036  -0.44843
 Alpha  occ. eigenvalues --   -0.44483  -0.44333  -0.44047  -0.43974  -0.43884
 Alpha  occ. eigenvalues --   -0.43817  -0.43363  -0.43247  -0.43154  -0.43071
 Alpha  occ. eigenvalues --   -0.42864  -0.42820  -0.42711  -0.42604  -0.42498
 Alpha  occ. eigenvalues --   -0.42377  -0.42216  -0.41999  -0.41800  -0.41509
 Alpha  occ. eigenvalues --   -0.41343  -0.41050  -0.40972  -0.40790  -0.40738
 Alpha  occ. eigenvalues --   -0.40628  -0.40551  -0.40498  -0.40184  -0.40017
 Alpha  occ. eigenvalues --   -0.39975  -0.39845  -0.39723  -0.39597  -0.39572
 Alpha  occ. eigenvalues --   -0.39380  -0.39274  -0.39042  -0.38894  -0.38769
 Alpha  occ. eigenvalues --   -0.38502  -0.38406  -0.38272  -0.38128  -0.37966
 Alpha  occ. eigenvalues --   -0.37828  -0.37803  -0.37730  -0.37494  -0.37403
 Alpha  occ. eigenvalues --   -0.37265  -0.37237  -0.37211  -0.36772  -0.36701
 Alpha  occ. eigenvalues --   -0.36352  -0.36294  -0.36215  -0.35932  -0.35915
 Alpha  occ. eigenvalues --   -0.35785  -0.35359  -0.35256  -0.35151  -0.34783
 Alpha  occ. eigenvalues --   -0.34713  -0.34632  -0.34248  -0.34118  -0.33937
 Alpha  occ. eigenvalues --   -0.33602  -0.33301  -0.32489  -0.32145  -0.31962
 Alpha  occ. eigenvalues --   -0.31805  -0.31779  -0.31294  -0.31201  -0.30978
 Alpha  occ. eigenvalues --   -0.30927  -0.30888  -0.29247  -0.29187  -0.28884
 Alpha  occ. eigenvalues --   -0.28808  -0.28521  -0.28273  -0.26962  -0.26269
 Alpha  occ. eigenvalues --   -0.26067  -0.25938  -0.25803  -0.25663  -0.25365
 Alpha  occ. eigenvalues --   -0.25228  -0.24580  -0.24352  -0.20736  -0.20500
 Alpha  occ. eigenvalues --   -0.18718  -0.18502
 Alpha virt. eigenvalues --   -0.10992  -0.10747  -0.05176  -0.04835  -0.04270
 Alpha virt. eigenvalues --   -0.03588  -0.02313  -0.01400   0.00231   0.00285
 Alpha virt. eigenvalues --    0.00465   0.01134   0.01455   0.01602   0.01779

 Mulliken charges:
               1
     1  Mg  12.000273
     2  C    5.998559
     3  C    6.001383
     4  C    6.000232
     5  C    5.997667
     6  N    6.998997
     7  C    6.002601
     8  C    5.998360
     9  C    6.001620
    10  C    5.993969
    11  C    6.000951
    12  C    5.999686
    13  C    6.000186
    14  H    0.999433
    15  N    7.000895
    16  C    5.994308
    17  C    5.996715
    18  C    5.996562
    19  C    5.995850
    20  C    6.000229
    21  C    5.998291
    22  O    7.995166
    23  C    6.000551
    24  N    6.998975
    25  C    5.996091
    26  C    6.001463
    27  C    5.998126
    28  C    6.004846
    29  C    6.000588
    30  C    5.999958
    31  C    5.999892
    32  N    6.999932
    33  C    6.007386
    34  C    6.004746
    35  C    6.000775
    36  C    6.003686
    37  C    5.999545
    38  C    6.002453
    39  O    8.001797
    40  C    6.000985
    41  C    5.999913
    42  O    8.001255
    43  O    7.999912
    44  C    5.999932
    45  H    0.997570
    46  H    0.997959
    47  H    1.000022
    48  H    0.999818
    49  H    0.999025
    50  H    0.999318
    51  H    0.997047
    52  H    0.999495
    53  H    1.000730
    54  H    0.999786
    55  H    0.999053
    56  H    0.999992
    57  H    0.996847
    58  H    0.997100
    59  H    0.996599
    60  H    0.998715
    61  H    0.997917
    62  H    0.997269
    63  H    0.999141
    64  H    0.999329
    65  H    0.997520
    66  H    0.999551
    67  H    1.000318
    68  H    1.000883
    69  H    1.000636
    70  H    0.999202
    71  H    0.999414
    72  H    0.999690
    73  H    1.000999
    74  H    1.000267
    75  H    1.003882
    76  H    1.001032
    77  H    0.999689
    78  H    1.000784
    79  H    0.999742
    80  Mg  12.000782
    81  C    6.001447
    82  C    5.998641
    83  C    5.998224
    84  C    6.003054
    85  N    6.999675
    86  C    5.996994
    87  C    6.000766
    88  C    5.997976
    89  C    6.006790
    90  C    5.999662
    91  C    6.000583
    92  C    5.999871
    93  H    1.000247
    94  N    6.998267
    95  C    6.007824
    96  C    6.003352
    97  C    6.003002
    98  C    6.006153
    99  C    5.999314
   100  C    6.003019
   101  O    8.005085
   102  C    5.998632
   103  N    7.000142
   104  C    6.006836
   105  C    5.997828
   106  C    6.000971
   107  C    5.996426
   108  C    5.998790
   109  C    6.000024
   110  C    6.001136
   111  N    6.999848
   112  C    5.995890
   113  C    5.989684
   114  C    6.000676
   115  C    5.995392
   116  C    6.000779
   117  C    5.995765
   118  O    7.995876
   119  C    6.000274
   120  C    5.999267
   121  O    7.998959
   122  O    7.999848
   123  C    6.000420
   124  H    1.002920
   125  H    1.002064
   126  H    1.000522
   127  H    1.000749
   128  H    1.001268
   129  H    1.003060
   130  H    0.999488
   131  H    1.001178
   132  H    0.998061
   133  H    1.000085
   134  H    0.999834
   135  H    1.001166
   136  H    1.003661
   137  H    1.003937
   138  H    1.003484
   139  H    1.001368
   140  H    1.001833
   141  H    1.003416
   142  H    1.001097
   143  H    1.001211
   144  H    1.002800
   145  H    1.001679
   146  H    0.999829
   147  H    0.999107
   148  H    1.001272
   149  H    0.997808
   150  H    1.000393
   151  H    1.001079
   152  H    0.997687
   153  H    0.998677
   154  H    0.996684
   155  H    0.998240
   156  H    0.999806
   157  H    0.999038
   158  H    1.000225
 Sum of Mulliken charges = 624.00000

 Dipole moment (field-independent basis, Debye):
    X=             -4.7476    Y=              0.1723    Z=             -0.6998  Tot=              4.8019
 Quadrupole moment (field-independent basis, Debye-Ang):
   XX=              3.1430   YY=             -0.6407   ZZ=              0.0965
   XY=              5.7699   XZ=              0.6081   YZ=              0.0089

 Normal termination of Gaussian 16 at Fri Oct 15 14:54:09 2021.
