 Gaussian 16, Revision A.03,
 Gaussian 16:  ES64L-G16RevA.03 25-Dec-2016

 ---------------------------------------------------------
 #p PBE1PBE/Def2SVP td=(nstates=5, root=1) density=current
 ---------------------------------------------------------

 --------------------------------
 TDDFT excited states in gaussian
 --------------------------------
 Symbolic Z-matrix:
 Charge =  0 Multiplicity = 1

                         Standard orientation:
 ---------------------------------------------------------------------
 Center     Atomic      Atomic             Coordinates (Angstroms)
 Number     Number       Type             X           Y           Z
 ---------------------------------------------------------------------
      1         12           0       -0.767131    0.041376   -0.025374
      2          6           0        2.733754    0.223436    0.048262
      3          6           0       -0.489085   -3.390371   -0.022642
      4          6           0       -4.062645   -0.103914   -0.126168
      5          6           0       -0.848606    3.550102   -0.183181
      6          7           0        0.949926   -1.353096    0.095432
      7          6           0        2.320690   -1.094220    0.097071
      8          6           0        3.193508   -2.353992    0.477626
      9          6           0        2.142512   -3.429997    0.284427
     10          6           0        0.752369   -2.689343    0.112148
     11          6           0        2.408158   -4.244138   -1.063855
     12          6           0        3.510582   -2.149992    2.025485
     13          6           0        4.982963   -2.503652    2.516523
     14          1           0        5.527291   -3.650106    1.703247
     15          7           0       -2.038529   -1.492968   -0.213205
     16          6           0       -1.771749   -2.795984   -0.204053
     17          6           0       -2.959592   -3.605323   -0.272432
     18          6           0       -4.027378   -2.698477   -0.121954
     19          6           0       -3.395908   -1.328009   -0.208058
     20          6           0       -3.005745   -5.085318   -0.382841
     21          6           0       -5.493938   -2.945527    0.165857
     22          8           0       -6.268052   -2.050325    0.523298
     23          6           0       -6.099131   -4.328970   -0.087953
     24          7           0       -2.247432    1.552597   -0.189899
     25          6           0       -3.563381    1.158198   -0.133497
     26          6           0       -4.436831    2.406213   -0.024339
     27          6           0       -3.391322    3.620747    0.081142
     28          6           0       -2.073118    2.902681   -0.041571
     29          6           0       -5.473209    2.435555   -1.202763
     30          6           0       -3.505687    4.523904    1.299189
     31          6           0       -3.598408    6.042211    0.949447
     32          7           0        0.642972    1.570434   -0.084260
     33          6           0        0.459443    2.986256   -0.170281
     34          6           0        1.715654    3.644875   -0.221643
     35          6           0        2.626881    2.578936   -0.134061
     36          6           0        1.913614    1.362591   -0.105830
     37          6           0        2.053467    5.099315   -0.291808
     38          6           0        4.011214    2.233637   -0.076147
     39          8           0        5.024376    2.890639   -0.127102
     40          6           0        4.106684    0.698930    0.154795
     41          6           0        5.094059    0.129196   -0.797807
     42          8           0        4.973964   -0.002901   -2.012534
     43          8           0        6.140993   -0.276162   -0.072542
     44          6           0        7.209076   -0.949067   -0.781595
     45          1           0       -0.551698   -4.472172    0.111448
     46          1           0       -5.148384   -0.220870   -0.169953
     47          1           0       -0.827433    4.641857   -0.168746
     48          1           0        4.097954   -2.258616   -0.122397
     49          1           0        2.101829   -4.077847    1.159422
     50          1           0        3.271846   -3.868816   -1.613096
     51          1           0        1.522796   -4.159672   -1.693719
     52          1           0        2.545040   -5.271903   -0.727423
     53          1           0        2.868430   -2.740578    2.678229
     54          1           0        3.272028   -1.109453    2.247192
     55          1           0        4.957822   -2.953232    3.509238
     56          1           0        5.577745   -1.604346    2.678549
     57          1           0       -3.404242   -5.453777    0.563412
     58          1           0       -2.009380   -5.506783   -0.508482
     59          1           0       -3.636011   -5.439041   -1.198232
     60          1           0       -7.152870   -4.056955   -0.144650
     61          1           0       -5.875575   -5.060160    0.689787
     62          1           0       -5.902583   -4.790998   -1.055238
     63          1           0       -5.071863    2.462186    0.859754
     64          1           0       -3.502444    4.244617   -0.805823
     65          1           0       -6.428945    2.692447   -0.745813
     66          1           0       -5.519502    1.509308   -1.775584
     67          1           0       -5.342631    3.324001   -1.821720
     68          1           0       -2.705345    4.397636    2.027629
     69          1           0       -4.500399    4.307825    1.691564
     70          1           0       -3.683568    6.185217   -0.127894
     71          1           0       -2.661360    6.560060    1.153069
     72          1           0       -4.452923    6.510281    1.438569
     73          1           0        1.835240    5.415652    0.728571
     74          1           0        1.441249    5.521581   -1.088363
     75          1           0        3.115463    5.273666   -0.458810
     76          1           0        4.572568    0.627075    1.138497
     77          1           0        7.552805   -0.330290   -1.610960
     78          1           0        6.957741   -1.891370   -1.269586
     79          1           0        8.012731   -1.084629   -0.057586
 ---------------------------------------------------------------------

 SCF Done:  E(RPBE1PBE) =  -2033.71320579     A.U. after   16 cycles

 Excitation energies and oscillator strengths:

 Excited State   1:      Singlet-A      1.8615 eV  666.06 nm  f=0.3659  <S**2>=0.000
     155 ->158        -0.15504
     156 ->157         0.69391
     156 <-157        -0.10802
 This state for optimization and/or second-order correction.
 Total Energy, E(TD-HF/TD-DFT) =  -2033.64479819
 Copying the excited state density for this state as the 1-particle RhoCI density.

 Excited State   2:      Singlet-A      2.2777 eV  544.35 nm  f=0.1209  <S**2>=0.000
     155 ->157         0.64780
     156 ->158         0.25232
     156 ->159         0.10951

 Excited State   3:      Singlet-A      2.8475 eV  435.41 nm  f=0.0001  <S**2>=0.000
     154 ->157         0.68100
     154 ->160         0.10856

 Excited State   4:      Singlet-A      3.1181 eV  397.62 nm  f=0.0001  <S**2>=0.000
     153 ->157         0.68394
     156 ->158        -0.12004

 Excited State   5:      Singlet-A      3.2323 eV  383.58 nm  f=0.1641  <S**2>=0.000
     150 ->157        -0.18510
     151 ->157         0.30791
     151 ->158        -0.10500
     152 ->157         0.20335
     155 ->157        -0.16706
     156 ->158         0.48085
     156 ->159        -0.14694

 The electronic state is 1-A.
 Alpha  occ. eigenvalues --  -46.91159 -19.25969 -19.19900 -19.19123 -19.17888
 Alpha  occ. eigenvalues --  -14.41768 -14.41128 -14.39700 -14.38253 -10.35409
 Alpha  occ. eigenvalues --  -10.33131 -10.30512 -10.29433 -10.28634 -10.28434
 Alpha  occ. eigenvalues --  -10.28387 -10.28214 -10.28078 -10.27941 -10.27017
 Alpha  occ. eigenvalues --  -10.26553 -10.26355 -10.26284 -10.26076 -10.25394
 Alpha  occ. eigenvalues --  -10.25386 -10.25360 -10.25125 -10.25057 -10.25022
 Alpha  occ. eigenvalues --  -10.24981 -10.24823 -10.24423 -10.24405 -10.23932
 Alpha  occ. eigenvalues --  -10.23907 -10.23721 -10.23456 -10.23415 -10.23406
 Alpha  occ. eigenvalues --  -10.23179 -10.22936 -10.21631  -3.13445  -1.86298
 Alpha  occ. eigenvalues --   -1.85800  -1.85700  -1.11972  -1.04840  -1.04349
 Alpha  occ. eigenvalues --   -1.01979  -0.99447  -0.98741  -0.97512  -0.97004
 Alpha  occ. eigenvalues --   -0.87162  -0.83834  -0.82688  -0.82677  -0.82232
 Alpha  occ. eigenvalues --   -0.81541  -0.80939  -0.78281  -0.77843  -0.76553
 Alpha  occ. eigenvalues --   -0.75980  -0.75542  -0.74676  -0.73036  -0.71821
 Alpha  occ. eigenvalues --   -0.71119  -0.69941  -0.69307  -0.67602  -0.65815
 Alpha  occ. eigenvalues --   -0.63469  -0.63243  -0.62062  -0.61786  -0.59805
 Alpha  occ. eigenvalues --   -0.59717  -0.59560  -0.59092  -0.57100  -0.55204
 Alpha  occ. eigenvalues --   -0.54188  -0.53709  -0.53218  -0.52353  -0.51889
 Alpha  occ. eigenvalues --   -0.51169  -0.50214  -0.49865  -0.49031  -0.48448
 Alpha  occ. eigenvalues --   -0.48040  -0.47441  -0.47212  -0.47081  -0.46735
 Alpha  occ. eigenvalues --   -0.46408  -0.45966  -0.45511  -0.45264  -0.45121
 Alpha  occ. eigenvalues --   -0.44880  -0.44565  -0.44248  -0.43822  -0.43297
 Alpha  occ. eigenvalues --   -0.43053  -0.42863  -0.42583  -0.42351  -0.42188
 Alpha  occ. eigenvalues --   -0.41891  -0.41529  -0.41336  -0.41051  -0.40798
 Alpha  occ. eigenvalues --   -0.40059  -0.39895  -0.39524  -0.39300  -0.39289
 Alpha  occ. eigenvalues --   -0.39066  -0.38549  -0.38197  -0.37899  -0.37557
 Alpha  occ. eigenvalues --   -0.37432  -0.37257  -0.36784  -0.36494  -0.35990
 Alpha  occ. eigenvalues --   -0.35659  -0.35374  -0.35005  -0.34658  -0.33716
 Alpha  occ. eigenvalues --   -0.33290  -0.32650  -0.32413  -0.31951  -0.31494
 Alpha  occ. eigenvalues --   -0.31340  -0.29472  -0.29022  -0.28164  -0.27199
 Alpha  occ. eigenvalues --   -0.26464  -0.26385  -0.25300  -0.24613  -0.21015
 Alpha  occ. eigenvalues --   -0.18680
 Alpha virt. eigenvalues --   -0.11062  -0.05320  -0.03537  -0.01619   0.00549
 Alpha virt. eigenvalues --    0.01443   0.01759   0.01982   0.03240   0.03901
 Alpha virt. eigenvalues --    0.04697   0.05542   0.05884   0.06585   0.06973

 Mulliken charges:
               1
     1  Mg   0.984110
     2  C   -0.007100
     3  C   -0.091838
     4  C   -0.062326
     5  C   -0.063825
     6  N   -0.393854
     7  C    0.000937
     8  C   -0.083958
     9  C   -0.123012
    10  C    0.115274
    11  C    0.014599
    12  C   -0.008530
    13  C   -0.133929
    14  H    0.042301
    15  N   -0.503151
    16  C    0.160770
    17  C   -0.191213
    18  C   -0.074684
    19  C    0.151442
    20  C    0.067330
    21  C    0.056654
    22  O   -0.259572
    23  C   -0.052683
    24  N   -0.435536
    25  C    0.133236
    26  C   -0.130820
    27  C   -0.083748
    28  C    0.104600
    29  C    0.000046
    30  C   -0.011715
    31  C   -0.088501
    32  N   -0.453648
    33  C    0.099816
    34  C   -0.196899
    35  C   -0.039705
    36  C    0.168121
    37  C    0.079634
    38  C    0.099754
    39  O   -0.215251
    40  C   -0.118017
    41  C    0.253606
    42  O   -0.263360
    43  O   -0.337496
    44  C    0.128204
    45  H    0.006437
    46  H    0.033053
    47  H   -0.000859
    48  H    0.069222
    49  H    0.051180
    50  H    0.055777
    51  H    0.052697
    52  H    0.046493
    53  H    0.039644
    54  H    0.055703
    55  H    0.049510
    56  H    0.068140
    57  H    0.055892
    58  H    0.040596
    59  H    0.060243
    60  H    0.056543
    61  H    0.065395
    62  H    0.053727
    63  H    0.058309
    64  H    0.052628
    65  H    0.034913
    66  H    0.071096
    67  H    0.032153
    68  H    0.057980
    69  H    0.041424
    70  H    0.028977
    71  H    0.044697
    72  H    0.052246
    73  H    0.060556
    74  H    0.058594
    75  H    0.065661
    76  H    0.077231
    77  H    0.058967
    78  H    0.049183
    79  H    0.059927
 Sum of Mulliken charges =  -0.00000

 Dipole moment (field-independent basis, Debye):
    X=             -1.9773    Y=             -2.8837    Z=              2.1351  Tot=              4.0968
 Quadrupole moment (field-independent basis, Debye-Ang):
   XX=           -270.8819   YY=           -221.8777   ZZ=           -259.0364
   XY=            -28.3639   XZ=             14.0913   YZ=              2.2876

 Normal termination of Gaussian 16 at Wed Oct 13 14:37:14 2021.
