 Gaussian 16, Revision A.03,
 Gaussian 16:  ES64L-G16RevA.03 25-Dec-2016

 --------------------------------------------------------
 #p PBE1PBE/Def2SVP td=(nstates=5) density=(transition=1)
 --------------------------------------------------------

 --------------------------------
 TDDFT excited states in gaussian
 --------------------------------
 Symbolic Z-matrix:
 Charge =  0 Multiplicity = 1

                         Standard orientation:
 ---------------------------------------------------------------------
 Center     Atomic      Atomic             Coordinates (Angstroms)
 Number     Number       Type             X           Y           Z
 ---------------------------------------------------------------------
      1         12           0       -4.810529   -0.590883    0.057605
      2          6           0       -2.728018    1.909211    1.314905
      3          6           0       -7.145875    1.684592   -0.609664
      4          6           0       -7.116787   -3.112164    0.154653
      5          6           0       -2.355048   -2.941162    0.821196
      6          7           0       -4.854874    1.603838    0.174475
      7          6           0       -3.906603    2.375243    0.692071
      8          6           0       -4.292607    3.881312    0.462935
      9          6           0       -5.749182    3.769749   -0.047620
     10          6           0       -5.966628    2.263453   -0.155702
     11          6           0       -6.850160    4.319868    0.988600
     12          6           0       -3.363626    4.673042   -0.565406
     13          6           0       -3.054586    6.054851   -0.100643
     14          1           0       -3.285643    7.230010   -1.038115
     15          7           0       -6.843311   -0.683024   -0.218979
     16          6           0       -7.648679    0.384806   -0.514475
     17          6           0       -8.952952   -0.122173   -0.963233
     18          6           0       -8.930867   -1.526242   -0.733843
     19          6           0       -7.591213   -1.808463   -0.192104
     20          6           0      -10.111058    0.808418   -1.445758
     21          6           0      -10.079956   -2.562042   -0.922288
     22          8           0       -9.967213   -3.762774   -0.702320
     23          6           0      -11.384201   -2.068802   -1.424199
     24          7           0       -4.769681   -2.648418    0.450177
     25          6           0       -5.859631   -3.522327    0.505099
     26          6           0       -5.397118   -4.894057    1.062197
     27          6           0       -3.863201   -4.947679    0.641423
     28          6           0       -3.675246   -3.404111    0.627808
     29          6           0       -5.699312   -5.074313    2.565370
     30          6           0       -3.538127   -5.548921   -0.696420
     31          6           0       -3.734116   -4.770881   -1.963644
     32          7           0       -2.847975   -0.588256    0.701041
     33          6           0       -1.974265   -1.605440    1.008635
     34          6           0       -0.688724   -1.097020    1.492621
     35          6           0       -0.961114    0.323772    1.737655
     36          6           0       -2.302745    0.547265    1.237293
     37          6           0        0.454382   -1.883525    1.886020
     38          6           0       -0.430093    1.571464    2.273002
     39          8           0        0.566146    1.833105    2.835747
     40          6           0       -1.556801    2.681058    1.936158
     41          6           0       -1.916029    3.574197    3.096682
     42          8           0       -2.828891    3.370014    3.891457
     43          8           0       -1.104533    4.707386    3.051898
     44          6           0       -1.312200    5.736573    4.086668
     45          1           0       -7.943072    2.283663   -1.055498
     46          1           0       -7.910042   -3.862549    0.184302
     47          1           0       -1.599315   -3.718929    0.946376
     48          1           0       -4.331121    4.442439    1.396947
     49          1           0       -5.978243    4.295828   -0.974357
     50          1           0       -7.022995    5.366188    0.735902
     51          1           0       -6.541928    4.332513    2.033717
     52          1           0       -7.768791    3.753672    0.830441
     53          1           0       -3.831534    4.761498   -1.546025
     54          1           0       -2.412371    4.196434   -0.802596
     55          1           0       -1.973150    6.031778    0.030953
     56          1           0       -3.475634    6.380594    0.850106
     57          1           0      -10.685960    1.048733   -0.551862
     58          1           0      -10.694711    0.344573   -2.241294
     59          1           0       -9.792140    1.820130   -1.698669
     60          1           0      -11.812150   -1.128211   -1.077786
     61          1           0      -12.154669   -2.816165   -1.236283
     62          1           0      -11.404164   -2.155457   -2.510942
     63          1           0       -5.955678   -5.610287    0.460281
     64          1           0       -3.248254   -5.458615    1.382077
     65          1           0       -4.858511   -5.346369    3.203474
     66          1           0       -6.586409   -5.676234    2.763750
     67          1           0       -6.026720   -4.126611    2.992517
     68          1           0       -4.064230   -6.478811   -0.908931
     69          1           0       -2.485711   -5.832701   -0.682364
     70          1           0       -2.739467   -4.360345   -2.136600
     71          1           0       -4.417535   -3.923681   -1.902226
     72          1           0       -4.031978   -5.452447   -2.761071
     73          1           0        1.327984   -1.300926    1.593060
     74          1           0        0.426140   -2.803165    1.302110
     75          1           0        0.452748   -2.036943    2.964718
     76          1           0       -1.145562    3.321860    1.156173
     77          1           0       -1.263313    5.229973    5.050928
     78          1           0       -2.304844    6.177895    4.001207
     79          1           0       -0.644215    6.596847    4.132470
     80         12           0        4.921567   -0.680995   -0.614721
     81          6           0        2.708796    1.750729   -1.652182
     82          6           0        7.353444    1.935806   -0.357383
     83          6           0        7.207308   -2.913732    0.051191
     84          6           0        2.574300   -3.146417   -1.228914
     85          7           0        5.029385    1.604148   -1.190025
     86          6           0        3.946391    2.343834   -1.359981
     87          6           0        4.247888    3.844306   -1.085616
     88          6           0        5.808180    3.836031   -1.247998
     89          6           0        6.147752    2.374499   -0.914485
     90          6           0        6.261602    4.239872   -2.695947
     91          6           0        3.761757    4.122282    0.354251
     92          6           0        3.811929    5.582345    0.824493
     93          1           0        4.543706    6.623586    0.001618
     94          7           0        6.934858   -0.597371   -0.103264
     95          6           0        7.732686    0.595472   -0.022412
     96          6           0        9.002842    0.187454    0.562120
     97          6           0        8.922562   -1.222358    0.787359
     98          6           0        7.656915   -1.666946    0.205543
     99          6           0       10.184499    1.165727    0.915461
    100          6           0        9.964530   -2.118829    1.534481
    101          8           0        9.793935   -3.307135    1.527515
    102          6           0       11.154604   -1.507807    2.200161
    103          7           0        4.864877   -2.759761   -0.503586
    104          6           0        5.955129   -3.499243   -0.199003
    105          6           0        5.701285   -5.004732   -0.266521
    106          6           0        4.180539   -5.058920   -0.541179
    107          6           0        3.841970   -3.531166   -0.778595
    108          6           0        6.547985   -5.790972   -1.333703
    109          6           0        3.322702   -5.801983    0.450956
    110          6           0        3.476675   -5.577382    1.974576
    111          7           0        3.029189   -0.781866   -1.308112
    112          6           0        2.179717   -1.833275   -1.502092
    113          6           0        0.894294   -1.279928   -1.872691
    114          6           0        1.001144    0.152374   -1.927632
    115          6           0        2.359671    0.385070   -1.578689
    116          6           0       -0.322062   -2.104847   -2.156630
    117          6           0        0.351747    1.382155   -2.235244
    118          8           0       -0.800994    1.660376   -2.631616
    119          6           0        1.583684    2.438659   -2.314083
    120          6           0        1.061656    3.756049   -1.738268
    121          8           0        0.551302    3.888554   -0.692206
    122          8           0        1.256152    4.730324   -2.675594
    123          6           0        1.182322    6.111687   -2.246153
    124          1           0        8.105156    2.727220   -0.345598
    125          1           0        7.942409   -3.704156    0.216558
    126          1           0        1.795174   -3.875401   -1.458040
    127          1           0        3.827325    4.496569   -1.850839
    128          1           0        6.145625    4.521570   -0.470277
    129          1           0        6.646665    5.258759   -2.682517
    130          1           0        5.397311    4.144815   -3.353545
    131          1           0        7.087276    3.638727   -3.076824
    132          1           0        4.431559    3.590146    1.029251
    133          1           0        2.796071    3.660303    0.557204
    134          1           0        3.983753    5.682054    1.896471
    135          1           0        2.766898    5.892535    0.836532
    136          1           0       11.138848    0.826632    0.511464
    137          1           0       10.179652    1.247242    2.002279
    138          1           0        9.941974    2.169576    0.564711
    139          1           0       11.353022   -2.222894    2.998833
    140          1           0       10.918130   -0.575251    2.711252
    141          1           0       11.988714   -1.130800    1.608423
    142          1           0        5.944647   -5.374292    0.729371
    143          1           0        3.939663   -5.470130   -1.521452
    144          1           0        5.890786   -6.577494   -1.703656
    145          1           0        7.359613   -6.196656   -0.729373
    146          1           0        6.970996   -5.103767   -2.066378
    147          1           0        3.749968   -6.799627    0.355435
    148          1           0        2.246480   -5.819119    0.275805
    149          1           0        3.777146   -6.422373    2.592681
    150          1           0        2.517834   -5.352478    2.441577
    151          1           0        4.215888   -4.795078    2.147426
    152          1           0       -1.090494   -1.395076   -2.461633
    153          1           0       -0.674761   -2.577348   -1.238888
    154          1           0       -0.169770   -2.941690   -2.837610
    155          1           0        1.848069    2.476984   -3.371042
    156          1           0        0.449980    6.339137   -3.020909
    157          1           0        2.146202    6.620942   -2.233937
    158          1           0        0.710329    6.257164   -1.274125
 ---------------------------------------------------------------------

 SCF Done:  E(RPBE1PBE) =  -4067.38897823     A.U. after   17 cycles

 Excitation energies and oscillator strengths:

 Excited State   1:      Singlet-A      1.4260 eV  869.46 nm  f=0.0185  <S**2>=0.000
     312 -> 313        0.70150
 This state for optimization and/or second-order correction.
 Total Energy, E(TD-HF/TD-DFT) =  -4067.33657407
 Copying the excited state density for this state as the 1-particle RhoCI density.

 Excited State   2:      Singlet-A      1.8017 eV  688.15 nm  f=0.7688  <S**2>=0.000
     311 -> 313        0.41214
     311 -> 314       -0.10829
     312 -> 314        0.54685

 Excited State   3:      Singlet-A      1.8712 eV  662.60 nm  f=0.0020  <S**2>=0.000
     309 -> 315       -0.12305
     311 -> 313        0.49868
     311 -> 314       -0.23256
     312 -> 314       -0.41608

 Excited State   4:      Singlet-A      1.9290 eV  642.74 nm  f=0.0847  <S**2>=0.000
     309 -> 315       -0.10026
     311 -> 313        0.23548
     311 -> 314        0.65655

 Excited State   5:      Singlet-A      2.0644 eV  600.59 nm  f=0.0028  <S**2>=0.000
     310 -> 313        0.69954

 The electronic state is 1-A.
 Alpha  occ. eigenvalues --  -46.91649 -46.90584 -19.25531 -19.24893 -19.21226
 Alpha  occ. eigenvalues --  -19.19489 -19.19434 -19.19335 -19.19006 -19.18939
 Alpha  occ. eigenvalues --  -14.41283 -14.41146 -14.40838 -14.40374 -14.39004
 Alpha  occ. eigenvalues --  -14.38978 -14.38245 -14.38149 -10.36498 -10.35774
 Alpha  occ. eigenvalues --  -10.32444 -10.32387 -10.32313 -10.31701 -10.29016
 Alpha  occ. eigenvalues --  -10.28491 -10.28403 -10.28372 -10.28348 -10.28244
 Alpha  occ. eigenvalues --  -10.28165 -10.28152 -10.27756 -10.27617 -10.27258
 Alpha  occ. eigenvalues --  -10.27227 -10.27014 -10.26982 -10.26705 -10.26699
 Alpha  occ. eigenvalues --  -10.26535 -10.26285 -10.26256 -10.26188 -10.25995
 Alpha  occ. eigenvalues --  -10.25956 -10.25773 -10.25684 -10.25552 -10.25529
 Alpha  occ. eigenvalues --  -10.25524 -10.25484 -10.25359 -10.25263 -10.25123
 Alpha  occ. eigenvalues --  -10.25114 -10.25099 -10.25077 -10.25013 -10.24900
 Alpha  occ. eigenvalues --  -10.24855 -10.24635 -10.24498 -10.24317 -10.24296
 Alpha  occ. eigenvalues --  -10.24263 -10.24218 -10.23967 -10.23859 -10.23733
 Alpha  occ. eigenvalues --  -10.23630 -10.23503 -10.23400 -10.23230 -10.23064
 Alpha  occ. eigenvalues --  -10.22940 -10.22939 -10.22871 -10.22850 -10.22790
 Alpha  occ. eigenvalues --  -10.22770 -10.22700 -10.22660 -10.22659 -10.22470
 Alpha  occ. eigenvalues --  -10.21707  -3.13866  -3.12858  -1.86706  -1.86257
 Alpha  occ. eigenvalues --   -1.86082  -1.85702  -1.85210  -1.85111  -1.12978
 Alpha  occ. eigenvalues --   -1.09074  -1.06827  -1.06311  -1.05230  -1.04430
 Alpha  occ. eigenvalues --   -1.02937  -1.01442  -0.99914  -0.98968  -0.98643
 Alpha  occ. eigenvalues --   -0.97706  -0.97586  -0.96884  -0.96816  -0.96083
 Alpha  occ. eigenvalues --   -0.87446  -0.85212  -0.83738  -0.83079  -0.82917
 Alpha  occ. eigenvalues --   -0.82620  -0.81909  -0.81659  -0.81630  -0.80815
 Alpha  occ. eigenvalues --   -0.80678  -0.80559  -0.80016  -0.79916  -0.78396
 Alpha  occ. eigenvalues --   -0.78053  -0.77755  -0.77285  -0.76738  -0.76028
 Alpha  occ. eigenvalues --   -0.75919  -0.75876  -0.75517  -0.74636  -0.74602
 Alpha  occ. eigenvalues --   -0.74035  -0.72318  -0.71957  -0.71734  -0.71110
 Alpha  occ. eigenvalues --   -0.70966  -0.70303  -0.70291  -0.69906  -0.69378
 Alpha  occ. eigenvalues --   -0.68566  -0.67082  -0.66486  -0.66001  -0.65266
 Alpha  occ. eigenvalues --   -0.64706  -0.63309  -0.63177  -0.62402  -0.62240
 Alpha  occ. eigenvalues --   -0.61254  -0.60693  -0.60355  -0.59646  -0.59448
 Alpha  occ. eigenvalues --   -0.59244  -0.58955  -0.58594  -0.58472  -0.58116
 Alpha  occ. eigenvalues --   -0.58050  -0.57179  -0.55685  -0.55087  -0.54267
 Alpha  occ. eigenvalues --   -0.54152  -0.53676  -0.53495  -0.53260  -0.52828
 Alpha  occ. eigenvalues --   -0.52713  -0.52583  -0.52114  -0.51657  -0.51015
 Alpha  occ. eigenvalues --   -0.50751  -0.50709  -0.50257  -0.49994  -0.49864
 Alpha  occ. eigenvalues --   -0.49436  -0.49266  -0.49080  -0.48802  -0.48478
 Alpha  occ. eigenvalues --   -0.48018  -0.47925  -0.47702  -0.47618  -0.47184
 Alpha  occ. eigenvalues --   -0.46997  -0.46920  -0.46844  -0.46616  -0.46451
 Alpha  occ. eigenvalues --   -0.46388  -0.46014  -0.45781  -0.45646  -0.45416
 Alpha  occ. eigenvalues --   -0.45362  -0.44957  -0.44859  -0.44785  -0.44610
 Alpha  occ. eigenvalues --   -0.44400  -0.44240  -0.44200  -0.44109  -0.44013
 Alpha  occ. eigenvalues --   -0.43963  -0.43828  -0.43548  -0.43484  -0.43389
 Alpha  occ. eigenvalues --   -0.43274  -0.42996  -0.42763  -0.42679  -0.42614
 Alpha  occ. eigenvalues --   -0.42481  -0.42284  -0.42133  -0.41727  -0.41507
 Alpha  occ. eigenvalues --   -0.41467  -0.41198  -0.41113  -0.40832  -0.40689
 Alpha  occ. eigenvalues --   -0.40680  -0.40534  -0.40312  -0.40212  -0.40103
 Alpha  occ. eigenvalues --   -0.40056  -0.39849  -0.39630  -0.39570  -0.39490
 Alpha  occ. eigenvalues --   -0.39063  -0.38886  -0.38802  -0.38631  -0.38598
 Alpha  occ. eigenvalues --   -0.38199  -0.38172  -0.38140  -0.37896  -0.37868
 Alpha  occ. eigenvalues --   -0.37779  -0.37589  -0.37508  -0.37391  -0.37300
 Alpha  occ. eigenvalues --   -0.37125  -0.37067  -0.36901  -0.36827  -0.36766
 Alpha  occ. eigenvalues --   -0.36560  -0.36237  -0.36062  -0.35901  -0.35857
 Alpha  occ. eigenvalues --   -0.35699  -0.35633  -0.35439  -0.35028  -0.34898
 Alpha  occ. eigenvalues --   -0.34509  -0.34403  -0.34181  -0.33574  -0.33376
 Alpha  occ. eigenvalues --   -0.32772  -0.32706  -0.32554  -0.32433  -0.32224
 Alpha  occ. eigenvalues --   -0.31966  -0.31609  -0.31205  -0.30902  -0.30893
 Alpha  occ. eigenvalues --   -0.30756  -0.30552  -0.30137  -0.29208  -0.28957
 Alpha  occ. eigenvalues --   -0.28815  -0.28454  -0.27628  -0.26986  -0.26147
 Alpha  occ. eigenvalues --   -0.26044  -0.25731  -0.25688  -0.25386  -0.25197
 Alpha  occ. eigenvalues --   -0.24989  -0.24976  -0.24322  -0.20798  -0.20148
 Alpha  occ. eigenvalues --   -0.18735  -0.17749
 Alpha virt. eigenvalues --   -0.11011  -0.10224  -0.05370  -0.04269  -0.04050
 Alpha virt. eigenvalues --   -0.03155  -0.01863  -0.01186   0.00347   0.00642
 Alpha virt. eigenvalues --    0.00844   0.01067   0.01586   0.01793   0.02129

 Mulliken charges:
               1
     1  Mg  12.001478
     2  C    6.003068
     3  C    6.002630
     4  C    5.997153
     5  C    5.996890
     6  N    7.001685
     7  C    5.997696
     8  C    6.000725
     9  C    5.999174
    10  C    6.002125
    11  C    5.999153
    12  C    6.000747
    13  C    5.999316
    14  H    1.000366
    15  N    6.999546
    16  C    6.002331
    17  C    6.003150
    18  C    6.000357
    19  C    6.004952
    20  C    5.999713
    21  C    6.001623
    22  O    8.002626
    23  C    5.998729
    24  N    6.997527
    25  C    6.005140
    26  C    5.999035
    27  C    5.999745
    28  C    6.003069
    29  C    5.999889
    30  C    6.000115
    31  C    5.999574
    32  N    6.999239
    33  C    6.000812
    34  C    5.995324
    35  C    5.999940
    36  C    5.998922
    37  C    6.000968
    38  C    5.999678
    39  O    7.999039
    40  C    5.999587
    41  C    5.999738
    42  O    7.999071
    43  O    8.000329
    44  C    6.000135
    45  H    1.002312
    46  H    1.001128
    47  H    1.000481
    48  H    1.000659
    49  H    1.001129
    50  H    1.001726
    51  H    1.001561
    52  H    0.999392
    53  H    0.999665
    54  H    1.000498
    55  H    1.001116
    56  H    0.999896
    57  H    1.002147
    58  H    1.002017
    59  H    1.001890
    60  H    1.000744
    61  H    1.001851
    62  H    1.001402
    63  H    1.000748
    64  H    1.001446
    65  H    1.001705
    66  H    1.000636
    67  H    1.000239
    68  H    1.000131
    69  H    1.001412
    70  H    1.001790
    71  H    0.998602
    72  H    1.000259
    73  H    0.998985
    74  H    0.998348
    75  H    0.997474
    76  H    1.000523
    77  H    1.000120
    78  H    0.999388
    79  H    1.000252
    80  Mg  11.999317
    81  C    5.998382
    82  C    5.999039
    83  C    6.000669
    84  C    5.999278
    85  N    6.998691
    86  C    6.001170
    87  C    5.999649
    88  C    6.000512
    89  C    5.999194
    90  C    6.000276
    91  C    6.000052
    92  C    6.000516
    93  H    0.999476
    94  N    7.000597
    95  C    5.998055
    96  C    5.998868
    97  C    5.999099
    98  C    5.998320
    99  C    5.999974
   100  C    5.998922
   101  O    7.998314
   102  C    6.000393
   103  N    7.000485
   104  C    5.997754
   105  C    6.000638
   106  C    5.999782
   107  C    6.001282
   108  C    6.000075
   109  C    6.000119
   110  C    6.000104
   111  N    6.999908
   112  C    6.001720
   113  C    5.998524
   114  C    6.001118
   115  C    6.001015
   116  C    6.000999
   117  C    5.997939
   118  O    7.996334
   119  C    6.000362
   120  C    5.999886
   121  O    7.999436
   122  O    7.999949
   123  C    6.000299
   124  H    0.998510
   125  H    0.999169
   126  H    0.999750
   127  H    0.999285
   128  H    0.999250
   129  H    0.999034
   130  H    0.999172
   131  H    0.999788
   132  H    1.000366
   133  H    0.999511
   134  H    0.999576
   135  H    0.999260
   136  H    0.998755
   137  H    0.998828
   138  H    0.999091
   139  H    0.998823
   140  H    0.999564
   141  H    0.999157
   142  H    0.999563
   143  H    0.999346
   144  H    0.998963
   145  H    0.999726
   146  H    0.999872
   147  H    0.999745
   148  H    0.999333
   149  H    0.999525
   150  H    0.999716
   151  H    1.000751
   152  H    0.999241
   153  H    1.000932
   154  H    0.998194
   155  H    0.999158
   156  H    0.999291
   157  H    1.000054
   158  H    0.999432
 Sum of Mulliken charges = 624.00000

 Dipole moment (field-independent basis, Debye):
    X=             -2.6115    Y=             -0.1400    Z=             -0.1123  Tot=              2.6177
 Quadrupole moment (field-independent basis, Debye-Ang):
   XX=              5.4220   YY=              0.2806   ZZ=             -0.4554
   XY=              1.1972   XZ=              0.4970   YZ=              0.2992

 Normal termination of Gaussian 16 at Thu Oct 14 03:00:12 2021.
