 Gaussian 16, Revision A.03,
 Gaussian 16:  ES64L-G16RevA.03 25-Dec-2016

 --------------------------------------------------------
 #p PBE1PBE/Def2SVP td=(nstates=5) density=(transition=1)
 --------------------------------------------------------

 --------------------------------
 TDDFT excited states in gaussian
 --------------------------------
 Symbolic Z-matrix:
 Charge =  0 Multiplicity = 1

                         Standard orientation:
 ---------------------------------------------------------------------
 Center     Atomic      Atomic             Coordinates (Angstroms)
 Number     Number       Type             X           Y           Z
 ---------------------------------------------------------------------
      1         12           0      -26.911413    0.591355   -0.064645
      2          6           0      -25.440897   -2.053190    1.634866
      3          6           0      -27.909650   -1.511419   -2.505134
      4          6           0      -28.134187    3.247021   -1.694720
      5          6           0      -25.693026    2.717162    2.437046
      6          7           0      -26.683517   -1.569691   -0.316488
      7          6           0      -26.156238   -2.450201    0.500170
      8          6           0      -26.361774   -3.894607   -0.151685
      9          6           0      -26.386522   -3.470776   -1.605030
     10          6           0      -27.087735   -2.078939   -1.502973
     11          6           0      -24.956901   -3.473474   -2.188030
     12          6           0      -27.593530   -4.642143    0.518558
     13          6           0      -27.595630   -6.162418    0.331128
     14          1           0      -26.605767   -6.781566   -0.640476
     15          7           0      -28.026719    0.810683   -1.738425
     16          6           0      -28.406472   -0.225398   -2.588401
     17          6           0      -29.393877    0.330707   -3.561508
     18          6           0      -29.425199    1.778076   -3.375321
     19          6           0      -28.435584    1.961788   -2.280633
     20          6           0      -30.123125   -0.527460   -4.567975
     21          6           0      -30.299884    2.914977   -4.080055
     22          8           0      -30.265394    4.106752   -3.755451
     23          6           0      -31.224399    2.463015   -5.191185
     24          7           0      -26.820935    2.635562    0.243391
     25          6           0      -27.380973    3.533650   -0.562548
     26          6           0      -27.074806    5.002682   -0.136501
     27          6           0      -26.526702    4.762707    1.277547
     28          6           0      -26.377298    3.277354    1.380944
     29          6           0      -26.105192    5.764525   -1.082617
     30          6           0      -27.244954    5.485791    2.502330
     31          6           0      -28.138859    4.655669    3.363765
     32          7           0      -25.624647    0.457798    1.577153
     33          6           0      -25.276426    1.362410    2.522845
     34          6           0      -24.438569    0.821163    3.532788
     35          6           0      -24.469369   -0.576287    3.229000
     36          6           0      -25.197751   -0.681627    2.066121
     37          6           0      -23.665562    1.412828    4.682835
     38          6           0      -24.059512   -1.895549    3.608431
     39          8           0      -23.390276   -2.302365    4.533585
     40          6           0      -24.784246   -2.940634    2.701555
     41          6           0      -23.804025   -3.891079    2.167756
     42          8           0      -22.879306   -3.543942    1.448889
     43          8           0      -23.921085   -5.198542    2.704988
     44          6           0      -22.888008   -6.161211    2.291666
     45          1           0      -28.156322   -2.211754   -3.304452
     46          1           0      -28.507235    4.094559   -2.272163
     47          1           0      -25.288284    3.416762    3.170877
     48          1           0      -25.512833   -4.532160    0.091444
     49          1           0      -27.044802   -4.067230   -2.236207
     50          1           0      -25.007383   -4.288379   -2.910954
     51          1           0      -24.191127   -3.674797   -1.437768
     52          1           0      -24.861264   -2.542181   -2.745847
     53          1           0      -28.529650   -4.267955    0.103152
     54          1           0      -27.477842   -4.465862    1.588225
     55          1           0      -28.607005   -6.436034    0.032115
     56          1           0      -27.439701   -6.599736    1.316998
     57          1           0      -30.326840   -1.522272   -4.170162
     58          1           0      -29.655817   -0.654653   -5.543933
     59          1           0      -31.108049   -0.092955   -4.738291
     60          1           0      -30.568035    1.895117   -5.850138
     61          1           0      -31.641592    3.270725   -5.791865
     62          1           0      -32.057866    1.899319   -4.771721
     63          1           0      -27.983403    5.603568   -0.101115
     64          1           0      -25.478961    5.057676    1.232853
     65          1           0      -25.426379    6.299938   -0.418359
     66          1           0      -26.552436    6.449557   -1.801230
     67          1           0      -25.601576    5.025500   -1.705823
     68          1           0      -27.743227    6.380152    2.128063
     69          1           0      -26.485889    5.806121    3.215626
     70          1           0      -27.659420    4.567658    4.338984
     71          1           0      -28.210907    3.598536    3.105116
     72          1           0      -29.123978    5.086755    3.542446
     73          1           0      -23.706615    2.502561    4.694705
     74          1           0      -22.656883    0.998695    4.680842
     75          1           0      -24.059267    1.224132    5.681812
     76          1           0      -25.540469   -3.499268    3.252422
     77          1           0      -23.085421   -7.196544    2.568448
     78          1           0      -21.994557   -5.793256    2.796834
     79          1           0      -22.762094   -6.005075    1.220926
     80         12           0       27.017048    0.472896   -0.040759
     81          6           0       25.020551   -1.834788   -1.543987
     82          6           0       28.634955   -1.989510    1.735705
     83          6           0       28.805364    2.894762    1.507549
     84          6           0       25.021706    2.991618   -1.512630
     85          7           0       26.688467   -1.664020    0.241741
     86          6           0       26.050103   -2.390754   -0.713977
     87          6           0       26.379375   -3.844516   -0.673088
     88          6           0       27.375186   -3.857177    0.599400
     89          6           0       27.599373   -2.411550    0.900137
     90          6           0       26.765010   -4.634466    1.852212
     91          6           0       27.128858   -4.242429   -2.029105
     92          6           0       27.091365   -5.714460   -2.445436
     93          1           0       26.661315   -6.875994   -1.515170
     94          7           0       28.583781    0.502408    1.344475
     95          6           0       29.092136   -0.642678    1.979174
     96          6           0       30.119522   -0.198051    2.892128
     97          6           0       30.200022    1.207213    2.813934
     98          6           0       29.198366    1.564022    1.818650
     99          6           0       30.958468   -1.210555    3.706265
    100          6           0       31.120800    2.194729    3.704777
    101          8           0       31.227234    3.404494    3.466856
    102          6           0       31.966814    1.742821    4.883663
    103          7           0       26.943931    2.684905   -0.081442
    104          6           0       27.785049    3.410239    0.693798
    105          6           0       27.374925    4.881295    0.737662
    106          6           0       26.335196    4.968618   -0.522426
    107          6           0       26.126858    3.478677   -0.835932
    108          6           0       26.862842    5.427448    2.148372
    109          6           0       26.906158    5.622778   -1.880971
    110          6           0       26.109556    6.701036   -2.592262
    111          7           0       25.379260    0.642821   -1.325912
    112          6           0       24.679003    1.678477   -1.820757
    113          6           0       23.640547    1.178129   -2.775155
    114          6           0       23.815941   -0.224360   -2.706384
    115          6           0       24.798818   -0.464543   -1.715315
    116          6           0       22.677236    1.908824   -3.642144
    117          6           0       23.283467   -1.412654   -3.259806
    118          8           0       22.376763   -1.574841   -4.102158
    119          6           0       24.037658   -2.519870   -2.527834
    120          6           0       23.086124   -3.334491   -1.807309
    121          8           0       22.262280   -3.038869   -0.999219
    122          8           0       23.371835   -4.653801   -2.145892
    123          6           0       22.624420   -5.822399   -1.541636
    124          1           0       29.334388   -2.714925    2.155508
    125          1           0       29.319655    3.668509    2.081975
    126          1           0       24.252809    3.692665   -1.842145
    127          1           0       25.607231   -4.601727   -0.538421
    128          1           0       28.326552   -4.328768    0.353295
    129          1           0       27.476520   -5.198604    2.454763
    130          1           0       25.910402   -5.225234    1.522812
    131          1           0       26.364782   -3.870033    2.519012
    132          1           0       28.178519   -3.948856   -2.006588
    133          1           0       26.645085   -3.647091   -2.803884
    134          1           0       28.091040   -5.935817   -2.821411
    135          1           0       26.462362   -5.806979   -3.329997
    136          1           0       30.739308   -2.255114    3.485376
    137          1           0       30.782200   -0.984378    4.757349
    138          1           0       32.006887   -0.991426    3.502713
    139          1           0       32.760481    1.146990    4.434429
    140          1           0       31.479202    0.967787    5.475320
    141          1           0       32.181460    2.583544    5.543054
    142          1           0       28.248556    5.474565    0.465035
    143          1           0       25.431255    5.511275   -0.245119
    144          1           0       25.850574    5.825716    2.075197
    145          1           0       27.544154    6.190115    2.523812
    146          1           0       26.787580    4.614205    2.870619
    147          1           0       27.179379    4.862924   -2.612995
    148          1           0       27.873919    6.051523   -1.622500
    149          1           0       25.943972    6.342125   -3.607473
    150          1           0       26.603710    7.672143   -2.582637
    151          1           0       25.118134    6.780054   -2.144042
    152          1           0       22.780328    2.993748   -3.630222
    153          1           0       21.649627    1.699417   -3.343912
    154          1           0       22.813909    1.567447   -4.668050
    155          1           0       24.599809   -3.156950   -3.211256
    156          1           0       21.908305   -5.471420   -0.798291
    157          1           0       23.324746   -6.468630   -1.010770
    158          1           0       22.130041   -6.313108   -2.379982
 ---------------------------------------------------------------------

 SCF Done:  E(RPBE1PBE) =  -4067.38541978     A.U. after   16 cycles

 Excitation energies and oscillator strengths:

 Excited State   1:      Singlet-A      1.8722 eV  662.22 nm  f=0.3809  <S**2>=0.000
     309 -> 316        0.17565
     311 -> 313        0.69313
     311 <- 313       -0.10657
 This state for optimization and/or second-order correction.
 Total Energy, E(TD-HF/TD-DFT) =  -4067.31661590
 Copying the excited state density for this state as the 1-particle RhoCI density.

 Excited State   2:      Singlet-A      1.8923 eV  655.19 nm  f=0.3830  <S**2>=0.000
     310 -> 315       -0.18631
     312 -> 314        0.68965
     312 <- 314       -0.10199

 Excited State   3:      Singlet-A      1.9685 eV  629.85 nm  f=0.0000  <S**2>=0.000
     312 -> 313        0.70711

 Excited State   4:      Singlet-A      2.1028 eV  589.62 nm  f=0.0000  <S**2>=0.000
     311 -> 314        0.70711

 Excited State   5:      Singlet-A      2.2174 eV  559.13 nm  f=0.1396  <S**2>=0.000
     309 -> 313        0.66471
     311 -> 316       -0.23655

 The electronic state is 1-A.
 Alpha  occ. eigenvalues --  -46.92761 -46.91169 -19.24614 -19.24310 -19.20479
 Alpha  occ. eigenvalues --  -19.19716 -19.19705 -19.19483 -19.18929 -19.18331
 Alpha  occ. eigenvalues --  -14.41987 -14.41375 -14.41129 -14.41088 -14.39629
 Alpha  occ. eigenvalues --  -14.39215 -14.38939 -14.38420 -10.35910 -10.35562
 Alpha  occ. eigenvalues --  -10.34184 -10.33483 -10.31503 -10.31421 -10.29385
 Alpha  occ. eigenvalues --  -10.29080 -10.28870 -10.28528 -10.28431 -10.28391
 Alpha  occ. eigenvalues --  -10.28326 -10.28322 -10.28307 -10.28145 -10.27981
 Alpha  occ. eigenvalues --  -10.27805 -10.27705 -10.27644 -10.27592 -10.27480
 Alpha  occ. eigenvalues --  -10.26841 -10.26497 -10.26470 -10.26371 -10.26310
 Alpha  occ. eigenvalues --  -10.26139 -10.26119 -10.26108 -10.26033 -10.26028
 Alpha  occ. eigenvalues --  -10.25985 -10.25909 -10.25818 -10.25749 -10.25662
 Alpha  occ. eigenvalues --  -10.25525 -10.25372 -10.25362 -10.25331 -10.25313
 Alpha  occ. eigenvalues --  -10.25241 -10.25069 -10.25062 -10.25034 -10.24888
 Alpha  occ. eigenvalues --  -10.24769 -10.24688 -10.24625 -10.24269 -10.24022
 Alpha  occ. eigenvalues --  -10.23997 -10.23958 -10.23748 -10.23746 -10.23683
 Alpha  occ. eigenvalues --  -10.23572 -10.23548 -10.23522 -10.23421 -10.23270
 Alpha  occ. eigenvalues --  -10.23213 -10.23070 -10.22764 -10.22358 -10.22181
 Alpha  occ. eigenvalues --  -10.22003  -3.14753  -3.13508  -1.87615  -1.87110
 Alpha  occ. eigenvalues --   -1.86987  -1.86362  -1.85847  -1.85780  -1.10299
 Alpha  occ. eigenvalues --   -1.09253  -1.05005  -1.04512  -1.04308  -1.02948
 Alpha  occ. eigenvalues --   -1.01971  -1.01599  -1.00366  -1.00182  -0.99427
 Alpha  occ. eigenvalues --   -0.99087  -0.98782  -0.98281  -0.97705  -0.97266
 Alpha  occ. eigenvalues --   -0.87797  -0.86593  -0.83540  -0.82934  -0.82800
 Alpha  occ. eigenvalues --   -0.82508  -0.82492  -0.81825  -0.81571  -0.81321
 Alpha  occ. eigenvalues --   -0.81271  -0.81174  -0.80741  -0.80511  -0.78633
 Alpha  occ. eigenvalues --   -0.78512  -0.78013  -0.77724  -0.77006  -0.76609
 Alpha  occ. eigenvalues --   -0.76578  -0.75804  -0.75435  -0.75327  -0.74653
 Alpha  occ. eigenvalues --   -0.74439  -0.72739  -0.72737  -0.71789  -0.71598
 Alpha  occ. eigenvalues --   -0.71366  -0.71010  -0.70461  -0.70128  -0.69538
 Alpha  occ. eigenvalues --   -0.69420  -0.67332  -0.67012  -0.66431  -0.65615
 Alpha  occ. eigenvalues --   -0.63704  -0.63685  -0.63140  -0.62990  -0.62603
 Alpha  occ. eigenvalues --   -0.62355  -0.60876  -0.60422  -0.59699  -0.59649
 Alpha  occ. eigenvalues --   -0.59578  -0.59159  -0.59055  -0.58790  -0.58765
 Alpha  occ. eigenvalues --   -0.58405  -0.56307  -0.55886  -0.55056  -0.55049
 Alpha  occ. eigenvalues --   -0.54440  -0.54203  -0.53779  -0.53735  -0.53364
 Alpha  occ. eigenvalues --   -0.52872  -0.52688  -0.52540  -0.52297  -0.52092
 Alpha  occ. eigenvalues --   -0.50646  -0.50388  -0.50227  -0.50135  -0.50001
 Alpha  occ. eigenvalues --   -0.49784  -0.49317  -0.48638  -0.48417  -0.48317
 Alpha  occ. eigenvalues --   -0.48204  -0.47719  -0.47676  -0.47482  -0.47450
 Alpha  occ. eigenvalues --   -0.47327  -0.47126  -0.46915  -0.46703  -0.46627
 Alpha  occ. eigenvalues --   -0.46616  -0.46433  -0.46221  -0.46135  -0.45968
 Alpha  occ. eigenvalues --   -0.45834  -0.45361  -0.45186  -0.45105  -0.45083
 Alpha  occ. eigenvalues --   -0.45032  -0.44444  -0.44380  -0.44180  -0.44084
 Alpha  occ. eigenvalues --   -0.44035  -0.43865  -0.43701  -0.43591  -0.43526
 Alpha  occ. eigenvalues --   -0.43471  -0.43217  -0.43089  -0.42924  -0.42773
 Alpha  occ. eigenvalues --   -0.42586  -0.42328  -0.42290  -0.41994  -0.41934
 Alpha  occ. eigenvalues --   -0.41658  -0.41600  -0.41273  -0.41248  -0.41150
 Alpha  occ. eigenvalues --   -0.41125  -0.40934  -0.40851  -0.40743  -0.40505
 Alpha  occ. eigenvalues --   -0.40469  -0.40340  -0.39874  -0.39663  -0.39427
 Alpha  occ. eigenvalues --   -0.39418  -0.39135  -0.39126  -0.39011  -0.38819
 Alpha  occ. eigenvalues --   -0.38762  -0.38733  -0.38533  -0.38519  -0.38331
 Alpha  occ. eigenvalues --   -0.38063  -0.38057  -0.37925  -0.37769  -0.37498
 Alpha  occ. eigenvalues --   -0.37396  -0.37122  -0.36967  -0.36658  -0.36633
 Alpha  occ. eigenvalues --   -0.36456  -0.36254  -0.36143  -0.35966  -0.35902
 Alpha  occ. eigenvalues --   -0.35886  -0.35805  -0.35653  -0.35495  -0.35071
 Alpha  occ. eigenvalues --   -0.34972  -0.34864  -0.34669  -0.34324  -0.34101
 Alpha  occ. eigenvalues --   -0.33389  -0.33161  -0.33038  -0.32784  -0.32546
 Alpha  occ. eigenvalues --   -0.32543  -0.31818  -0.31690  -0.31575  -0.31212
 Alpha  occ. eigenvalues --   -0.31016  -0.30554  -0.29683  -0.29406  -0.29322
 Alpha  occ. eigenvalues --   -0.29018  -0.28657  -0.28563  -0.26838  -0.26793
 Alpha  occ. eigenvalues --   -0.26611  -0.26092  -0.25987  -0.25982  -0.25665
 Alpha  occ. eigenvalues --   -0.25462  -0.25457  -0.25239  -0.20825  -0.20776
 Alpha  occ. eigenvalues --   -0.18960  -0.18760
 Alpha virt. eigenvalues --   -0.11281  -0.10984  -0.05173  -0.04790  -0.04185
 Alpha virt. eigenvalues --   -0.04184  -0.02109  -0.02016  -0.00079   0.00140
 Alpha virt. eigenvalues --    0.00790   0.00886   0.01366   0.01419   0.01624

 Mulliken charges:
               1
     1  Mg  11.997744
     2  C    6.021205
     3  C    5.992350
     4  C    5.978837
     5  C    6.002741
     6  N    7.013498
     7  C    5.967513
     8  C    6.001459
     9  C    5.996915
    10  C    6.025578
    11  C    6.003360
    12  C    6.002545
    13  C    6.000011
    14  H    0.996853
    15  N    6.995343
    16  C    6.040022
    17  C    6.018996
    18  C    6.020994
    19  C    6.025966
    20  C    5.995847
    21  C    6.014538
    22  O    8.029614
    23  C    5.995277
    24  N    6.993463
    25  C    6.032436
    26  C    5.991192
    27  C    6.008355
    28  C    5.972906
    29  C    5.999570
    30  C    6.000818
    31  C    6.002357
    32  N    6.995801
    33  C    5.970782
    34  C    5.968324
    35  C    5.997293
    36  C    5.976482
    37  C    6.003438
    38  C    5.985591
    39  O    7.971045
    40  C    5.998501
    41  C    5.993778
    42  O    7.995638
    43  O    7.998335
    44  C    6.001103
    45  H    1.011176
    46  H    1.003547
    47  H    0.988108
    48  H    1.003052
    49  H    0.998464
    50  H    1.002624
    51  H    1.013774
    52  H    0.997027
    53  H    0.988639
    54  H    1.007534
    55  H    0.996326
    56  H    1.003381
    57  H    1.015859
    58  H    1.020624
    59  H    1.014429
    60  H    1.004171
    61  H    1.014182
    62  H    1.008332
    63  H    0.998183
    64  H    0.998261
    65  H    1.010165
    66  H    0.996574
    67  H    0.998149
    68  H    0.989648
    69  H    1.000523
    70  H    1.001987
    71  H    1.001625
    72  H    0.990554
    73  H    0.982964
    74  H    0.983449
    75  H    0.978749
    76  H    0.993206
    77  H    0.995452
    78  H    1.000508
    79  H    0.994339
    80  Mg  12.000024
    81  C    5.999959
    82  C    5.999983
    83  C    6.000108
    84  C    6.000029
    85  N    6.999962
    86  C    6.000089
    87  C    5.999966
    88  C    6.000028
    89  C    5.999937
    90  C    6.000010
    91  C    6.000016
    92  C    6.000010
    93  H    1.000019
    94  N    7.000049
    95  C    5.999957
    96  C    5.999883
    97  C    6.000023
    98  C    5.999920
    99  C    6.000008
   100  C    5.999987
   101  O    7.999934
   102  C    6.000002
   103  N    6.999907
   104  C    5.999916
   105  C    6.000040
   106  C    5.999981
   107  C    6.000029
   108  C    6.000009
   109  C    5.999981
   110  C    6.000017
   111  N    6.999983
   112  C    6.000099
   113  C    6.000058
   114  C    6.000042
   115  C    6.000044
   116  C    5.999953
   117  C    6.000035
   118  O    8.000052
   119  C    6.000014
   120  C    6.000020
   121  O    8.000018
   122  O    7.999985
   123  C    5.999994
   124  H    0.999978
   125  H    0.999966
   126  H    1.000025
   127  H    1.000016
   128  H    0.999972
   129  H    0.999994
   130  H    0.999977
   131  H    1.000020
   132  H    1.000010
   133  H    0.999965
   134  H    0.999985
   135  H    0.999987
   136  H    0.999953
   137  H    0.999971
   138  H    0.999951
   139  H    0.999963
   140  H    0.999994
   141  H    0.999970
   142  H    0.999988
   143  H    1.000033
   144  H    0.999992
   145  H    0.999990
   146  H    1.000023
   147  H    0.999983
   148  H    1.000017
   149  H    0.999978
   150  H    1.000000
   151  H    1.000013
   152  H    1.000051
   153  H    1.000074
   154  H    1.000023
   155  H    1.000009
   156  H    1.000034
   157  H    1.000009
   158  H    1.000001
 Sum of Mulliken charges = 624.00000

 Dipole moment (field-independent basis, Debye):
    X=             -5.6531    Y=              0.5302    Z=             -8.6642  Tot=             10.3589
 Quadrupole moment (field-independent basis, Debye-Ang):
   XX=            302.6824   YY=             -2.1283   ZZ=              0.9742
   XY=            -17.3413   XZ=            233.3646   YZ=             -5.9512

 Normal termination of Gaussian 16 at Fri Oct 15 18:50:41 2021.
