 Gaussian 16, Revision A.03,
 Gaussian 16:  ES64L-G16RevA.03 25-Dec-2016

 --------------------------------------------------------
 #p PBE1PBE/Def2SVP td=(nstates=5) density=(transition=1)
 --------------------------------------------------------

 --------------------------------
 TDDFT excited states in gaussian
 --------------------------------
 Symbolic Z-matrix:
 Charge =  0 Multiplicity = 1

                         Standard orientation:
 ---------------------------------------------------------------------
 Center     Atomic      Atomic             Coordinates (Angstroms)
 Number     Number       Type             X           Y           Z
 ---------------------------------------------------------------------
      1         12           0       25.805050    0.825984    0.279786
      2          6           0       26.777663   -2.355603   -0.503450
      3          6           0       23.553072    0.827726   -2.176003
      4          6           0       25.182619    3.934009    1.038271
      5          6           0       28.629023    0.917880    2.452179
      6          7           0       25.331148   -0.563330   -1.318743
      7          6           0       25.672117   -1.874535   -1.251674
      8          6           0       24.769574   -2.732793   -2.095169
      9          6           0       23.922529   -1.626650   -2.843336
     10          6           0       24.335603   -0.350441   -2.142737
     11          6           0       24.096817   -1.609454   -4.380960
     12          6           0       23.930575   -3.872665   -1.250088
     13          6           0       23.899207   -5.310948   -1.789165
     14          1           0       24.138349   -5.496888   -3.320549
     15          7           0       24.480019    2.080703   -0.321139
     16          6           0       23.606602    1.961853   -1.354926
     17          6           0       22.865755    3.171841   -1.616279
     18          6           0       23.174819    3.998622   -0.578756
     19          6           0       24.402889    3.390289    0.020922
     20          6           0       22.031099    3.213966   -2.883223
     21          6           0       22.573005    5.373384   -0.225954
     22          8           0       22.956924    6.067004    0.686854
     23          6           0       21.472527    5.809286   -1.147646
     24          7           0       26.909290    2.260196    1.454162
     25          6           0       26.314138    3.445657    1.677855
     26          6           0       27.085606    4.256110    2.724159
     27          6           0       27.993122    3.175044    3.403482
     28          6           0       27.871754    2.038884    2.367306
     29          6           0       27.892426    5.536672    2.243603
     30          6           0       27.522871    2.651799    4.812810
     31          6           0       26.182626    2.002201    5.036438
     32          7           0       27.375932   -0.426842    0.982669
     33          6           0       28.506807   -0.253780    1.787229
     34          6           0       29.308968   -1.481381    1.864106
     35          6           0       28.654845   -2.349125    0.976762
     36          6           0       27.508927   -1.638610    0.499015
     37          6           0       30.507078   -1.763183    2.733960
     38          6           0       28.670689   -3.611031    0.391463
     39          8           0       29.447672   -4.550913    0.454840
     40          6           0       27.346440   -3.763819   -0.400736
     41          6           0       27.808649   -4.328970   -1.689170
     42          8           0       28.312501   -3.685476   -2.612898
     43          8           0       27.714165   -5.690501   -1.692539
     44          6           0       28.390535   -6.457706   -2.743267
     45          1           0       22.702256    0.724203   -2.852980
     46          1           0       24.999011    4.953010    1.383093
     47          1           0       29.427869    1.073612    3.181255
     48          1           0       25.336744   -3.227330   -2.883819
     49          1           0       22.870100   -1.763260   -2.595629
     50          1           0       24.745405   -0.776670   -4.652541
     51          1           0       23.120590   -1.444187   -4.836802
     52          1           0       24.548425   -2.563987   -4.651444
     53          1           0       22.912583   -3.485613   -1.203919
     54          1           0       24.339807   -3.980777   -0.246124
     55          1           0       22.905031   -5.738560   -1.662064
     56          1           0       24.559506   -5.941947   -1.194352
     57          1           0       22.591711    3.103796   -3.811621
     58          1           0       21.546507    4.138887   -3.195368
     59          1           0       21.295399    2.438822   -2.668660
     60          1           0       20.678954    5.063112   -1.179369
     61          1           0       22.019833    6.001051   -2.070335
     62          1           0       20.895370    6.697736   -0.893930
     63          1           0       26.275582    4.624636    3.354571
     64          1           0       29.025706    3.524253    3.383033
     65          1           0       27.760625    5.665860    1.169610
     66          1           0       28.965403    5.375614    2.340936
     67          1           0       27.673913    6.472080    2.760991
     68          1           0       27.617494    3.574774    5.385450
     69          1           0       28.210053    1.915585    5.228567
     70          1           0       25.571627    2.109510    4.139235
     71          1           0       25.644724    2.503444    5.840979
     72          1           0       26.187437    0.927202    5.215480
     73          1           0       31.435236   -1.795812    2.165106
     74          1           0       30.364873   -2.706113    3.262212
     75          1           0       30.562349   -0.876519    3.366021
     76          1           0       26.618825   -4.372409    0.136509
     77          1           0       28.631554   -7.471829   -2.422392
     78          1           0       29.210425   -5.899416   -3.192551
     79          1           0       27.773909   -6.581063   -3.633392
     80         12           0      -26.836309   -0.074311   -0.194570
     81          6           0      -23.396211   -0.785607   -0.425284
     82          6           0      -26.881614   -2.136956    2.604939
     83          6           0      -29.977530    0.860301    0.397710
     84          6           0      -26.321378    2.575149   -2.375992
     85          7           0      -25.214888   -1.177604    1.019139
     86          6           0      -23.900410   -1.454125    0.697308
     87          6           0      -23.275814   -2.608469    1.452558
     88          6           0      -24.405288   -3.057540    2.410084
     89          6           0      -25.574587   -2.088905    2.035630
     90          6           0      -24.806247   -4.582659    2.276665
     91          6           0      -21.938891   -2.290511    2.259826
     92          6           0      -21.767218   -0.878203    2.842510
     93          1           0      -21.972330   -0.680731    4.373689
     94          7           0      -28.202869   -0.569411    1.259763
     95          6           0      -28.060113   -1.468366    2.278208
     96          6           0      -29.335514   -1.623569    2.991820
     97          6           0      -30.266238   -0.748367    2.352691
     98          6           0      -29.467521   -0.089309    1.274147
     99          6           0      -29.536984   -2.578040    4.162787
    100          6           0      -31.716022   -0.603622    2.948757
    101          8           0      -31.981052   -1.226167    3.967702
    102          6           0      -32.756176    0.395522    2.287822
    103          7           0      -27.914413    1.542571   -0.789351
    104          6           0      -29.281519    1.644766   -0.542329
    105          6           0      -29.926691    2.886611   -1.381377
    106          6           0      -28.600385    3.458125   -2.123341
    107          6           0      -27.562083    2.454371   -1.737414
    108          6           0      -31.052827    2.431822   -2.355820
    109          6           0      -28.172962    4.931359   -1.709660
    110          6           0      -27.924858    5.971846   -2.812764
    111          7           0      -25.228992    0.700058   -1.324167
    112          6           0      -25.131186    1.780732   -2.162754
    113          6           0      -23.734204    1.883391   -2.634827
    114          6           0      -23.057953    0.786200   -2.037096
    115          6           0      -24.026041    0.143882   -1.215587
    116          6           0      -23.142311    2.931552   -3.535854
    117          6           0      -21.720691    0.178236   -1.903124
    118          8           0      -20.641014    0.382675   -2.477025
    119          6           0      -21.966989   -1.006932   -0.981431
    120          6           0      -21.743941   -2.260991   -1.618448
    121          8           0      -22.593127   -2.777682   -2.389952
    122          8           0      -20.507171   -2.820092   -1.240087
    123          6           0      -20.199960   -4.178052   -1.677509
    124          1           0      -26.998814   -2.898381    3.378439
    125          1           0      -31.045396    1.078528    0.458150
    126          1           0      -26.257674    3.390839   -3.098595
    127          1           0      -23.068947   -3.324432    0.658032
    128          1           0      -24.094099   -2.728479    3.400879
    129          1           0      -24.497166   -5.118420    3.174136
    130          1           0      -24.281281   -4.953256    1.395820
    131          1           0      -25.884902   -4.703204    2.170933
    132          1           0      -21.188858   -2.412994    1.477421
    133          1           0      -21.789642   -3.059486    3.018133
    134          1           0      -22.427019   -0.171901    2.337530
    135          1           0      -20.772280   -0.522914    2.577507
    136          1           0      -29.558984   -2.100974    5.142620
    137          1           0      -28.885325   -3.447594    4.076335
    138          1           0      -30.489466   -3.100403    4.074984
    139          1           0      -32.734456    0.206901    1.214217
    140          1           0      -32.429812    1.407618    2.525608
    141          1           0      -33.733199    0.402082    2.771023
    142          1           0      -30.433568    3.509967   -0.645362
    143          1           0      -28.775974    3.369868   -3.195718
    144          1           0      -30.594975    2.277335   -3.332637
    145          1           0      -31.901892    3.115283   -2.370103
    146          1           0      -31.551851    1.509065   -2.060317
    147          1           0      -27.298794    4.830554   -1.065610
    148          1           0      -29.040592    5.249722   -1.131778
    149          1           0      -27.319597    6.807134   -2.459480
    150          1           0      -28.937071    6.294148   -3.055950
    151          1           0      -27.419580    5.409732   -3.598425
    152          1           0      -23.779151    3.801955   -3.380267
    153          1           0      -23.347375    2.525723   -4.526469
    154          1           0      -22.067180    3.081687   -3.433289
    155          1           0      -21.235936   -0.820359   -0.195068
    156          1           0      -20.084514   -4.346022   -2.748316
    157          1           0      -20.964020   -4.866823   -1.315887
    158          1           0      -19.339828   -4.500849   -1.090700
 ---------------------------------------------------------------------

 SCF Done:  E(RPBE1PBE) =  -4067.36077666     A.U. after   16 cycles

 Excitation energies and oscillator strengths:

 Excited State   1:      Singlet-A      1.8697 eV  663.13 nm  f=0.3686  <S**2>=0.000
     309 -> 315       -0.17521
     311 -> 313        0.69206
     311 <- 313       -0.10391
 This state for optimization and/or second-order correction.
 Total Energy, E(TD-HF/TD-DFT) =  -4067.29206763
 Copying the excited state density for this state as the 1-particle RhoCI density.

 Excited State   2:      Singlet-A      1.8950 eV  654.26 nm  f=0.3622  <S**2>=0.000
     310 -> 316       -0.18690
     312 -> 314        0.68800

 Excited State   3:      Singlet-A      1.9715 eV  628.87 nm  f=0.0000  <S**2>=0.000
     312 -> 313        0.70711

 Excited State   4:      Singlet-A      2.1286 eV  582.48 nm  f=0.0000  <S**2>=0.000
     311 -> 314        0.70711

 Excited State   5:      Singlet-A      2.2581 eV  549.06 nm  f=0.0658  <S**2>=0.000
     310 -> 314        0.63633
     312 -> 316        0.29840

 The electronic state is 1-A.
 Alpha  occ. eigenvalues --  -46.92375 -46.91351 -19.26439 -19.24608 -19.20458
 Alpha  occ. eigenvalues --  -19.19919 -19.19817 -19.19493 -19.18633 -19.18082
 Alpha  occ. eigenvalues --  -14.42083 -14.41747 -14.41167 -14.40555 -14.39551
 Alpha  occ. eigenvalues --  -14.39528 -14.39041 -14.38483 -10.36998 -10.35312
 Alpha  occ. eigenvalues --  -10.33664 -10.32890 -10.32561 -10.30816 -10.29581
 Alpha  occ. eigenvalues --  -10.29339 -10.29103 -10.28481 -10.28462 -10.28462
 Alpha  occ. eigenvalues --  -10.28307 -10.28282 -10.28069 -10.27990 -10.27917
 Alpha  occ. eigenvalues --  -10.27821 -10.27508 -10.27471 -10.27175 -10.26921
 Alpha  occ. eigenvalues --  -10.26720 -10.26533 -10.26519 -10.26283 -10.26268
 Alpha  occ. eigenvalues --  -10.26237 -10.26143 -10.26122 -10.25956 -10.25930
 Alpha  occ. eigenvalues --  -10.25929 -10.25729 -10.25688 -10.25504 -10.25481
 Alpha  occ. eigenvalues --  -10.25410 -10.25402 -10.25401 -10.25267 -10.25228
 Alpha  occ. eigenvalues --  -10.25197 -10.25121 -10.25044 -10.25027 -10.25001
 Alpha  occ. eigenvalues --  -10.24680 -10.24504 -10.24452 -10.24436 -10.24287
 Alpha  occ. eigenvalues --  -10.24281 -10.24084 -10.24074 -10.23968 -10.23644
 Alpha  occ. eigenvalues --  -10.23556 -10.23512 -10.23474 -10.23456 -10.23415
 Alpha  occ. eigenvalues --  -10.23125 -10.23049 -10.22864 -10.22720 -10.22640
 Alpha  occ. eigenvalues --  -10.22010  -3.14575  -3.13778  -1.87373  -1.86967
 Alpha  occ. eigenvalues --   -1.86802  -1.86585  -1.86168  -1.86035  -1.09705
 Alpha  occ. eigenvalues --   -1.09651  -1.06068  -1.05136  -1.03910  -1.03843
 Alpha  occ. eigenvalues --   -1.01801  -1.00774  -1.00133  -0.99268  -0.98884
 Alpha  occ. eigenvalues --   -0.98832  -0.98204  -0.97775  -0.97246  -0.96514
 Alpha  occ. eigenvalues --   -0.87548  -0.86811  -0.83785  -0.83510  -0.83118
 Alpha  occ. eigenvalues --   -0.82684  -0.82362  -0.82266  -0.82239  -0.81810
 Alpha  occ. eigenvalues --   -0.81155  -0.81009  -0.80476  -0.79835  -0.78852
 Alpha  occ. eigenvalues --   -0.78628  -0.78197  -0.77890  -0.77083  -0.76866
 Alpha  occ. eigenvalues --   -0.76711  -0.75886  -0.75395  -0.75259  -0.74819
 Alpha  occ. eigenvalues --   -0.74448  -0.73204  -0.72548  -0.71849  -0.71530
 Alpha  occ. eigenvalues --   -0.71310  -0.71033  -0.70863  -0.70022  -0.69538
 Alpha  occ. eigenvalues --   -0.69298  -0.67146  -0.66837  -0.66215  -0.66107
 Alpha  occ. eigenvalues --   -0.63991  -0.63673  -0.63425  -0.63365  -0.62861
 Alpha  occ. eigenvalues --   -0.62625  -0.61654  -0.61261  -0.60226  -0.59830
 Alpha  occ. eigenvalues --   -0.59706  -0.59471  -0.59248  -0.59136  -0.58764
 Alpha  occ. eigenvalues --   -0.58333  -0.57060  -0.56347  -0.55536  -0.54811
 Alpha  occ. eigenvalues --   -0.54165  -0.53913  -0.53804  -0.53640  -0.53250
 Alpha  occ. eigenvalues --   -0.52570  -0.52371  -0.52371  -0.52120  -0.51800
 Alpha  occ. eigenvalues --   -0.50832  -0.50690  -0.50099  -0.49866  -0.49621
 Alpha  occ. eigenvalues --   -0.49527  -0.49170  -0.49009  -0.48822  -0.48721
 Alpha  occ. eigenvalues --   -0.48418  -0.48209  -0.47809  -0.47632  -0.47298
 Alpha  occ. eigenvalues --   -0.47205  -0.47034  -0.46976  -0.46881  -0.46824
 Alpha  occ. eigenvalues --   -0.46700  -0.46192  -0.46144  -0.45829  -0.45819
 Alpha  occ. eigenvalues --   -0.45504  -0.45239  -0.45202  -0.44974  -0.44968
 Alpha  occ. eigenvalues --   -0.44838  -0.44580  -0.43995  -0.43973  -0.43953
 Alpha  occ. eigenvalues --   -0.43924  -0.43867  -0.43724  -0.43568  -0.43404
 Alpha  occ. eigenvalues --   -0.43249  -0.43147  -0.42956  -0.42868  -0.42718
 Alpha  occ. eigenvalues --   -0.42655  -0.42384  -0.42124  -0.41848  -0.41814
 Alpha  occ. eigenvalues --   -0.41487  -0.41378  -0.41339  -0.41237  -0.41162
 Alpha  occ. eigenvalues --   -0.41013  -0.40966  -0.40588  -0.40520  -0.40248
 Alpha  occ. eigenvalues --   -0.40108  -0.40044  -0.39782  -0.39663  -0.39559
 Alpha  occ. eigenvalues --   -0.39463  -0.39325  -0.39270  -0.38957  -0.38870
 Alpha  occ. eigenvalues --   -0.38728  -0.38708  -0.38611  -0.38106  -0.38066
 Alpha  occ. eigenvalues --   -0.37930  -0.37841  -0.37793  -0.37743  -0.37677
 Alpha  occ. eigenvalues --   -0.37480  -0.37284  -0.37205  -0.37096  -0.37056
 Alpha  occ. eigenvalues --   -0.36929  -0.36757  -0.36533  -0.36416  -0.36083
 Alpha  occ. eigenvalues --   -0.35994  -0.35915  -0.35630  -0.35557  -0.35410
 Alpha  occ. eigenvalues --   -0.35266  -0.34817  -0.34680  -0.34480  -0.34149
 Alpha  occ. eigenvalues --   -0.33884  -0.33462  -0.33179  -0.32634  -0.32547
 Alpha  occ. eigenvalues --   -0.32113  -0.32086  -0.32065  -0.31632  -0.31498
 Alpha  occ. eigenvalues --   -0.31372  -0.30110  -0.30012  -0.29573  -0.29100
 Alpha  occ. eigenvalues --   -0.28886  -0.28723  -0.27861  -0.27675  -0.26925
 Alpha  occ. eigenvalues --   -0.26348  -0.26232  -0.26128  -0.26008  -0.25642
 Alpha  occ. eigenvalues --   -0.25519  -0.25353  -0.25115  -0.21065  -0.20666
 Alpha  occ. eigenvalues --   -0.18513  -0.18268
 Alpha virt. eigenvalues --   -0.10771  -0.10437  -0.05303  -0.05219  -0.04004
 Alpha virt. eigenvalues --   -0.03922  -0.02420  -0.01860  -0.01199  -0.01058
 Alpha virt. eigenvalues --   -0.00050   0.00788   0.00952   0.01077   0.01670

 Mulliken charges:
               1
     1  Mg  12.000004
     2  C    6.000340
     3  C    5.999948
     4  C    5.999681
     5  C    6.000007
     6  N    7.000106
     7  C    5.999535
     8  C    6.000163
     9  C    5.999861
    10  C    6.000411
    11  C    5.999959
    12  C    6.000018
    13  C    6.000018
    14  H    0.999956
    15  N    6.999953
    16  C    6.000341
    17  C    6.000353
    18  C    6.000174
    19  C    6.000363
    20  C    5.999924
    21  C    6.000198
    22  O    8.000325
    23  C    5.999905
    24  N    6.999986
    25  C    6.000408
    26  C    5.999925
    27  C    6.000074
    28  C    5.999647
    29  C    6.000008
    30  C    6.000110
    31  C    6.000067
    32  N    6.999978
    33  C    5.999697
    34  C    5.999544
    35  C    5.999988
    36  C    5.999691
    37  C    6.000071
    38  C    5.999750
    39  O    7.999588
    40  C    5.999999
    41  C    5.999941
    42  O    7.999913
    43  O    7.999991
    44  C    6.000051
    45  H    1.000179
    46  H    1.000062
    47  H    0.999814
    48  H    0.999984
    49  H    1.000042
    50  H    0.999998
    51  H    1.000038
    52  H    1.000163
    53  H    0.999913
    54  H    1.000062
    55  H    0.999986
    56  H    1.000037
    57  H    1.000239
    58  H    1.000227
    59  H    1.000193
    60  H    1.000112
    61  H    1.000066
    62  H    1.000217
    63  H    0.999958
    64  H    0.999957
    65  H    0.999949
    66  H    1.000096
    67  H    0.999999
    68  H    0.999845
    69  H    1.000023
    70  H    0.999860
    71  H    0.999919
    72  H    1.000049
    73  H    0.999724
    74  H    0.999766
    75  H    0.999799
    76  H    0.999914
    77  H    0.999943
    78  H    0.999970
    79  H    0.999923
    80  Mg  11.997125
    81  C    6.015277
    82  C    5.989622
    83  C    5.978513
    84  C    6.014230
    85  N    7.004118
    86  C    5.968595
    87  C    6.010908
    88  C    5.989063
    89  C    6.035731
    90  C    5.996498
    91  C    6.000900
    92  C    6.002604
    93  H    0.985842
    94  N    6.993996
    95  C    6.040163
    96  C    6.019259
    97  C    6.012254
    98  C    6.038462
    99  C    5.995855
   100  C    6.010326
   101  O    8.016861
   102  C    6.000055
   103  N    6.998709
   104  C    6.034482
   105  C    5.992562
   106  C    6.012374
   107  C    5.966803
   108  C    5.996352
   109  C    6.004512
   110  C    6.000384
   111  N    7.001093
   112  C    5.961390
   113  C    5.973455
   114  C    5.995181
   115  C    5.972092
   116  C    5.999126
   117  C    5.980693
   118  O    7.971880
   119  C    5.999830
   120  C    5.996681
   121  O    7.993382
   122  O    7.998216
   123  C    6.003714
   124  H    1.010630
   125  H    1.007451
   126  H    0.992670
   127  H    1.000058
   128  H    1.004033
   129  H    1.005207
   130  H    1.012246
   131  H    0.994002
   132  H    1.005325
   133  H    0.991892
   134  H    1.004767
   135  H    1.002397
   136  H    1.018881
   137  H    1.015682
   138  H    1.014680
   139  H    1.007158
   140  H    1.009464
   141  H    1.011749
   142  H    0.998860
   143  H    0.998724
   144  H    1.010251
   145  H    1.004422
   146  H    0.995133
   147  H    1.001754
   148  H    0.987924
   149  H    0.998779
   150  H    0.994214
   151  H    1.004142
   152  H    0.984430
   153  H    0.982088
   154  H    0.985745
   155  H    0.990258
   156  H    0.997476
   157  H    0.993235
   158  H    0.995112
 Sum of Mulliken charges = 624.00000

 Dipole moment (field-independent basis, Debye):
    X=             -7.8609    Y=             -2.9020    Z=              5.8110  Tot=             10.1972
 Quadrupole moment (field-independent basis, Debye-Ang):
   XX=            405.7675   YY=             -2.0566   ZZ=              2.0634
   XY=             82.2289   XZ=           -158.1243   YZ=             -0.9502

 Normal termination of Gaussian 16 at Wed Oct 13 22:09:35 2021.
