 Gaussian 16, Revision A.03,
 Gaussian 16:  ES64L-G16RevA.03 25-Dec-2016

 --------------------------------------------------------
 #p PBE1PBE/Def2SVP td=(nstates=5) density=(transition=1)
 --------------------------------------------------------

 --------------------------------
 TDDFT excited states in gaussian
 --------------------------------
 Symbolic Z-matrix:
 Charge =  0 Multiplicity = 1

                         Standard orientation:
 ---------------------------------------------------------------------
 Center     Atomic      Atomic             Coordinates (Angstroms)
 Number     Number       Type             X           Y           Z
 ---------------------------------------------------------------------
      1         12           0      -28.412273    0.485797   -0.613634
      2          6           0      -28.075361   -2.378122    1.427038
      3          6           0      -27.692757    2.429986    1.950907
      4          6           0      -29.637183    3.108398   -2.428679
      5          6           0      -30.181916   -1.720777   -2.995773
      6          7           0      -27.995179    0.023680    1.472719
      7          6           0      -27.676611   -1.172808    2.007711
      8          6           0      -26.998871   -0.950620    3.374047
      9          6           0      -26.859512    0.530754    3.520512
     10          6           0      -27.593719    1.072268    2.256646
     11          6           0      -27.312498    1.055782    4.944039
     12          6           0      -25.682405   -1.735998    3.691000
     13          6           0      -24.501558   -1.109516    4.549563
     14          1           0      -23.847596   -1.975191    5.636466
     15          7           0      -28.393501    2.518450   -0.350915
     16          6           0      -28.038190    3.141792    0.823930
     17          6           0      -28.108106    4.558352    0.603559
     18          6           0      -28.721776    4.831728   -0.680636
     19          6           0      -28.991335    3.467169   -1.185050
     20          6           0      -27.726627    5.452720    1.712759
     21          6           0      -28.980494    6.170797   -1.414392
     22          8           0      -29.543939    6.180425   -2.458871
     23          6           0      -28.314276    7.425965   -0.953024
     24          7           0      -29.782395    0.632121   -2.435187
     25          6           0      -29.964852    1.855592   -2.980753
     26          6           0      -30.768951    1.787801   -4.318404
     27          6           0      -30.919664    0.251668   -4.539959
     28          6           0      -30.283912   -0.351519   -3.262935
     29          6           0      -32.097312    2.496526   -4.316933
     30          6           0      -30.285154   -0.375759   -5.830202
     31          6           0      -28.813208   -0.610732   -5.877569
     32          7           0      -29.042319   -1.593896   -0.868523
     33          6           0      -29.665550   -2.285116   -1.867661
     34          6           0      -29.644836   -3.693964   -1.558180
     35          6           0      -29.040722   -3.819112   -0.279476
     36          6           0      -28.734955   -2.500472    0.114117
     37          6           0      -30.297120   -4.801752   -2.307516
     38          6           0      -28.665526   -4.720844    0.771956
     39          8           0      -28.716330   -5.939338    0.894268
     40          6           0      -27.977189   -3.837335    1.906842
     41          6           0      -28.529601   -4.117720    3.294193
     42          8           0      -29.662989   -3.882902    3.625600
     43          8           0      -27.518862   -4.629441    4.092325
     44          6           0      -27.965058   -4.966119    5.444699
     45          1           0      -27.275590    3.135845    2.672686
     46          1           0      -29.952118    3.999918   -2.974506
     47          1           0      -30.609397   -2.389209   -3.745922
     48          1           0      -27.770958   -1.394181    4.002743
     49          1           0      -25.794382    0.762276    3.493066
     50          1           0      -27.511567    0.205591    5.596252
     51          1           0      -28.122049    1.768931    4.788890
     52          1           0      -26.488878    1.543274    5.466003
     53          1           0      -25.241721   -2.001261    2.729680
     54          1           0      -25.886994   -2.698287    4.161033
     55          1           0      -24.940657   -0.218419    4.998605
     56          1           0      -23.715322   -0.770539    3.874899
     57          1           0      -28.409205    6.300015    1.651334
     58          1           0      -26.723868    5.818778    1.495556
     59          1           0      -27.709557    5.113705    2.748691
     60          1           0      -29.055375    7.842155   -0.271885
     61          1           0      -28.029585    8.017934   -1.823403
     62          1           0      -27.432809    7.279301   -0.328449
     63          1           0      -30.171396    2.117840   -5.168408
     64          1           0      -31.908014   -0.204716   -4.495300
     65          1           0      -32.213511    3.124427   -3.432610
     66          1           0      -32.936237    1.800631   -4.289801
     67          1           0      -32.103320    3.105123   -5.220845
     68          1           0      -30.527123    0.242723   -6.694579
     69          1           0      -30.851854   -1.275633   -6.070388
     70          1           0      -28.312558    0.048259   -5.167955
     71          1           0      -28.240863   -0.420202   -6.785708
     72          1           0      -28.694631   -1.677195   -5.683386
     73          1           0      -31.377255   -4.707820   -2.415936
     74          1           0      -30.284919   -5.653350   -1.626812
     75          1           0      -29.805441   -4.990186   -3.262298
     76          1           0      -26.915663   -4.082199    1.865498
     77          1           0      -27.361700   -4.154126    5.849382
     78          1           0      -27.539589   -5.956013    5.607878
     79          1           0      -29.044496   -4.884894    5.574244
     80         12           0       29.260085   -0.312993    0.075851
     81          6           0       26.415112    1.567924    0.755329
     82          6           0       27.193535   -3.048645   -0.443052
     83          6           0       31.793192   -2.068209   -1.119054
     84          6           0       31.154928    2.582761    0.127895
     85          7           0       27.067131   -0.664066   -0.013585
     86          6           0       26.104293    0.215920    0.436372
     87          6           0       24.745393   -0.410895    0.540288
     88          6           0       25.106024   -1.961636    0.519270
     89          6           0       26.519269   -1.925733   -0.047040
     90          6           0       24.844814   -2.912738    1.781913
     91          6           0       23.680865    0.076845   -0.548243
     92          6           0       24.214131    0.469034   -1.958298
     93          1           0       23.353772   -0.009989   -3.102815
     94          7           0       29.457472   -2.256543   -0.793157
     95          6           0       28.470550   -3.244336   -0.900259
     96          6           0       28.969745   -4.419341   -1.560417
     97          6           0       30.339177   -4.153254   -1.799031
     98          6           0       30.608883   -2.783073   -1.270054
     99          6           0       28.124433   -5.693040   -1.611158
    100          6           0       31.268332   -5.197565   -2.458739
    101          8           0       30.841939   -6.271599   -2.895092
    102          6           0       32.699624   -4.860153   -2.484969
    103          7           0       31.150245    0.273652   -0.521285
    104          6           0       32.090812   -0.722757   -0.721249
    105          6           0       33.534770   -0.180611   -0.803529
    106          6           0       33.210342    1.359300   -0.625753
    107          6           0       31.769794    1.433280   -0.376036
    108          6           0       34.563383   -0.678256    0.162259
    109          6           0       33.569000    2.231656   -1.932959
    110          6           0       34.316175    3.485544   -1.560166
    111          7           0       28.949897    1.687679    0.569161
    112          6           0       29.826572    2.756424    0.542209
    113          6           0       29.118021    3.999199    0.924673
    114          6           0       27.749037    3.569197    1.023585
    115          6           0       27.730077    2.188401    0.794799
    116          6           0       29.570722    5.402650    0.909273
    117          6           0       26.336760    3.964898    1.209762
    118          8           0       25.861243    5.068901    1.341851
    119          6           0       25.436799    2.693504    1.085420
    120          6           0       24.626559    2.524589    2.292271
    121          8           0       23.403256    2.529620    2.431974
    122          8           0       25.510497    2.634412    3.397627
    123          6           0       24.893132    2.433647    4.726108
    124          1           0       26.550027   -3.926287   -0.347528
    125          1           0       32.732100   -2.592455   -1.308355
    126          1           0       31.853379    3.419090    0.191026
    127          1           0       24.277648   -0.142223    1.487393
    128          1           0       24.445200   -2.303450   -0.277730
    129          1           0       24.319729   -2.455145    2.620174
    130          1           0       25.757256   -3.279072    2.252209
    131          1           0       24.135121   -3.691839    1.502281
    132          1           0       23.060297    0.876549   -0.145266
    133          1           0       22.970937   -0.742568   -0.660528
    134          1           0       25.236660    0.115905   -2.095297
    135          1           0       24.249309    1.554253   -2.049975
    136          1           0       28.309079   -6.309203   -2.491697
    137          1           0       27.074092   -5.420323   -1.710275
    138          1           0       28.387425   -6.257119   -0.716001
    139          1           0       33.085010   -4.909836   -1.467019
    140          1           0       32.837993   -3.877482   -2.936961
    141          1           0       33.159699   -5.637921   -3.094418
    142          1           0       33.850872   -0.256888   -1.844158
    143          1           0       33.679834    1.586184    0.331412
    144          1           0       35.419714   -0.012923    0.050907
    145          1           0       34.903906   -1.645819   -0.206528
    146          1           0       34.149308   -0.727959    1.170018
    147          1           0       32.623370    2.429340   -2.437576
    148          1           0       34.102723    1.724257   -2.737564
    149          1           0       33.657014    4.333285   -1.745552
    150          1           0       35.110871    3.721525   -2.268670
    151          1           0       34.521392    3.488582   -0.489857
    152          1           0       30.607775    5.564596    0.611601
    153          1           0       29.499651    5.748604    1.939884
    154          1           0       28.968250    5.791072    0.088387
    155          1           0       24.814003    2.886407    0.212227
    156          1           0       25.613713    1.773477    5.210208
    157          1           0       23.903791    1.986936    4.825269
    158          1           0       25.048858    3.382048    5.240628
 ---------------------------------------------------------------------

 SCF Done:  E(RPBE1PBE) =  -4067.36317614     A.U. after   16 cycles

 Excitation energies and oscillator strengths:

 Excited State   1:      Singlet-A      1.8611 eV  666.20 nm  f=0.3591  <S**2>=0.000
     310 -> 316       -0.17926
     312 -> 314        0.69119
     312 <- 314       -0.10763
 This state for optimization and/or second-order correction.
 Total Energy, E(TD-HF/TD-DFT) =  -4067.29478305
 Copying the excited state density for this state as the 1-particle RhoCI density.

 Excited State   2:      Singlet-A      1.8711 eV  662.62 nm  f=0.3695  <S**2>=0.000
     309 -> 315       -0.17705
     311 -> 313        0.68985
     311 <- 313       -0.10398

 Excited State   3:      Singlet-A      1.9794 eV  626.37 nm  f=0.0000  <S**2>=0.000
     312 -> 313        0.70711

 Excited State   4:      Singlet-A      2.0620 eV  601.29 nm  f=0.0000  <S**2>=0.000
     311 -> 314        0.70711

 Excited State   5:      Singlet-A      2.1921 eV  565.60 nm  f=0.1042  <S**2>=0.000
     310 -> 314        0.65383
     312 -> 316        0.25419

 The electronic state is 1-A.
 Alpha  occ. eigenvalues --  -46.93380 -46.92506 -19.25447 -19.25027 -19.20771
 Alpha  occ. eigenvalues --  -19.20251 -19.19680 -19.19184 -19.19119 -19.18900
 Alpha  occ. eigenvalues --  -14.41762 -14.41742 -14.41693 -14.41236 -14.39255
 Alpha  occ. eigenvalues --  -14.39123 -14.38897 -14.38503 -10.36750 -10.36129
 Alpha  occ. eigenvalues --  -10.32761 -10.32362 -10.32182 -10.31966 -10.29340
 Alpha  occ. eigenvalues --  -10.29274 -10.28973 -10.28867 -10.28538 -10.28538
 Alpha  occ. eigenvalues --  -10.28511 -10.28392 -10.28276 -10.28262 -10.28184
 Alpha  occ. eigenvalues --  -10.27964 -10.27911 -10.27138 -10.27016 -10.26935
 Alpha  occ. eigenvalues --  -10.26781 -10.26728 -10.26478 -10.26355 -10.26346
 Alpha  occ. eigenvalues --  -10.26303 -10.26251 -10.26058 -10.26047 -10.25994
 Alpha  occ. eigenvalues --  -10.25933 -10.25887 -10.25808 -10.25745 -10.25579
 Alpha  occ. eigenvalues --  -10.25577 -10.25485 -10.25440 -10.25284 -10.25225
 Alpha  occ. eigenvalues --  -10.25068 -10.24960 -10.24861 -10.24772 -10.24612
 Alpha  occ. eigenvalues --  -10.24556 -10.24433 -10.24400 -10.24389 -10.24372
 Alpha  occ. eigenvalues --  -10.24324 -10.23994 -10.23966 -10.23822 -10.23775
 Alpha  occ. eigenvalues --  -10.23764 -10.23706 -10.23633 -10.23354 -10.23283
 Alpha  occ. eigenvalues --  -10.23229 -10.23220 -10.22842 -10.22667 -10.22553
 Alpha  occ. eigenvalues --  -10.22361  -3.15274  -3.14612  -1.88084  -1.87655
 Alpha  occ. eigenvalues --   -1.87486  -1.87436  -1.87002  -1.86827  -1.11072
 Alpha  occ. eigenvalues --   -1.09552  -1.07574  -1.05197  -1.04037  -1.03988
 Alpha  occ. eigenvalues --   -1.03390  -1.01736  -0.99699  -0.98816  -0.98369
 Alpha  occ. eigenvalues --   -0.97855  -0.97772  -0.97116  -0.96975  -0.96467
 Alpha  occ. eigenvalues --   -0.86835  -0.85973  -0.83966  -0.83543  -0.83529
 Alpha  occ. eigenvalues --   -0.83138  -0.82538  -0.82292  -0.81962  -0.81682
 Alpha  occ. eigenvalues --   -0.81408  -0.81260  -0.80445  -0.80441  -0.79048
 Alpha  occ. eigenvalues --   -0.78776  -0.78257  -0.77943  -0.76963  -0.76651
 Alpha  occ. eigenvalues --   -0.76589  -0.76227  -0.75204  -0.75153  -0.74753
 Alpha  occ. eigenvalues --   -0.74510  -0.72700  -0.72572  -0.71792  -0.71429
 Alpha  occ. eigenvalues --   -0.71389  -0.71107  -0.70522  -0.70190  -0.70107
 Alpha  occ. eigenvalues --   -0.69013  -0.67125  -0.66791  -0.66592  -0.65863
 Alpha  occ. eigenvalues --   -0.64089  -0.63759  -0.63676  -0.63630  -0.62692
 Alpha  occ. eigenvalues --   -0.62595  -0.61314  -0.61258  -0.60876  -0.59476
 Alpha  occ. eigenvalues --   -0.59381  -0.59088  -0.58765  -0.58631  -0.58559
 Alpha  occ. eigenvalues --   -0.58501  -0.57086  -0.56261  -0.54806  -0.54520
 Alpha  occ. eigenvalues --   -0.54082  -0.53992  -0.53553  -0.53375  -0.52926
 Alpha  occ. eigenvalues --   -0.52905  -0.52544  -0.52127  -0.51932  -0.51785
 Alpha  occ. eigenvalues --   -0.50902  -0.50601  -0.50409  -0.50373  -0.49916
 Alpha  occ. eigenvalues --   -0.49903  -0.49651  -0.49597  -0.49161  -0.49125
 Alpha  occ. eigenvalues --   -0.48620  -0.48392  -0.48149  -0.47736  -0.47618
 Alpha  occ. eigenvalues --   -0.47404  -0.47270  -0.47036  -0.46946  -0.46732
 Alpha  occ. eigenvalues --   -0.46502  -0.46366  -0.46270  -0.45731  -0.45716
 Alpha  occ. eigenvalues --   -0.45485  -0.45400  -0.45359  -0.45162  -0.45072
 Alpha  occ. eigenvalues --   -0.44836  -0.44797  -0.44641  -0.44310  -0.44220
 Alpha  occ. eigenvalues --   -0.44128  -0.43892  -0.43857  -0.43621  -0.43499
 Alpha  occ. eigenvalues --   -0.43374  -0.43224  -0.43197  -0.42953  -0.42917
 Alpha  occ. eigenvalues --   -0.42801  -0.42415  -0.42308  -0.41909  -0.41895
 Alpha  occ. eigenvalues --   -0.41835  -0.41657  -0.41461  -0.41255  -0.40990
 Alpha  occ. eigenvalues --   -0.40937  -0.40762  -0.40490  -0.40474  -0.40272
 Alpha  occ. eigenvalues --   -0.40168  -0.40160  -0.39900  -0.39816  -0.39717
 Alpha  occ. eigenvalues --   -0.39526  -0.39421  -0.39352  -0.39313  -0.39040
 Alpha  occ. eigenvalues --   -0.38857  -0.38745  -0.38495  -0.38381  -0.38287
 Alpha  occ. eigenvalues --   -0.38095  -0.37963  -0.37846  -0.37808  -0.37698
 Alpha  occ. eigenvalues --   -0.37685  -0.37471  -0.37340  -0.37194  -0.37010
 Alpha  occ. eigenvalues --   -0.36893  -0.36790  -0.36716  -0.36610  -0.36532
 Alpha  occ. eigenvalues --   -0.36415  -0.36106  -0.35747  -0.35481  -0.35342
 Alpha  occ. eigenvalues --   -0.34993  -0.34878  -0.34076  -0.34069  -0.33890
 Alpha  occ. eigenvalues --   -0.33528  -0.33048  -0.32974  -0.32834  -0.32452
 Alpha  occ. eigenvalues --   -0.32372  -0.31965  -0.31962  -0.31614  -0.30871
 Alpha  occ. eigenvalues --   -0.30773  -0.30576  -0.30316  -0.29722  -0.29528
 Alpha  occ. eigenvalues --   -0.28900  -0.28799  -0.28665  -0.26926  -0.26524
 Alpha  occ. eigenvalues --   -0.26442  -0.25898  -0.25761  -0.25587  -0.25542
 Alpha  occ. eigenvalues --   -0.25381  -0.25354  -0.25012  -0.21013  -0.20751
 Alpha  occ. eigenvalues --   -0.18880  -0.18676
 Alpha virt. eigenvalues --   -0.11174  -0.11075  -0.05725  -0.05080  -0.03767
 Alpha virt. eigenvalues --   -0.03544  -0.01968  -0.01942  -0.01646  -0.01127
 Alpha virt. eigenvalues --   -0.00517   0.00333   0.00786   0.00975   0.01728

 Mulliken charges:
               1
     1  Mg  12.000723
     2  C    6.024316
     3  C    5.993069
     4  C    5.983441
     5  C    6.000689
     6  N    7.014420
     7  C    5.965890
     8  C    6.005719
     9  C    5.988833
    10  C    6.030942
    11  C    6.000112
    12  C    6.001623
    13  C    5.997367
    14  H    1.002445
    15  N    6.993646
    16  C    6.035054
    17  C    6.020031
    18  C    6.016749
    19  C    6.026853
    20  C    5.994046
    21  C    6.013377
    22  O    8.024875
    23  C    5.995799
    24  N    6.998439
    25  C    6.027130
    26  C    5.989006
    27  C    6.003143
    28  C    5.974585
    29  C    5.999550
    30  C    6.004894
    31  C    6.006862
    32  N    7.001576
    33  C    5.971191
    34  C    5.962775
    35  C    6.001428
    36  C    5.968074
    37  C    6.002314
    38  C    5.985299
    39  O    7.972079
    40  C    5.997340
    41  C    5.996150
    42  O    7.996494
    43  O    7.998512
    44  C    6.001099
    45  H    1.009075
    46  H    1.004821
    47  H    0.988844
    48  H    1.002575
    49  H    1.004455
    50  H    1.011044
    51  H    0.996694
    52  H    1.002432
    53  H    1.002221
    54  H    1.004194
    55  H    0.993525
    56  H    0.998172
    57  H    1.016644
    58  H    1.019577
    59  H    1.018400
    60  H    1.008330
    61  H    1.012990
    62  H    1.003502
    63  H    1.001122
    64  H    1.001125
    65  H    0.992819
    66  H    1.008199
    67  H    1.000935
    68  H    0.989255
    69  H    1.001356
    70  H    0.990765
    71  H    0.992627
    72  H    1.006240
    73  H    0.978367
    74  H    0.987272
    75  H    0.980340
    76  H    0.993895
    77  H    0.994143
    78  H    0.998157
    79  H    0.997931
    80  Mg  11.999998
    81  C    6.000366
    82  C    5.999861
    83  C    5.999524
    84  C    6.000123
    85  N    7.000048
    86  C    5.999445
    87  C    6.000188
    88  C    5.999807
    89  C    6.000502
    90  C    5.999930
    91  C    6.000039
    92  C    6.000072
    93  H    0.999882
    94  N    6.999931
    95  C    6.000580
    96  C    6.000343
    97  C    6.000200
    98  C    6.000621
    99  C    5.999914
   100  C    6.000247
   101  O    8.000337
   102  C    5.999916
   103  N    6.999941
   104  C    6.000659
   105  C    5.999743
   106  C    6.000158
   107  C    5.999485
   108  C    5.999963
   109  C    6.000074
   110  C    6.000005
   111  N    6.999996
   112  C    5.999502
   113  C    5.999495
   114  C    5.999981
   115  C    5.999539
   116  C    6.000064
   117  C    5.999673
   118  O    7.999537
   119  C    5.999983
   120  C    5.999874
   121  O    7.999833
   122  O    8.000106
   123  C    6.000034
   124  H    1.000211
   125  H    1.000108
   126  H    0.999814
   127  H    0.999999
   128  H    1.000094
   129  H    1.000217
   130  H    1.000001
   131  H    1.000065
   132  H    1.000056
   133  H    0.999872
   134  H    0.999887
   135  H    1.000100
   136  H    1.000258
   137  H    1.000241
   138  H    1.000299
   139  H    1.000152
   140  H    1.000161
   141  H    1.000216
   142  H    1.000033
   143  H    0.999983
   144  H    1.000143
   145  H    0.999923
   146  H    1.000069
   147  H    1.000003
   148  H    0.999805
   149  H    1.000052
   150  H    0.999911
   151  H    0.999989
   152  H    0.999707
   153  H    0.999702
   154  H    0.999732
   155  H    0.999880
   156  H    0.999929
   157  H    0.999890
   158  H    0.999971
 Sum of Mulliken charges = 624.00000

 Dipole moment (field-independent basis, Debye):
    X=              1.4786    Y=              9.7963    Z=              1.8967  Tot=             10.0872
 Quadrupole moment (field-independent basis, Debye-Ang):
   XX=            -83.6776   YY=              9.4839   ZZ=             -3.9184
   XY=           -292.0180   XZ=            -58.2837   YZ=             -3.4502

 Normal termination of Gaussian 16 at Thu Oct 14 09:34:18 2021.
