 Gaussian 16, Revision A.03,
 Gaussian 16:  ES64L-G16RevA.03 25-Dec-2016

 --------------------------------------------------------
 #p PBE1PBE/Def2SVP td=(nstates=5) density=(transition=1)
 --------------------------------------------------------

 --------------------------------
 TDDFT excited states in gaussian
 --------------------------------
 Symbolic Z-matrix:
 Charge =  0 Multiplicity = 1

                         Standard orientation:
 ---------------------------------------------------------------------
 Center     Atomic      Atomic             Coordinates (Angstroms)
 Number     Number       Type             X           Y           Z
 ---------------------------------------------------------------------
      1         12           0       18.153106   -0.665789    0.260743
      2          6           0       15.503629    1.529622    0.069754
      3          6           0       19.973755    1.866056    1.668593
      4          6           0       20.836426   -2.714860    0.186516
      5          6           0       16.404250   -2.951172   -1.690578
      6          7           0       17.731311    1.530349    0.660728
      7          6           0       16.595132    2.112903    0.695794
      8          6           0       16.569164    3.609191    1.303107
      9          6           0       18.123166    3.779298    1.530597
     10          6           0       18.707814    2.325415    1.197908
     11          6           0       18.848316    4.839937    0.547597
     12          6           0       15.700240    3.796711    2.621483
     13          6           0       15.014835    5.189983    2.853057
     14          1           0       15.441392    6.307044    1.949260
     15          7           0       20.058689   -0.499022    0.894490
     16          6           0       20.656817    0.640928    1.562272
     17          6           0       22.022321    0.270404    1.919197
     18          6           0       22.324182   -1.012115    1.397205
     19          6           0       21.041143   -1.486065    0.830810
     20          6           0       22.793802    1.243131    2.736427
     21          6           0       23.612297   -1.864979    1.472364
     22          8           0       23.796325   -2.902354    0.908268
     23          6           0       24.791201   -1.196729    2.208365
     24          7           0       18.663048   -2.539716   -0.703489
     25          6           0       19.785174   -3.179372   -0.603753
     26          6           0       19.846479   -4.390264   -1.577517
     27          6           0       18.392242   -4.527959   -2.088460
     28          6           0       17.739152   -3.277098   -1.454758
     29          6           0       20.884400   -4.151725   -2.694796
     30          6           0       17.745925   -5.890876   -1.692350
     31          6           0       18.294070   -7.113013   -2.446734
     32          7           0       16.306534   -0.744019   -0.656173
     33          6           0       15.706270   -1.792733   -1.330062
     34          6           0       14.363266   -1.371429   -1.630506
     35          6           0       14.191224   -0.038800   -1.149866
     36          6           0       15.442570    0.235583   -0.533717
     37          6           0       13.411670   -2.138793   -2.346793
     38          6           0       13.310918    1.067252   -0.946063
     39          8           0       12.131328    1.225586   -1.380893
     40          6           0       14.192988    2.170532   -0.242814
     41          6           0       14.211923    3.326899   -1.113011
     42          8           0       14.954438    3.452800   -2.086443
     43          8           0       13.169231    4.133898   -0.734764
     44          6           0       12.902955    5.225391   -1.695420
     45          1           0       20.586982    2.661602    2.095906
     46          1           0       21.737571   -3.331689    0.222197
     47          1           0       15.873865   -3.731824   -2.240718
     48          1           0       16.245740    4.218226    0.458581
     49          1           0       18.317698    4.115245    2.548931
     50          1           0       18.203740    4.988906   -0.319142
     51          1           0       19.812174    4.444086    0.228001
     52          1           0       19.066900    5.820832    0.970957
     53          1           0       16.421622    3.645343    3.424035
     54          1           0       15.033620    2.974209    2.883007
     55          1           0       15.122982    5.569531    3.869030
     56          1           0       13.950013    5.100087    2.637979
     57          1           0       23.265255    1.991839    2.099177
     58          1           0       23.450110    0.763717    3.462872
     59          1           0       22.074262    1.756956    3.373439
     60          1           0       24.692246   -1.168328    3.293941
     61          1           0       24.786725   -0.204214    1.758951
     62          1           0       25.778692   -1.602409    1.990421
     63          1           0       20.107313   -5.211782   -0.910729
     64          1           0       18.370268   -4.384599   -3.168743
     65          1           0       21.110754   -3.108451   -2.915981
     66          1           0       20.641074   -4.492693   -3.701642
     67          1           0       21.790047   -4.654511   -2.355641
     68          1           0       16.682693   -5.854269   -1.925551
     69          1           0       17.849853   -6.049313   -0.618412
     70          1           0       19.125828   -6.772356   -3.063380
     71          1           0       17.578264   -7.399165   -3.217490
     72          1           0       18.525074   -8.019240   -1.887349
     73          1           0       13.495801   -3.139601   -1.923054
     74          1           0       13.580850   -2.240957   -3.418602
     75          1           0       12.441551   -1.647068   -2.267803
     76          1           0       13.615444    2.407746    0.651033
     77          1           0       12.551043    4.743647   -2.608094
     78          1           0       13.756699    5.894261   -1.799033
     79          1           0       12.083610    5.818803   -1.289366
     80         12           0      -18.454547   -0.144524    0.269298
     81          6           0      -15.559354    1.681406   -0.571494
     82          6           0      -19.292775   -0.021257   -2.975208
     83          6           0      -20.815808   -2.253877    1.079045
     84          6           0      -16.918546   -0.683378    3.450620
     85          7           0      -17.485667    0.702472   -1.559123
     86          6           0      -16.374547    1.464914   -1.692671
     87          6           0      -16.138110    1.953417   -3.107400
     88          6           0      -17.532796    1.592414   -3.759670
     89          6           0      -18.181878    0.683007   -2.736978
     90          6           0      -18.449044    2.837252   -4.107821
     91          6           0      -14.920330    1.425863   -3.984662
     92          6           0      -14.127237    0.151956   -3.589343
     93          1           0      -13.552334   -0.747714   -4.746430
     94          7           0      -19.955093   -0.904677   -0.842440
     95          6           0      -20.086188   -0.842401   -2.160754
     96          6           0      -21.228170   -1.703308   -2.572922
     97          6           0      -21.788662   -2.243251   -1.301913
     98          6           0      -20.825937   -1.809649   -0.288957
     99          6           0      -21.768228   -1.772527   -3.975933
    100          6           0      -22.990274   -3.143673   -1.181878
    101          8           0      -23.628801   -3.412570   -2.196417
    102          6           0      -23.480844   -3.839554    0.141082
    103          7           0      -18.783581   -1.443427    2.044038
    104          6           0      -19.927253   -2.034696    2.083239
    105          6           0      -20.091221   -2.658816    3.540196
    106          6           0      -18.724304   -2.332672    4.145459
    107          6           0      -18.057004   -1.420854    3.133914
    108          6           0      -21.275772   -2.216879    4.415581
    109          6           0      -17.747871   -3.614049    4.269396
    110          6           0      -17.399827   -4.076080    5.696297
    111          7           0      -16.629918    0.295408    1.265029
    112          6           0      -16.202256    0.130756    2.555967
    113          6           0      -15.001644    0.965387    2.820494
    114          6           0      -14.617020    1.515097    1.564873
    115          6           0      -15.734852    1.141447    0.700139
    116          6           0      -14.185537    1.037787    4.130396
    117          6           0      -13.671501    2.286295    0.829025
    118          8           0      -12.541364    2.740569    1.076702
    119          6           0      -14.276844    2.498299   -0.581946
    120          6           0      -14.410613    4.010507   -0.783558
    121          8           0      -13.795679    4.802705   -1.446814
    122          8           0      -15.604621    4.414947   -0.176690
    123          6           0      -16.016620    5.843718   -0.340159
    124          1           0      -19.536504    0.027916   -4.038699
    125          1           0      -21.646779   -2.924708    1.310296
    126          1           0      -16.606414   -0.647245    4.496087
    127          1           0      -16.089917    3.038435   -3.016922
    128          1           0      -17.363742    1.076602   -4.705012
    129          1           0      -17.982603    3.766856   -3.783404
    130          1           0      -19.282021    2.689052   -3.421462
    131          1           0      -18.706468    2.818516   -5.166980
    132          1           0      -14.216731    2.253951   -4.071185
    133          1           0      -15.265800    1.272240   -5.007551
    134          1           0      -14.818083   -0.450522   -2.999508
    135          1           0      -13.182004    0.359473   -3.088716
    136          1           0      -22.753657   -2.234084   -4.035569
    137          1           0      -20.985460   -2.230315   -4.581912
    138          1           0      -21.764225   -0.732174   -4.302793
    139          1           0      -23.656327   -3.262479    1.049770
    140          1           0      -22.708160   -4.540193    0.457589
    141          1           0      -24.420391   -4.372786   -0.001000
    142          1           0      -20.261096   -3.734036    3.495404
    143          1           0      -18.681062   -1.892327    5.142224
    144          1           0      -21.918249   -1.503536    3.899133
    145          1           0      -20.942423   -1.823745    5.376596
    146          1           0      -21.958796   -3.029169    4.664120
    147          1           0      -16.782236   -3.432065    3.799651
    148          1           0      -18.250326   -4.414274    3.725568
    149          1           0      -16.404830   -4.503681    5.822207
    150          1           0      -18.102546   -4.880577    5.913081
    151          1           0      -17.510412   -3.166084    6.286152
    152          1           0      -14.409757    0.258278    4.857804
    153          1           0      -14.457551    2.003688    4.555299
    154          1           0      -13.129388    1.096974    3.868599
    155          1           0      -13.598778    2.089192   -1.330188
    156          1           0      -15.240403    6.601336   -0.445617
    157          1           0      -16.507764    6.067894    0.606556
    158          1           0      -16.766427    6.086109   -1.093519
 ---------------------------------------------------------------------

 SCF Done:  E(RPBE1PBE) =  -4067.37515383     A.U. after   17 cycles

 Excitation energies and oscillator strengths:

 Excited State   1:      Singlet-A      1.9092 eV  649.42 nm  f=0.6421  <S**2>=0.000
     310 -> 316       -0.17853
     311 -> 313        0.27262
     312 -> 314        0.62984
 This state for optimization and/or second-order correction.
 Total Energy, E(TD-HF/TD-DFT) =  -4067.30499379
 Copying the excited state density for this state as the 1-particle RhoCI density.

 Excited State   2:      Singlet-A      1.9100 eV  649.15 nm  f=0.0000  <S**2>=0.000
     312 -> 313        0.70710

 Excited State   3:      Singlet-A      1.9116 eV  648.59 nm  f=0.1305  <S**2>=0.000
     309 -> 315       -0.16270
     311 -> 313        0.63510
     312 -> 314       -0.27015

 Excited State   4:      Singlet-A      2.1515 eV  576.26 nm  f=0.0000  <S**2>=0.000
     311 -> 314        0.70710

 Excited State   5:      Singlet-A      2.2083 eV  561.44 nm  f=0.1058  <S**2>=0.000
     310 -> 314        0.65632
     312 -> 316        0.25149

 The electronic state is 1-A.
 Alpha  occ. eigenvalues --  -46.93428 -46.91770 -19.25405 -19.25178 -19.20541
 Alpha  occ. eigenvalues --  -19.20153 -19.19489 -19.19488 -19.18942 -19.18617
 Alpha  occ. eigenvalues --  -14.41798 -14.41557 -14.41273 -14.41034 -14.39979
 Alpha  occ. eigenvalues --  -14.39853 -14.39283 -14.38620 -10.36819 -10.35494
 Alpha  occ. eigenvalues --  -10.33206 -10.32890 -10.32629 -10.31998 -10.29413
 Alpha  occ. eigenvalues --  -10.29078 -10.29031 -10.28700 -10.28647 -10.28520
 Alpha  occ. eigenvalues --  -10.28475 -10.28428 -10.28354 -10.28158 -10.28132
 Alpha  occ. eigenvalues --  -10.28075 -10.27943 -10.27908 -10.27768 -10.27600
 Alpha  occ. eigenvalues --  -10.27596 -10.26843 -10.26817 -10.26795 -10.26712
 Alpha  occ. eigenvalues --  -10.26712 -10.26692 -10.26643 -10.26560 -10.26450
 Alpha  occ. eigenvalues --  -10.25965 -10.25859 -10.25725 -10.25562 -10.25556
 Alpha  occ. eigenvalues --  -10.25441 -10.25402 -10.25353 -10.25331 -10.25250
 Alpha  occ. eigenvalues --  -10.25194 -10.25105 -10.24926 -10.24910 -10.24747
 Alpha  occ. eigenvalues --  -10.24738 -10.24660 -10.24425 -10.24393 -10.24350
 Alpha  occ. eigenvalues --  -10.24350 -10.24195 -10.24111 -10.24006 -10.24005
 Alpha  occ. eigenvalues --  -10.23970 -10.23651 -10.23544 -10.23391 -10.23185
 Alpha  occ. eigenvalues --  -10.23087 -10.22986 -10.22936 -10.22808 -10.22356
 Alpha  occ. eigenvalues --  -10.22164  -3.15487  -3.13960  -1.88315  -1.87859
 Alpha  occ. eigenvalues --   -1.87713  -1.86795  -1.86340  -1.86188  -1.10719
 Alpha  occ. eigenvalues --   -1.10227  -1.07073  -1.04425  -1.03851  -1.02028
 Alpha  occ. eigenvalues --   -1.01983  -1.01545  -1.01371  -0.99967  -0.99397
 Alpha  occ. eigenvalues --   -0.98938  -0.98673  -0.98228  -0.97998  -0.95294
 Alpha  occ. eigenvalues --   -0.87814  -0.86903  -0.84142  -0.83568  -0.83152
 Alpha  occ. eigenvalues --   -0.82840  -0.82599  -0.82550  -0.81993  -0.81779
 Alpha  occ. eigenvalues --   -0.81268  -0.81075  -0.81059  -0.79864  -0.79160
 Alpha  occ. eigenvalues --   -0.78164  -0.78159  -0.77685  -0.77140  -0.76531
 Alpha  occ. eigenvalues --   -0.75995  -0.75776  -0.75319  -0.75084  -0.74756
 Alpha  occ. eigenvalues --   -0.74542  -0.72806  -0.72720  -0.71955  -0.71668
 Alpha  occ. eigenvalues --   -0.71302  -0.70913  -0.70626  -0.69998  -0.69759
 Alpha  occ. eigenvalues --   -0.69134  -0.67710  -0.66857  -0.66656  -0.65859
 Alpha  occ. eigenvalues --   -0.63980  -0.63710  -0.63549  -0.63096  -0.63038
 Alpha  occ. eigenvalues --   -0.62624  -0.62040  -0.61304  -0.61283  -0.60147
 Alpha  occ. eigenvalues --   -0.60134  -0.59966  -0.59763  -0.59382  -0.59257
 Alpha  occ. eigenvalues --   -0.58592  -0.57629  -0.56094  -0.55100  -0.54862
 Alpha  occ. eigenvalues --   -0.54437  -0.54016  -0.53928  -0.53643  -0.53149
 Alpha  occ. eigenvalues --   -0.52854  -0.52711  -0.52418  -0.52107  -0.51637
 Alpha  occ. eigenvalues --   -0.50993  -0.50500  -0.50381  -0.50124  -0.50109
 Alpha  occ. eigenvalues --   -0.49727  -0.49573  -0.49055  -0.49029  -0.48530
 Alpha  occ. eigenvalues --   -0.48481  -0.48243  -0.47817  -0.47602  -0.47505
 Alpha  occ. eigenvalues --   -0.47338  -0.47324  -0.47118  -0.46708  -0.46586
 Alpha  occ. eigenvalues --   -0.46436  -0.46269  -0.46064  -0.45906  -0.45718
 Alpha  occ. eigenvalues --   -0.45607  -0.45548  -0.45399  -0.45245  -0.45181
 Alpha  occ. eigenvalues --   -0.44773  -0.44626  -0.44390  -0.44050  -0.44042
 Alpha  occ. eigenvalues --   -0.43680  -0.43666  -0.43535  -0.43450  -0.43194
 Alpha  occ. eigenvalues --   -0.43115  -0.43103  -0.43052  -0.42875  -0.42749
 Alpha  occ. eigenvalues --   -0.42575  -0.42425  -0.42404  -0.42293  -0.42149
 Alpha  occ. eigenvalues --   -0.41857  -0.41661  -0.41614  -0.41319  -0.41234
 Alpha  occ. eigenvalues --   -0.41102  -0.41066  -0.40969  -0.40741  -0.40673
 Alpha  occ. eigenvalues --   -0.40550  -0.40334  -0.40200  -0.40090  -0.39861
 Alpha  occ. eigenvalues --   -0.39643  -0.39631  -0.39150  -0.39025  -0.38990
 Alpha  occ. eigenvalues --   -0.38869  -0.38775  -0.38453  -0.38367  -0.38159
 Alpha  occ. eigenvalues --   -0.38110  -0.37884  -0.37844  -0.37733  -0.37660
 Alpha  occ. eigenvalues --   -0.37540  -0.37454  -0.37068  -0.37015  -0.36940
 Alpha  occ. eigenvalues --   -0.36817  -0.36562  -0.36426  -0.36275  -0.36241
 Alpha  occ. eigenvalues --   -0.36116  -0.36028  -0.35779  -0.35567  -0.35440
 Alpha  occ. eigenvalues --   -0.35101  -0.34872  -0.34629  -0.34276  -0.34079
 Alpha  occ. eigenvalues --   -0.33788  -0.33236  -0.33129  -0.32894  -0.32665
 Alpha  occ. eigenvalues --   -0.32566  -0.31940  -0.31920  -0.31505  -0.31429
 Alpha  occ. eigenvalues --   -0.31351  -0.31277  -0.30024  -0.29518  -0.29386
 Alpha  occ. eigenvalues --   -0.29060  -0.29048  -0.28531  -0.27405  -0.26918
 Alpha  occ. eigenvalues --   -0.26551  -0.26207  -0.26116  -0.25869  -0.25730
 Alpha  occ. eigenvalues --   -0.25337  -0.25038  -0.24909  -0.21386  -0.20568
 Alpha  occ. eigenvalues --   -0.19155  -0.18790
 Alpha virt. eigenvalues --   -0.11398  -0.10884  -0.05501  -0.05094  -0.04747
 Alpha virt. eigenvalues --   -0.04174  -0.02625  -0.02230  -0.01422  -0.00072
 Alpha virt. eigenvalues --    0.00211   0.00559   0.00929   0.01285   0.01556

 Mulliken charges:
               1
     1  Mg  12.001003
     2  C    5.990467
     3  C    6.015096
     4  C    6.006704
     5  C    5.985561
     6  N    6.996183
     7  C    6.024466
     8  C    5.991108
     9  C    6.007802
    10  C    5.966182
    11  C    6.003663
    12  C    5.994815
    13  C    6.000495
    14  H    1.002935
    15  N    7.004962
    16  C    5.963200
    17  C    5.984707
    18  C    5.980141
    19  C    5.981244
    20  C    6.003706
    21  C    5.988117
    22  O    7.975332
    23  C    6.003388
    24  N    7.000638
    25  C    5.976654
    26  C    6.002815
    27  C    5.989732
    28  C    6.032935
    29  C    6.002540
    30  C    5.995869
    31  C    6.001825
    32  N    6.997302
    33  C    6.037077
    34  C    6.023151
    35  C    6.005182
    36  C    6.018951
    37  C    5.997218
    38  C    6.016842
    39  O    8.029006
    40  C    6.000610
    41  C    6.004089
    42  O    8.006775
    43  O    8.000428
    44  C    5.998416
    45  H    0.993315
    46  H    0.994566
    47  H    1.006984
    48  H    0.998271
    49  H    0.997496
    50  H    0.988592
    51  H    1.003974
    52  H    0.994242
    53  H    1.008740
    54  H    0.996079
    55  H    1.002904
    56  H    0.996256
    57  H    0.982846
    58  H    0.986698
    59  H    0.986735
    60  H    0.991516
    61  H    0.996550
    62  H    0.987135
    63  H    1.002952
    64  H    1.002835
    65  H    1.001963
    66  H    0.991117
    67  H    1.003129
    68  H    0.995531
    69  H    1.006818
    70  H    1.004839
    71  H    0.999231
    72  H    1.003728
    73  H    1.015155
    74  H    1.022038
    75  H    1.012094
    76  H    1.006736
    77  H    0.999409
    78  H    1.006027
    79  H    1.004165
    80  Mg  12.001343
    81  C    6.004342
    82  C    5.993054
    83  C    5.993047
    84  C    6.006528
    85  N    6.999649
    86  C    5.989110
    87  C    6.004591
    88  C    5.996382
    89  C    6.010783
    90  C    5.999447
    91  C    5.999464
    92  C    6.003243
    93  H    0.995987
    94  N    6.997677
    95  C    6.017280
    96  C    6.011599
    97  C    6.002084
    98  C    6.014798
    99  C    5.999843
   100  C    6.003938
   101  O    8.006855
   102  C    5.999290
   103  N    7.001039
   104  C    6.010394
   105  C    5.997204
   106  C    6.001640
   107  C    5.988109
   108  C    5.999726
   109  C    6.002285
   110  C    6.000013
   111  N    6.999606
   112  C    5.986921
   113  C    5.987419
   114  C    5.997808
   115  C    5.991564
   116  C    5.999814
   117  C    5.992584
   118  O    7.986597
   119  C    6.000250
   120  C    5.999563
   121  O    7.996228
   122  O    8.001083
   123  C    6.001021
   124  H    1.003177
   125  H    1.003200
   126  H    0.997509
   127  H    0.999701
   128  H    1.000435
   129  H    1.005169
   130  H    0.998308
   131  H    1.000592
   132  H    1.000722
   133  H    0.996564
   134  H    0.998688
   135  H    1.001767
   136  H    1.005800
   137  H    1.008267
   138  H    1.008102
   139  H    1.004286
   140  H    1.003703
   141  H    1.004580
   142  H    1.000011
   143  H    1.000568
   144  H    0.998826
   145  H    1.003757
   146  H    1.000069
   147  H    1.001533
   148  H    0.995054
   149  H    0.999968
   150  H    0.997758
   151  H    1.000485
   152  H    0.992724
   153  H    0.993094
   154  H    0.994464
   155  H    0.995845
   156  H    0.998676
   157  H    0.999112
   158  H    0.996284
 Sum of Mulliken charges = 624.00000

 Dipole moment (field-independent basis, Debye):
    X=            -12.0309    Y=             -2.2414    Z=             -5.2557  Tot=             13.3188
 Quadrupole moment (field-independent basis, Debye-Ang):
   XX=           -194.7200   YY=              2.4148   ZZ=             -0.5272
   XY=             20.3233   XZ=            -27.5645   YZ=              2.8591

 Normal termination of Gaussian 16 at Fri Oct 15 11:18:11 2021.
