 Gaussian 16, Revision A.03,
 Gaussian 16:  ES64L-G16RevA.03 25-Dec-2016

 --------------------------------------------------------
 #p PBE1PBE/Def2SVP td=(nstates=5) density=(transition=1)
 --------------------------------------------------------

 --------------------------------
 TDDFT excited states in gaussian
 --------------------------------
 Symbolic Z-matrix:
 Charge =  0 Multiplicity = 1

                         Standard orientation:
 ---------------------------------------------------------------------
 Center     Atomic      Atomic             Coordinates (Angstroms)
 Number     Number       Type             X           Y           Z
 ---------------------------------------------------------------------
      1         12           0      -10.807165    0.532338    0.156669
      2          6           0       -9.137447   -1.951613   -1.465682
      3          6           0      -11.002369   -1.581089    2.899764
      4          6           0      -12.108165    3.108414    1.872427
      5          6           0       -9.968884    2.792784   -2.407202
      6          7           0       -9.903903   -1.453702    0.732632
      7          6           0       -9.299733   -2.267876   -0.155893
      8          6           0       -8.809209   -3.524499    0.465124
      9          6           0       -9.777972   -3.541238    1.804422
     10          6           0      -10.287606   -2.085192    1.846016
     11          6           0      -10.890642   -4.628326    1.732304
     12          6           0       -7.336260   -3.383403    0.814803
     13          6           0       -6.865534   -2.166399    1.738412
     14          1           0       -5.802792   -2.377487    2.809588
     15          7           0      -11.461714    0.746277    2.100195
     16          6           0      -11.592868   -0.290044    3.058900
     17          6           0      -12.338880    0.242794    4.149633
     18          6           0      -12.634574    1.582987    3.933316
     19          6           0      -12.119055    1.894983    2.589635
     20          6           0      -12.654175   -0.676138    5.312363
     21          6           0      -13.279541    2.550816    4.896411
     22          8           0      -13.592881    2.075505    6.016284
     23          6           0      -13.370519    3.962825    4.732127
     24          7           0      -10.803420    2.698062   -0.148093
     25          6           0      -11.476375    3.529786    0.697882
     26          6           0      -11.433857    4.993436    0.197262
     27          6           0      -10.730552    4.855153   -1.194940
     28          6           0      -10.408503    3.370862   -1.234481
     29          6           0      -12.795188    5.653253    0.142735
     30          6           0       -9.428774    5.816093   -1.292429
     31          6           0       -9.278934    6.530594   -2.640397
     32          7           0       -9.751827    0.511507   -1.658638
     33          6           0       -9.660016    1.406519   -2.676069
     34          6           0       -9.153435    0.692472   -3.816413
     35          6           0       -8.946546   -0.682864   -3.451528
     36          6           0       -9.306139   -0.717850   -2.114397
     37          6           0       -8.657255    1.320155   -5.073826
     38          6           0       -8.460933   -1.975616   -3.813488
     39          8           0       -8.053814   -2.280240   -4.941680
     40          6           0       -8.600969   -2.834160   -2.570040
     41          6           0       -9.479682   -3.985882   -2.888152
     42          8           0       -9.176754   -4.728440   -3.801285
     43          8           0      -10.530877   -4.149484   -2.038563
     44          6           0      -11.392629   -5.297139   -2.328714
     45          1           0      -11.305735   -2.318896    3.645304
     46          1           0      -12.740169    3.863298    2.344483
     47          1           0       -9.833945    3.386058   -3.314348
     48          1           0       -8.883973   -4.447000   -0.110727
     49          1           0       -9.225691   -3.887931    2.678828
     50          1           0      -10.800357   -5.309822    2.577394
     51          1           0      -10.711218   -5.202162    0.822729
     52          1           0      -11.907557   -4.237147    1.680820
     53          1           0       -6.782213   -3.422504   -0.123295
     54          1           0       -7.101682   -4.371617    1.210230
     55          1           0       -7.650636   -1.681899    2.319057
     56          1           0       -6.411460   -1.500582    1.005092
     57          1           0      -11.777186   -0.634718    5.958605
     58          1           0      -12.752550   -1.694939    4.939657
     59          1           0      -13.551921   -0.442519    5.885491
     60          1           0      -13.361737    4.483691    5.690103
     61          1           0      -14.180571    4.274564    4.071523
     62          1           0      -12.410872    4.251481    4.305492
     63          1           0      -10.776300    5.479789    0.918651
     64          1           0      -11.461018    5.019334   -1.986897
     65          1           0      -13.598980    5.047375    0.560133
     66          1           0      -13.163798    6.115618   -0.772535
     67          1           0      -12.714961    6.417035    0.916787
     68          1           0       -8.484500    5.298774   -1.122313
     69          1           0       -9.409617    6.561093   -0.497199
     70          1           0       -9.519851    7.582892   -2.492102
     71          1           0      -10.043708    6.145968   -3.315481
     72          1           0       -8.277178    6.441084   -3.060888
     73          1           0       -9.393743    1.777716   -5.733276
     74          1           0       -8.123157    0.525271   -5.595766
     75          1           0       -7.958869    2.133944   -4.878323
     76          1           0       -7.599363   -3.199114   -2.340807
     77          1           0      -10.770219   -6.192264   -2.311975
     78          1           0      -11.953585   -5.194805   -3.257807
     79          1           0      -12.223792   -5.340733   -1.625042
     80         12           0       10.722787    0.426362    0.414240
     81          6           0        7.934996   -1.303338   -0.640460
     82          6           0       10.844286    1.855434   -2.692211
     83          6           0       13.616516    1.902316    1.337441
     84          6           0       10.836406   -1.509896    3.299916
     85          7           0        9.529040    0.125162   -1.494992
     86          6           0        8.387456   -0.433658   -1.621509
     87          6           0        7.639681   -0.235830   -3.039281
     88          6           0        8.785476    0.559397   -3.781156
     89          6           0        9.862505    0.822607   -2.624870
     90          6           0        9.524983   -0.251924   -4.969422
     91          6           0        6.252572    0.539086   -2.978106
     92          6           0        5.155637    0.158667   -4.034815
     93          1           0        5.592034   -0.716116   -5.171009
     94          7           0       11.977903    1.725359   -0.479059
     95          6           0       11.831573    2.308869   -1.798634
     96          6           0       12.922184    3.261639   -1.977747
     97          6           0       13.797848    3.204331   -0.864922
     98          6           0       13.125009    2.285642    0.081080
     99          6           0       12.902617    4.084976   -3.215075
    100          6           0       15.097089    3.982246   -0.550140
    101          8           0       15.819990    3.785654    0.380979
    102          6           0       15.546931    4.966178   -1.649043
    103          7           0       12.152175    0.191876    2.027701
    104          6           0       13.237377    0.877135    2.203861
    105          6           0       14.097052    0.305706    3.366902
    106          6           0       13.154837   -0.707527    4.060022
    107          6           0       11.943491   -0.686790    3.098269
    108          6           0       15.406000   -0.316273    2.835591
    109          6           0       12.840515   -0.317944    5.537045
    110          6           0       14.010661   -0.494656    6.518223
    111          7           0        9.620202   -1.119326    1.221607
    112          6           0        9.740223   -1.729253    2.457659
    113          6           0        8.627385   -2.634005    2.577821
    114          6           0        7.864323   -2.571710    1.373509
    115          6           0        8.547606   -1.577730    0.621230
    116          6           0        8.388475   -3.486281    3.684165
    117          6           0        6.702945   -2.992515    0.656607
    118          8           0        5.867162   -3.892054    0.969461
    119          6           0        6.789048   -2.254161   -0.735244
    120          6           0        6.857068   -3.273342   -1.760636
    121          8           0        7.886597   -3.862856   -2.088195
    122          8           0        5.569428   -3.539397   -2.151434
    123          6           0        5.459532   -4.740296   -3.006352
    124          1           0       10.923803    2.307830   -3.682439
    125          1           0       14.539223    2.436000    1.577456
    126          1           0       10.878010   -2.040861    4.253710
    127          1           0        7.573230   -1.250484   -3.432741
    128          1           0        8.381525    1.467314   -4.228613
    129          1           0        9.337607   -1.315162   -4.816705
    130          1           0       10.596677   -0.056599   -4.935082
    131          1           0        9.220454   -0.004187   -5.986799
    132          1           0        6.534347    1.577120   -3.152697
    133          1           0        5.821067    0.681818   -1.986786
    134          1           0        4.667398    1.019791   -4.490932
    135          1           0        4.389643   -0.444614   -3.547484
    136          1           0       13.364854    3.546083   -4.042633
    137          1           0       13.262981    5.101486   -3.056496
    138          1           0       11.854803    4.244310   -3.468523
    139          1           0       14.958594    5.882417   -1.707690
    140          1           0       15.451770    4.346798   -2.540330
    141          1           0       16.594814    5.263413   -1.620662
    142          1           0       14.256098    1.184217    3.991766
    143          1           0       13.588093   -1.706081    4.003222
    144          1           0       15.384384   -0.650728    1.798165
    145          1           0       15.765349   -1.232707    3.304869
    146          1           0       16.159394    0.463194    2.948930
    147          1           0       12.046274   -0.964567    5.907510
    148          1           0       12.483283    0.711588    5.578202
    149          1           0       14.887254   -0.778924    5.936073
    150          1           0       13.849993   -1.405680    7.094892
    151          1           0       14.219270    0.295189    7.239436
    152          1           0        8.564554   -2.855495    4.555575
    153          1           0        9.051380   -4.345518    3.784673
    154          1           0        7.392987   -3.918675    3.578319
    155          1           0        5.825335   -1.748365   -0.800193
    156          1           0        5.727018   -5.586247   -2.372544
    157          1           0        6.021385   -4.633106   -3.933625
    158          1           0        4.410077   -4.843866   -3.282509
 ---------------------------------------------------------------------

 SCF Done:  E(RPBE1PBE) =  -4067.39023435     A.U. after   17 cycles

 Excitation energies and oscillator strengths:

 Excited State   1:      Singlet-A      1.8006 eV  688.57 nm  f=0.0000  <S**2>=0.000
     312 -> 313        0.70710
 This state for optimization and/or second-order correction.
 Total Energy, E(TD-HF/TD-DFT) =  -4067.32406294
 Copying the excited state density for this state as the 1-particle RhoCI density.

 Excited State   2:      Singlet-A      1.8906 eV  655.79 nm  f=0.3861  <S**2>=0.000
     309 -> 315       -0.16958
     311 -> 313        0.69172
     311 <- 313       -0.10815

 Excited State   3:      Singlet-A      1.9095 eV  649.31 nm  f=0.3580  <S**2>=0.000
     310 -> 316       -0.19428
     312 -> 314        0.68506

 Excited State   4:      Singlet-A      2.1055 eV  588.87 nm  f=0.0000  <S**2>=0.000
     311 -> 314        0.70709

 Excited State   5:      Singlet-A      2.2076 eV  561.61 nm  f=0.1273  <S**2>=0.000
     309 -> 313        0.56440
     310 -> 314        0.34107
     311 -> 315        0.18807
     312 -> 316        0.13031

 The electronic state is 1-A.
 Alpha  occ. eigenvalues --  -46.92441 -46.91754 -19.27013 -19.25352 -19.20143
 Alpha  occ. eigenvalues --  -19.19714 -19.19447 -19.18653 -19.18597 -19.18222
 Alpha  occ. eigenvalues --  -14.41544 -14.41537 -14.41445 -14.41019 -14.39353
 Alpha  occ. eigenvalues --  -14.39268 -14.38604 -14.38352 -10.36474 -10.35452
 Alpha  occ. eigenvalues --  -10.33196 -10.31976 -10.31793 -10.31698 -10.29933
 Alpha  occ. eigenvalues --  -10.29392 -10.29215 -10.28699 -10.28653 -10.28360
 Alpha  occ. eigenvalues --  -10.28342 -10.28304 -10.28142 -10.28118 -10.28052
 Alpha  occ. eigenvalues --  -10.27984 -10.27930 -10.27838 -10.27109 -10.26829
 Alpha  occ. eigenvalues --  -10.26781 -10.26679 -10.26655 -10.26572 -10.26483
 Alpha  occ. eigenvalues --  -10.26250 -10.26205 -10.26203 -10.26088 -10.26036
 Alpha  occ. eigenvalues --  -10.25947 -10.25814 -10.25665 -10.25660 -10.25548
 Alpha  occ. eigenvalues --  -10.25395 -10.25345 -10.25284 -10.25232 -10.24942
 Alpha  occ. eigenvalues --  -10.24911 -10.24878 -10.24858 -10.24834 -10.24817
 Alpha  occ. eigenvalues --  -10.24708 -10.24679 -10.24640 -10.24462 -10.24380
 Alpha  occ. eigenvalues --  -10.24337 -10.24192 -10.23975 -10.23729 -10.23637
 Alpha  occ. eigenvalues --  -10.23507 -10.23382 -10.23090 -10.23079 -10.22921
 Alpha  occ. eigenvalues --  -10.22821 -10.22808 -10.22557 -10.22435 -10.22339
 Alpha  occ. eigenvalues --  -10.22158  -3.14477  -3.13945  -1.87292  -1.86869
 Alpha  occ. eigenvalues --   -1.86779  -1.86682  -1.86324  -1.86172  -1.12168
 Alpha  occ. eigenvalues --   -1.10178  -1.07063  -1.03861  -1.02928  -1.02850
 Alpha  occ. eigenvalues --   -1.01940  -1.01521  -0.99946  -0.99523  -0.99117
 Alpha  occ. eigenvalues --   -0.98924  -0.98212  -0.97521  -0.95948  -0.95279
 Alpha  occ. eigenvalues --   -0.88505  -0.86880  -0.83558  -0.83495  -0.83304
 Alpha  occ. eigenvalues --   -0.82995  -0.82536  -0.82046  -0.81970  -0.81754
 Alpha  occ. eigenvalues --   -0.81252  -0.81043  -0.80490  -0.80154  -0.79364
 Alpha  occ. eigenvalues --   -0.78435  -0.78133  -0.77674  -0.77479  -0.77016
 Alpha  occ. eigenvalues --   -0.76508  -0.75753  -0.75748  -0.75293  -0.75224
 Alpha  occ. eigenvalues --   -0.74521  -0.72952  -0.72706  -0.72217  -0.71654
 Alpha  occ. eigenvalues --   -0.71367  -0.70591  -0.70382  -0.69960  -0.69246
 Alpha  occ. eigenvalues --   -0.69116  -0.66974  -0.66640  -0.66517  -0.65838
 Alpha  occ. eigenvalues --   -0.64363  -0.63703  -0.63603  -0.63226  -0.63067
 Alpha  occ. eigenvalues --   -0.62588  -0.61507  -0.61284  -0.60957  -0.60114
 Alpha  occ. eigenvalues --   -0.59789  -0.59753  -0.59713  -0.59239  -0.58858
 Alpha  occ. eigenvalues --   -0.58570  -0.58371  -0.56055  -0.54754  -0.54423
 Alpha  occ. eigenvalues --   -0.54193  -0.53909  -0.53814  -0.53622  -0.53186
 Alpha  occ. eigenvalues --   -0.52967  -0.52831  -0.52646  -0.52395  -0.52080
 Alpha  occ. eigenvalues --   -0.51257  -0.51111  -0.50486  -0.50389  -0.50088
 Alpha  occ. eigenvalues --   -0.49709  -0.49688  -0.49100  -0.49027  -0.48839
 Alpha  occ. eigenvalues --   -0.48518  -0.48395  -0.47790  -0.47768  -0.47668
 Alpha  occ. eigenvalues --   -0.47566  -0.47310  -0.47102  -0.46930  -0.46684
 Alpha  occ. eigenvalues --   -0.46451  -0.46421  -0.46417  -0.45961  -0.45880
 Alpha  occ. eigenvalues --   -0.45759  -0.45523  -0.45513  -0.45378  -0.45224
 Alpha  occ. eigenvalues --   -0.44761  -0.44717  -0.44169  -0.44035  -0.44017
 Alpha  occ. eigenvalues --   -0.43769  -0.43635  -0.43512  -0.43337  -0.43328
 Alpha  occ. eigenvalues --   -0.43150  -0.43087  -0.43041  -0.42723  -0.42713
 Alpha  occ. eigenvalues --   -0.42401  -0.42370  -0.42232  -0.41729  -0.41588
 Alpha  occ. eigenvalues --   -0.41460  -0.41214  -0.41104  -0.41079  -0.40981
 Alpha  occ. eigenvalues --   -0.40954  -0.40721  -0.40656  -0.40505  -0.40399
 Alpha  occ. eigenvalues --   -0.40318  -0.39932  -0.39835  -0.39623  -0.39542
 Alpha  occ. eigenvalues --   -0.39459  -0.39413  -0.39264  -0.39140  -0.39008
 Alpha  occ. eigenvalues --   -0.38836  -0.38437  -0.38377  -0.38292  -0.38143
 Alpha  occ. eigenvalues --   -0.37829  -0.37713  -0.37627  -0.37525  -0.37439
 Alpha  occ. eigenvalues --   -0.37358  -0.37135  -0.37075  -0.37030  -0.36744
 Alpha  occ. eigenvalues --   -0.36623  -0.36533  -0.36387  -0.36213  -0.36036
 Alpha  occ. eigenvalues --   -0.36010  -0.35964  -0.35767  -0.35426  -0.35243
 Alpha  occ. eigenvalues --   -0.35072  -0.34591  -0.34502  -0.34258  -0.34103
 Alpha  occ. eigenvalues --   -0.33607  -0.33109  -0.32856  -0.32764  -0.32635
 Alpha  occ. eigenvalues --   -0.32538  -0.32422  -0.31912  -0.31902  -0.31381
 Alpha  occ. eigenvalues --   -0.31331  -0.30979  -0.29733  -0.29500  -0.29151
 Alpha  occ. eigenvalues --   -0.29031  -0.28526  -0.28492  -0.27338  -0.26902
 Alpha  occ. eigenvalues --   -0.26196  -0.25714  -0.25557  -0.25402  -0.25330
 Alpha  occ. eigenvalues --   -0.25316  -0.24892  -0.24781  -0.21169  -0.20552
 Alpha  occ. eigenvalues --   -0.19225  -0.18774
 Alpha virt. eigenvalues --   -0.11541  -0.10868  -0.05379  -0.05077  -0.04157
 Alpha virt. eigenvalues --   -0.04005  -0.02326  -0.02214  -0.01350  -0.00058
 Alpha virt. eigenvalues --    0.00562   0.00963   0.01357   0.01581   0.01964

 Mulliken charges:
               1
     1  Mg  12.000000
     2  C    6.000000
     3  C    6.000000
     4  C    6.000000
     5  C    6.000000
     6  N    7.000000
     7  C    6.000000
     8  C    6.000000
     9  C    6.000000
    10  C    6.000000
    11  C    6.000000
    12  C    6.000000
    13  C    6.000000
    14  H    1.000000
    15  N    7.000000
    16  C    6.000000
    17  C    6.000000
    18  C    6.000000
    19  C    6.000000
    20  C    6.000000
    21  C    6.000000
    22  O    8.000000
    23  C    6.000000
    24  N    7.000000
    25  C    6.000000
    26  C    6.000000
    27  C    6.000000
    28  C    6.000000
    29  C    6.000000
    30  C    6.000000
    31  C    6.000000
    32  N    7.000000
    33  C    6.000000
    34  C    6.000000
    35  C    6.000000
    36  C    6.000000
    37  C    6.000000
    38  C    6.000000
    39  O    8.000000
    40  C    6.000000
    41  C    6.000000
    42  O    8.000000
    43  O    8.000000
    44  C    6.000000
    45  H    1.000000
    46  H    1.000000
    47  H    1.000000
    48  H    1.000000
    49  H    1.000000
    50  H    1.000000
    51  H    1.000000
    52  H    1.000000
    53  H    1.000000
    54  H    1.000000
    55  H    1.000000
    56  H    1.000000
    57  H    1.000000
    58  H    1.000000
    59  H    1.000000
    60  H    1.000000
    61  H    1.000000
    62  H    1.000000
    63  H    1.000000
    64  H    1.000000
    65  H    1.000000
    66  H    1.000000
    67  H    1.000000
    68  H    1.000000
    69  H    1.000000
    70  H    1.000000
    71  H    1.000000
    72  H    1.000000
    73  H    1.000000
    74  H    1.000000
    75  H    1.000000
    76  H    1.000000
    77  H    1.000000
    78  H    1.000000
    79  H    1.000000
    80  Mg  12.000000
    81  C    6.000000
    82  C    6.000000
    83  C    6.000000
    84  C    6.000000
    85  N    7.000000
    86  C    6.000000
    87  C    6.000000
    88  C    6.000000
    89  C    6.000000
    90  C    6.000000
    91  C    6.000000
    92  C    6.000000
    93  H    1.000000
    94  N    7.000000
    95  C    6.000000
    96  C    6.000000
    97  C    6.000000
    98  C    6.000000
    99  C    6.000000
   100  C    6.000000
   101  O    8.000000
   102  C    6.000000
   103  N    7.000000
   104  C    6.000000
   105  C    6.000000
   106  C    6.000000
   107  C    6.000000
   108  C    6.000000
   109  C    6.000000
   110  C    6.000000
   111  N    7.000000
   112  C    6.000000
   113  C    6.000000
   114  C    6.000000
   115  C    6.000000
   116  C    6.000000
   117  C    6.000000
   118  O    8.000000
   119  C    6.000000
   120  C    6.000000
   121  O    8.000000
   122  O    8.000000
   123  C    6.000000
   124  H    1.000000
   125  H    1.000000
   126  H    1.000000
   127  H    1.000000
   128  H    1.000000
   129  H    1.000000
   130  H    1.000000
   131  H    1.000000
   132  H    1.000000
   133  H    1.000000
   134  H    1.000000
   135  H    1.000000
   136  H    1.000000
   137  H    1.000000
   138  H    1.000000
   139  H    1.000000
   140  H    1.000000
   141  H    1.000000
   142  H    1.000000
   143  H    1.000000
   144  H    1.000000
   145  H    1.000000
   146  H    1.000000
   147  H    1.000000
   148  H    1.000000
   149  H    1.000000
   150  H    1.000000
   151  H    1.000000
   152  H    1.000000
   153  H    1.000000
   154  H    1.000000
   155  H    1.000000
   156  H    1.000000
   157  H    1.000000
   158  H    1.000000
 Sum of Mulliken charges = 624.00000

 Dipole moment (field-independent basis, Debye):
    X=             -0.0000    Y=              0.0000    Z=              0.0000  Tot=              0.0000
 Quadrupole moment (field-independent basis, Debye-Ang):
   XX=              0.0000   YY=              0.0000   ZZ=              0.0000
   XY=              0.0000   XZ=             -0.0000   YZ=              0.0000

 Normal termination of Gaussian 16 at Fri Oct 15 00:18:59 2021.
