 Gaussian 16, Revision A.03,
 Gaussian 16:  ES64L-G16RevA.03 25-Dec-2016

 --------------------------------------------------------
 #p PBE1PBE/Def2SVP td=(nstates=5) density=(transition=1)
 --------------------------------------------------------

 --------------------------------
 TDDFT excited states in gaussian
 --------------------------------
 Symbolic Z-matrix:
 Charge =  0 Multiplicity = 1

                         Standard orientation:
 ---------------------------------------------------------------------
 Center     Atomic      Atomic             Coordinates (Angstroms)
 Number     Number       Type             X           Y           Z
 ---------------------------------------------------------------------
      1         12           0       -8.896404   -1.088403    0.576916
      2          6           0      -10.014590    2.174030   -0.218528
      3          6           0       -6.969998    0.265230    2.994745
      4          6           0       -7.794152   -4.112260    1.176612
      5          6           0      -10.420940   -2.178419   -2.481760
      6          7           0       -8.429552    1.033244    1.273020
      7          6           0       -9.216368    2.124186    0.943563
      8          6           0       -8.904536    3.195590    1.931827
      9          6           0       -7.574618    2.773951    2.557411
     10          6           0       -7.626529    1.246334    2.304836
     11          6           0       -6.361498    3.422029    1.790572
     12          6           0      -10.028227    3.495571    3.063162
     13          6           0      -10.378496    4.962317    3.460433
     14          1           0       -9.183658    5.903434    3.789251
     15          7           0       -7.529693   -1.795148    1.929565
     16          6           0       -6.887477   -1.092452    2.815485
     17          6           0       -5.992080   -1.995102    3.559647
     18          6           0       -6.353462   -3.331603    3.210487
     19          6           0       -7.250492   -3.130035    2.037305
     20          6           0       -4.869075   -1.629519    4.597248
     21          6           0       -5.954572   -4.681564    3.805764
     22          8           0       -6.262820   -5.783661    3.313298
     23          6           0       -4.989181   -4.698157    4.893976
     24          7           0       -8.965880   -2.888367   -0.652286
     25          6           0       -8.504503   -4.071029   -0.080254
     26          6           0       -8.989234   -5.286717   -0.960815
     27          6           0       -9.919930   -4.620713   -2.004758
     28          6           0       -9.805333   -3.129251   -1.681789
     29          6           0       -7.835361   -6.138179   -1.491062
     30          6           0      -11.362054   -5.180707   -2.091393
     31          6           0      -11.997742   -5.320191   -3.494318
     32          7           0       -9.978736   -0.235057   -1.047488
     33          6           0      -10.483619   -0.773528   -2.226827
     34          6           0      -11.268757    0.235177   -2.891683
     35          6           0      -11.063827    1.412740   -2.171062
     36          6           0      -10.275996    1.102501   -1.028391
     37          6           0      -12.087365    0.064355   -4.019057
     38          6           0      -11.413206    2.836791   -2.061473
     39          8           0      -12.129172    3.568584   -2.726495
     40          6           0      -10.750914    3.379064   -0.752775
     41          6           0       -9.873825    4.554713   -1.144954
     42          8           0       -8.743935    4.645065   -1.568970
     43          8           0      -10.657565    5.615356   -0.792888
     44          6           0      -10.015519    6.948674   -0.706140
     45          1           0       -6.409471    0.677104    3.836998
     46          1           0       -7.570390   -5.119480    1.534053
     47          1           0      -11.071566   -2.530533   -3.284403
     48          1           0       -8.758958    4.195749    1.522913
     49          1           0       -7.566451    2.881922    3.641746
     50          1           0       -5.503675    3.640945    2.425534
     51          1           0       -6.585016    4.410770    1.389159
     52          1           0       -6.057252    2.669575    1.063812
     53          1           0       -9.816797    2.895455    3.947568
     54          1           0      -10.978438    3.056523    2.756868
     55          1           0      -10.902478    4.822714    4.406674
     56          1           0      -10.979234    5.281442    2.608711
     57          1           0       -5.077363   -1.910643    5.629320
     58          1           0       -4.727469   -0.549827    4.541549
     59          1           0       -3.921819   -2.151007    4.459669
     60          1           0       -5.318044   -4.062382    5.716433
     61          1           0       -4.009433   -4.368886    4.547658
     62          1           0       -5.026700   -5.695268    5.331591
     63          1           0       -9.660826   -5.864936   -0.326030
     64          1           0       -9.457151   -4.630272   -2.991405
     65          1           0       -7.510865   -5.738722   -2.452479
     66          1           0       -8.100170   -7.170569   -1.717184
     67          1           0       -6.952520   -5.958516   -0.878422
     68          1           0      -12.074591   -4.675404   -1.439609
     69          1           0      -11.420169   -6.175804   -1.648324
     70          1           0      -12.609272   -4.423703   -3.597540
     71          1           0      -12.667007   -6.176968   -3.409757
     72          1           0      -11.220168   -5.391352   -4.254360
     73          1           0      -12.337324    0.919558   -4.646546
     74          1           0      -12.990302   -0.440850   -3.674725
     75          1           0      -11.527123   -0.594060   -4.681938
     76          1           0      -11.520549    3.680141   -0.042299
     77          1           0      -10.412620    7.384199    0.210324
     78          1           0      -10.234018    7.642575   -1.517446
     79          1           0       -8.936982    6.835835   -0.599198
     80         12           0        9.118364   -0.348720   -0.102871
     81          6           0        7.386367    2.663025   -0.109888
     82          6           0       11.953389    1.415097    0.687528
     83          6           0       10.906515   -3.291035   -0.348228
     84          6           0        6.355489   -1.994635   -1.447516
     85          7           0        9.565603    1.779899    0.337781
     86          6           0        8.709639    2.814786    0.388408
     87          6           0        9.312932    4.130791    0.932281
     88          6           0       10.858844    3.765567    0.957482
     89          6           0       10.837411    2.203606    0.595407
     90          6           0       11.618119    4.680886   -0.068023
     91          6           0        8.658373    4.385778    2.385822
     92          6           0        7.984026    5.770971    2.611866
     93          1           0        8.467266    6.888126    1.617791
     94          7           0       11.139891   -0.901207    0.054721
     95          6           0       12.147291   -0.011065    0.480741
     96          6           0       13.349269   -0.768606    0.756976
     97          6           0       13.092388   -2.103888    0.421188
     98          6           0       11.622190   -2.180410    0.086176
     99          6           0       14.689320   -0.066895    1.019733
    100          6           0       14.081842   -3.299216    0.429309
    101          8           0       13.792346   -4.471394    0.124681
    102          6           0       15.517798   -3.049107    0.921356
    103          7           0        8.663898   -2.323071   -0.884138
    104          6           0        9.616954   -3.383021   -0.795725
    105          6           0        9.083857   -4.644306   -1.506910
    106          6           0        7.525892   -4.292175   -1.594811
    107          6           0        7.498203   -2.781200   -1.244672
    108          6           0        9.840780   -4.850644   -2.808534
    109          6           0        6.681104   -5.124106   -0.540167
    110          6           0        6.978599   -5.204586    0.995934
    111          7           0        7.291103    0.182008   -0.742036
    112          6           0        6.250997   -0.575411   -1.289418
    113          6           0        5.131274    0.276047   -1.528955
    114          6           0        5.497210    1.522473   -1.053792
    115          6           0        6.860660    1.464346   -0.673046
    116          6           0        3.829903   -0.085293   -2.215418
    117          6           0        5.037539    2.840682   -0.862336
    118          8           0        3.997889    3.298656   -1.215709
    119          6           0        6.294015    3.658721   -0.348983
    120          6           0        6.635173    4.627150   -1.447592
    121          8           0        7.585636    4.502284   -2.191314
    122          8           0        5.693812    5.578389   -1.449685
    123          6           0        5.630964    6.303857   -2.694824
    124          1           0       12.843608    1.953893    1.017955
    125          1           0       11.528946   -4.136685   -0.645851
    126          1           0        5.484627   -2.493198   -1.879410
    127          1           0        9.106519    5.017445    0.333139
    128          1           0       11.334860    3.854341    1.934292
    129          1           0       12.360207    4.170506   -0.682418
    130          1           0       12.074214    5.373617    0.638660
    131          1           0       10.856450    5.233461   -0.617619
    132          1           0        9.418472    4.138389    3.126572
    133          1           0        7.895356    3.618761    2.520700
    134          1           0        8.286264    5.980683    3.637340
    135          1           0        6.895200    5.765370    2.571218
    136          1           0       15.393736   -0.436834    0.274292
    137          1           0       15.079251   -0.385522    1.987379
    138          1           0       14.556681    1.013710    0.976819
    139          1           0       16.023838   -2.482932    0.138296
    140          1           0       15.997429   -4.027730    0.929891
    141          1           0       15.494405   -2.710724    1.956948
    142          1           0        9.195151   -5.441254   -0.771085
    143          1           0        7.131043   -4.603200   -2.561328
    144          1           0       10.857091   -4.457371   -2.779966
    145          1           0        9.317824   -4.371871   -3.636105
    146          1           0        9.972005   -5.912649   -3.014941
    147          1           0        6.595594   -6.142995   -0.917995
    148          1           0        5.717026   -4.615866   -0.560448
    149          1           0        7.678227   -6.023309    1.164801
    150          1           0        6.017124   -5.419579    1.463712
    151          1           0        7.285805   -4.274710    1.475598
    152          1           0        3.295607   -0.880455   -1.695157
    153          1           0        4.145798   -0.443518   -3.194996
    154          1           0        3.061369    0.688913   -2.209814
    155          1           0        6.174523    4.262453    0.550825
    156          1           0        4.634441    6.666877   -2.945242
    157          1           0        6.109105    5.930161   -3.600160
    158          1           0        6.196235    7.235992   -2.682114
 ---------------------------------------------------------------------

 SCF Done:  E(RPBE1PBE) =  -4067.37525402     A.U. after   16 cycles

 Excitation energies and oscillator strengths:

 Excited State   1:      Singlet-A      1.8553 eV  668.27 nm  f=0.4451  <S**2>=0.000
     310 -> 316       -0.16883
     311 -> 313        0.68998
     311 <- 313       -0.10714
 This state for optimization and/or second-order correction.
 Total Energy, E(TD-HF/TD-DFT) =  -4067.30707333
 Copying the excited state density for this state as the 1-particle RhoCI density.

 Excited State   2:      Singlet-A      1.8633 eV  665.39 nm  f=0.0000  <S**2>=0.000
     312 -> 313        0.70706

 Excited State   3:      Singlet-A      1.8848 eV  657.82 nm  f=0.3169  <S**2>=0.000
     309 -> 315       -0.17540
     312 -> 314        0.68535

 Excited State   4:      Singlet-A      1.9280 eV  643.08 nm  f=0.0000  <S**2>=0.000
     311 -> 314        0.70707

 Excited State   5:      Singlet-A      2.2284 eV  556.38 nm  f=0.1122  <S**2>=0.000
     310 -> 313        0.65626
     311 -> 316        0.24650

 The electronic state is 1-A.
 Alpha  occ. eigenvalues --  -46.92700 -46.91461 -19.26662 -19.24999 -19.20190
 Alpha  occ. eigenvalues --  -19.20151 -19.19391 -19.19323 -19.18987 -19.18877
 Alpha  occ. eigenvalues --  -14.41699 -14.41266 -14.40922 -14.40875 -14.39389
 Alpha  occ. eigenvalues --  -14.39304 -14.38631 -14.38623 -10.36184 -10.36184
 Alpha  occ. eigenvalues --  -10.32542 -10.32430 -10.31949 -10.31717 -10.29410
 Alpha  occ. eigenvalues --  -10.29178 -10.28629 -10.28524 -10.28454 -10.28353
 Alpha  occ. eigenvalues --  -10.28222 -10.28194 -10.28074 -10.27722 -10.27659
 Alpha  occ. eigenvalues --  -10.27654 -10.27607 -10.27550 -10.27511 -10.27388
 Alpha  occ. eigenvalues --  -10.27326 -10.27306 -10.27035 -10.26362 -10.26333
 Alpha  occ. eigenvalues --  -10.26263 -10.25892 -10.25672 -10.25647 -10.25599
 Alpha  occ. eigenvalues --  -10.25571 -10.25513 -10.25504 -10.25322 -10.25319
 Alpha  occ. eigenvalues --  -10.25310 -10.25282 -10.25264 -10.25210 -10.25137
 Alpha  occ. eigenvalues --  -10.25012 -10.24946 -10.24903 -10.24831 -10.24713
 Alpha  occ. eigenvalues --  -10.24702 -10.24334 -10.24268 -10.24252 -10.24176
 Alpha  occ. eigenvalues --  -10.24138 -10.24004 -10.23730 -10.23460 -10.23328
 Alpha  occ. eigenvalues --  -10.23256 -10.23245 -10.23188 -10.23088 -10.23070
 Alpha  occ. eigenvalues --  -10.23007 -10.22906 -10.22761 -10.22662 -10.22535
 Alpha  occ. eigenvalues --  -10.22118  -3.14672  -3.13642  -1.87509  -1.87047
 Alpha  occ. eigenvalues --   -1.86886  -1.86483  -1.85993  -1.85887  -1.12808
 Alpha  occ. eigenvalues --   -1.10830  -1.06555  -1.04308  -1.03980  -1.03752
 Alpha  occ. eigenvalues --   -1.03193  -1.02541  -0.99744  -0.98670  -0.98510
 Alpha  occ. eigenvalues --   -0.97877  -0.97651  -0.97274  -0.96711  -0.95975
 Alpha  occ. eigenvalues --   -0.87104  -0.86996  -0.83147  -0.82920  -0.82732
 Alpha  occ. eigenvalues --   -0.82343  -0.82251  -0.82013  -0.81860  -0.81305
 Alpha  occ. eigenvalues --   -0.81296  -0.81132  -0.80794  -0.80352  -0.78465
 Alpha  occ. eigenvalues --   -0.78168  -0.77854  -0.77615  -0.76921  -0.76558
 Alpha  occ. eigenvalues --   -0.76526  -0.75799  -0.75459  -0.75175  -0.74932
 Alpha  occ. eigenvalues --   -0.74180  -0.72617  -0.72038  -0.71717  -0.71361
 Alpha  occ. eigenvalues --   -0.71292  -0.70996  -0.70118  -0.70078  -0.69417
 Alpha  occ. eigenvalues --   -0.69331  -0.67325  -0.66946  -0.66224  -0.65623
 Alpha  occ. eigenvalues --   -0.63216  -0.63185  -0.63081  -0.63051  -0.62312
 Alpha  occ. eigenvalues --   -0.62151  -0.61677  -0.60851  -0.60245  -0.59931
 Alpha  occ. eigenvalues --   -0.59805  -0.59384  -0.59055  -0.59002  -0.58855
 Alpha  occ. eigenvalues --   -0.58371  -0.56890  -0.56483  -0.54954  -0.54425
 Alpha  occ. eigenvalues --   -0.54083  -0.53905  -0.53782  -0.53525  -0.52908
 Alpha  occ. eigenvalues --   -0.52730  -0.52573  -0.52343  -0.52034  -0.51807
 Alpha  occ. eigenvalues --   -0.50712  -0.50664  -0.50399  -0.50282  -0.49687
 Alpha  occ. eigenvalues --   -0.49483  -0.49011  -0.48963  -0.48479  -0.48235
 Alpha  occ. eigenvalues --   -0.48084  -0.47787  -0.47762  -0.47743  -0.47586
 Alpha  occ. eigenvalues --   -0.47369  -0.47001  -0.46948  -0.46792  -0.46630
 Alpha  occ. eigenvalues --   -0.46502  -0.46365  -0.46227  -0.46178  -0.46094
 Alpha  occ. eigenvalues --   -0.45841  -0.45556  -0.45363  -0.45058  -0.44917
 Alpha  occ. eigenvalues --   -0.44567  -0.44407  -0.44388  -0.44111  -0.44027
 Alpha  occ. eigenvalues --   -0.43901  -0.43806  -0.43519  -0.43511  -0.43367
 Alpha  occ. eigenvalues --   -0.43263  -0.42949  -0.42824  -0.42584  -0.42432
 Alpha  occ. eigenvalues --   -0.42320  -0.42156  -0.42031  -0.41765  -0.41664
 Alpha  occ. eigenvalues --   -0.41421  -0.41331  -0.41320  -0.41012  -0.40959
 Alpha  occ. eigenvalues --   -0.40919  -0.40589  -0.40400  -0.40273  -0.40245
 Alpha  occ. eigenvalues --   -0.39720  -0.39714  -0.39646  -0.39594  -0.39485
 Alpha  occ. eigenvalues --   -0.39444  -0.39218  -0.39146  -0.38918  -0.38761
 Alpha  occ. eigenvalues --   -0.38606  -0.38445  -0.38361  -0.38348  -0.38122
 Alpha  occ. eigenvalues --   -0.37857  -0.37785  -0.37743  -0.37736  -0.37495
 Alpha  occ. eigenvalues --   -0.37465  -0.37237  -0.37121  -0.36972  -0.36855
 Alpha  occ. eigenvalues --   -0.36650  -0.36617  -0.36325  -0.36202  -0.36112
 Alpha  occ. eigenvalues --   -0.35721  -0.35685  -0.35641  -0.35365  -0.35162
 Alpha  occ. eigenvalues --   -0.35058  -0.34677  -0.34574  -0.34475  -0.34080
 Alpha  occ. eigenvalues --   -0.33672  -0.32664  -0.32627  -0.32461  -0.32351
 Alpha  occ. eigenvalues --   -0.32066  -0.31904  -0.31575  -0.31522  -0.31329
 Alpha  occ. eigenvalues --   -0.31185  -0.30909  -0.29582  -0.29534  -0.29161
 Alpha  occ. eigenvalues --   -0.29084  -0.28556  -0.28240  -0.27115  -0.26854
 Alpha  occ. eigenvalues --   -0.26453  -0.26116  -0.25885  -0.25562  -0.25446
 Alpha  occ. eigenvalues --   -0.25310  -0.25149  -0.24907  -0.20868  -0.20663
 Alpha  occ. eigenvalues --   -0.18589  -0.18585
 Alpha virt. eigenvalues --   -0.10983  -0.10774  -0.05523  -0.04902  -0.04223
 Alpha virt. eigenvalues --   -0.03610  -0.02110  -0.01892  -0.00851  -0.00327
 Alpha virt. eigenvalues --    0.00547   0.01173   0.01324   0.01604   0.01640

 Mulliken charges:
               1
     1  Mg  12.000037
     2  C    6.001374
     3  C    5.998907
     4  C    5.998754
     5  C    6.001166
     6  N    7.000018
     7  C    5.997226
     8  C    6.001087
     9  C    5.999396
    10  C    6.002874
    11  C    6.000047
    12  C    6.000446
    13  C    6.000013
    14  H    0.999444
    15  N    6.999248
    16  C    6.003563
    17  C    6.003044
    18  C    6.000996
    19  C    6.003274
    20  C    5.999653
    21  C    6.001228
    22  O    8.002136
    23  C    5.999490
    24  N    7.000572
    25  C    6.003575
    26  C    5.999109
    27  C    6.000603
    28  C    5.997219
    29  C    5.999569
    30  C    6.000678
    31  C    6.000069
    32  N    7.000161
    33  C    5.996942
    34  C    5.997234
    35  C    5.999656
    36  C    5.997334
    37  C    6.000384
    38  C    5.998226
    39  O    7.996737
    40  C    5.999890
    41  C    5.999867
    42  O    7.999776
    43  O    7.999850
    44  C    6.000287
    45  H    1.000708
    46  H    1.000436
    47  H    0.998995
    48  H    0.999723
    49  H    0.999420
    50  H    1.000534
    51  H    1.001008
    52  H    1.000938
    53  H    0.998475
    54  H    0.999927
    55  H    0.999190
    56  H    1.000342
    57  H    1.001199
    58  H    1.002337
    59  H    1.002637
    60  H    1.000173
    61  H    1.001599
    62  H    1.000650
    63  H    0.999666
    64  H    1.000263
    65  H    1.001242
    66  H    1.000070
    67  H    0.999885
    68  H    0.999700
    69  H    0.998692
    70  H    1.000528
    71  H    0.999156
    72  H    0.999909
    73  H    0.998323
    74  H    0.997448
    75  H    0.998447
    76  H    0.998773
    77  H    0.999132
    78  H    0.999362
    79  H    0.999956
    80  Mg  11.997259
    81  C    6.017391
    82  C    5.988819
    83  C    5.979330
    84  C    5.996101
    85  N    7.006322
    86  C    5.972449
    87  C    6.009191
    88  C    5.991613
    89  C    6.028434
    90  C    5.996884
    91  C    6.003581
    92  C    6.002210
    93  H    0.996429
    94  N    6.995265
    95  C    6.043293
    96  C    6.016026
    97  C    6.015369
    98  C    6.037692
    99  C    5.998291
   100  C    6.012903
   101  O    8.029352
   102  C    5.994685
   103  N    6.990596
   104  C    6.032396
   105  C    5.992026
   106  C    6.010414
   107  C    5.976913
   108  C    5.996344
   109  C    6.006333
   110  C    5.996081
   111  N    7.003763
   112  C    5.971572
   113  C    5.969313
   114  C    6.001027
   115  C    5.970113
   116  C    5.999476
   117  C    5.981913
   118  O    7.972776
   119  C    5.998894
   120  C    5.997983
   121  O    7.989693
   122  O    8.000781
   123  C    6.004794
   124  H    1.010802
   125  H    1.004214
   126  H    0.988279
   127  H    1.000436
   128  H    1.000220
   129  H    0.996549
   130  H    1.004699
   131  H    1.012373
   132  H    0.989017
   133  H    1.003989
   134  H    0.996040
   135  H    1.003570
   136  H    1.015025
   137  H    1.016684
   138  H    1.016015
   139  H    1.008039
   140  H    1.014030
   141  H    1.007153
   142  H    0.998721
   143  H    0.996882
   144  H    0.991913
   145  H    1.011053
   146  H    1.004457
   147  H    0.991217
   148  H    1.005754
   149  H    0.992170
   150  H    1.000987
   151  H    0.998358
   152  H    0.981506
   153  H    0.984288
   154  H    0.987331
   155  H    0.988987
   156  H    0.997357
   157  H    0.997046
   158  H    0.992750
 Sum of Mulliken charges = 624.00000

 Dipole moment (field-independent basis, Debye):
    X=             10.4699    Y=             -2.9856    Z=              2.8298  Tot=             11.2490
 Quadrupole moment (field-independent basis, Debye-Ang):
   XX=            169.9808   YY=             -0.7205   ZZ=             -2.1180
   XY=            -23.4839   XZ=             11.0359   YZ=             -0.3465

 Normal termination of Gaussian 16 at Thu Oct 14 18:50:09 2021.
