 Gaussian 16, Revision A.03,
 Gaussian 16:  ES64L-G16RevA.03 25-Dec-2016

 --------------------------------------------------------
 #p PBE1PBE/Def2SVP td=(nstates=5) density=(transition=1)
 --------------------------------------------------------

 --------------------------------
 TDDFT excited states in gaussian
 --------------------------------
 Symbolic Z-matrix:
 Charge =  0 Multiplicity = 1

                         Standard orientation:
 ---------------------------------------------------------------------
 Center     Atomic      Atomic             Coordinates (Angstroms)
 Number     Number       Type             X           Y           Z
 ---------------------------------------------------------------------
      1         12           0      -30.164645    0.133683    0.435084
      2          6           0      -27.606059   -1.542070   -1.119030
      3          6           0      -31.700953    0.483425   -2.610382
      4          6           0      -32.704454    1.927795    1.970884
      5          6           0      -28.364926    0.139852    3.398416
      6          7           0      -29.694761   -0.418125   -1.688517
      7          6           0      -28.613181   -1.184664   -2.017196
      8          6           0      -28.606820   -1.497054   -3.434992
      9          6           0      -29.766977   -0.713601   -4.028506
     10          6           0      -30.452411   -0.126671   -2.717986
     11          6           0      -29.461688    0.396852   -5.092287
     12          6           0      -28.689488   -3.040834   -3.688837
     13          6           0      -27.942891   -3.596660   -4.950431
     14          1           0      -27.782440   -2.643205   -6.150771
     15          7           0      -32.013015    0.970144   -0.245233
     16          6           0      -32.450830    0.979908   -1.558489
     17          6           0      -33.755648    1.669089   -1.621431
     18          6           0      -34.073535    2.101130   -0.261988
     19          6           0      -32.936321    1.656191    0.562205
     20          6           0      -34.552583    1.897165   -2.895476
     21          6           0      -35.352349    2.740686    0.226285
     22          8           0      -35.486088    2.972001    1.440802
     23          6           0      -36.476003    3.157757   -0.646934
     24          7           0      -30.469492    0.997010    2.383480
     25          6           0      -31.596370    1.615108    2.748517
     26          6           0      -31.593340    1.907859    4.258156
     27          6           0      -30.295548    1.110423    4.824338
     28          6           0      -29.708405    0.647309    3.444643
     29          6           0      -31.592803    3.442037    4.539699
     30          6           0      -30.605081   -0.113040    5.729953
     31          6           0      -30.211360    0.035498    7.207216
     32          7           0      -28.313002   -0.490045    1.056899
     33          6           0      -27.688134   -0.412641    2.303726
     34          6           0      -26.351982   -1.045796    2.244110
     35          6           0      -26.313130   -1.473058    0.895867
     36          6           0      -27.510157   -1.106988    0.224183
     37          6           0      -25.391063   -1.228730    3.313071
     38          6           0      -25.513830   -2.259684   -0.066157
     39          8           0      -24.477488   -2.857012    0.056053
     40          6           0      -26.313016   -2.290123   -1.417472
     41          6           0      -25.431063   -1.803182   -2.490235
     42          8           0      -25.128762   -0.600727   -2.555400
     43          8           0      -25.114948   -2.728701   -3.437151
     44          6           0      -24.416829   -2.289518   -4.641272
     45          1           0      -32.164351    0.576552   -3.594790
     46          1           0      -33.495787    2.525612    2.428430
     47          1           0      -27.894132    0.053528    4.379820
     48          1           0      -27.671907   -1.123999   -3.854584
     49          1           0      -30.548077   -1.379460   -4.397247
     50          1           0      -28.447483    0.600443   -5.437390
     51          1           0      -29.861686    1.337974   -4.715733
     52          1           0      -30.037541    0.287441   -6.011598
     53          1           0      -29.732240   -3.358202   -3.674998
     54          1           0      -28.385211   -3.561509   -2.781058
     55          1           0      -28.437717   -4.499872   -5.308556
     56          1           0      -26.894911   -3.823972   -4.757316
     57          1           0      -34.135699    1.386697   -3.762970
     58          1           0      -34.567304    2.953532   -3.165224
     59          1           0      -35.522259    1.405052   -2.822428
     60          1           0      -37.270420    3.495810    0.017755
     61          1           0      -36.842126    2.361646   -1.296528
     62          1           0      -36.126225    3.911547   -1.352518
     63          1           0      -32.449585    1.382833    4.681785
     64          1           0      -29.575430    1.772598    5.304893
     65          1           0      -32.349694    3.751823    5.260412
     66          1           0      -31.784449    4.004178    3.625306
     67          1           0      -30.571961    3.648770    4.861891
     68          1           0      -30.128448   -1.031818    5.390288
     69          1           0      -31.665407   -0.366451    5.721505
     70          1           0      -30.241617    1.088817    7.486210
     71          1           0      -29.186958   -0.318660    7.318033
     72          1           0      -30.857420   -0.637435    7.769508
     73          1           0      -24.659850   -2.006845    3.095183
     74          1           0      -25.852345   -1.464537    4.271887
     75          1           0      -24.746207   -0.349972    3.329085
     76          1           0      -26.544789   -3.353003   -1.493770
     77          1           0      -23.403666   -1.927035   -4.465342
     78          1           0      -25.019822   -1.577405   -5.204570
     79          1           0      -24.270576   -3.140872   -5.305850
     80         12           0       30.274570    0.218340   -0.291530
     81          6           0       27.269382   -1.248745    0.597310
     82          6           0       28.606116    3.176129   -0.948421
     83          6           0       33.270864    1.769163   -0.401106
     84          6           0       31.811334   -2.777209    0.758556
     85          7           0       28.196912    0.963637    0.090773
     86          6           0       27.175661    0.119531    0.262096
     87          6           0       25.835068    0.912855    0.346560
     88          6           0       26.232068    2.262501   -0.418483
     89          6           0       27.799612    2.123429   -0.513946
     90          6           0       25.457592    2.453964   -1.744770
     91          6           0       25.487671    1.209973    1.787549
     92          6           0       24.017474    1.068719    2.149735
     93          1           0       23.290335    2.036264    3.157828
     94          7           0       30.827877    2.213368   -0.813516
     95          6           0       30.040016    3.290515   -0.974116
     96          6           0       30.882317    4.393027   -1.307516
     97          6           0       32.247140    3.974043   -1.331880
     98          6           0       32.187693    2.581279   -0.871313
     99          6           0       30.322586    5.690836   -1.759964
    100          6           0       33.397843    4.889405   -1.556407
    101          8           0       33.204096    6.060117   -1.838927
    102          6           0       34.836760    4.389295   -1.511795
    103          7           0       32.343606   -0.490174    0.060031
    104          6           0       33.356889    0.418770    0.002263
    105          6           0       34.617920   -0.161286    0.555381
    106          6           0       34.123381   -1.636807    0.934364
    107          6           0       32.676338   -1.722632    0.516654
    108          6           0       35.832296   -0.086113   -0.388940
    109          6           0       34.352908   -2.082615    2.446156
    110          6           0       35.068149   -3.414626    2.772952
    111          7           0       29.712248   -1.618684    0.476501
    112          6           0       30.424635   -2.736688    0.777869
    113          6           0       29.569426   -3.833487    0.892683
    114          6           0       28.276037   -3.336799    0.809820
    115          6           0       28.413995   -1.983004    0.632099
    116          6           0       30.034048   -5.286506    1.203565
    117          6           0       26.923947   -3.648335    0.825879
    118          8           0       26.400042   -4.726497    1.083255
    119          6           0       26.095141   -2.277953    0.729793
    120          6           0       25.324579   -2.205950   -0.458887
    121          8           0       25.657124   -1.978872   -1.624625
    122          8           0       24.006944   -2.435796   -0.075128
    123          6           0       22.935442   -2.436101   -1.056319
    124          1           0       28.074468    4.060220   -1.305810
    125          1           0       34.302108    2.129598   -0.400019
    126          1           0       32.388042   -3.678959    0.975183
    127          1           0       25.059115    0.306192   -0.119475
    128          1           0       26.136401    3.161845    0.189034
    129          1           0       24.848767    1.583185   -1.987233
    130          1           0       26.163206    2.649589   -2.552828
    131          1           0       24.851125    3.353507   -1.641850
    132          1           0       25.813315    2.165442    2.199310
    133          1           0       26.130822    0.543397    2.362096
    134          1           0       23.874983    0.032425    2.455683
    135          1           0       23.551064    1.172810    1.170092
    136          1           0       30.389966    5.613567   -2.844972
    137          1           0       30.894304    6.532195   -1.367890
    138          1           0       29.287217    5.842086   -1.454426
    139          1           0       35.093443    4.328834   -0.454067
    140          1           0       35.443345    5.210201   -1.893467
    141          1           0       34.933901    3.441956   -2.041934
    142          1           0       34.747559    0.474332    1.430733
    143          1           0       34.709227   -2.399618    0.421493
    144          1           0       36.477679    0.692555    0.018922
    145          1           0       35.554586    0.118783   -1.423379
    146          1           0       36.389765   -1.020841   -0.333980
    147          1           0       33.379608   -2.149732    2.932031
    148          1           0       34.964750   -1.376305    3.007726
    149          1           0       34.203846   -4.077892    2.804442
    150          1           0       35.513179   -3.371997    3.766207
    151          1           0       35.685695   -3.904557    2.020271
    152          1           0       30.324095   -5.337700    2.252241
    153          1           0       30.925044   -5.628806    0.676845
    154          1           0       29.225560   -5.998250    1.034340
    155          1           0       25.512996   -2.221053    1.649689
    156          1           0       22.179551   -3.135246   -0.699978
    157          1           0       23.248725   -2.606382   -2.086691
    158          1           0       22.440295   -1.466643   -0.999025
 ---------------------------------------------------------------------

 SCF Done:  E(RPBE1PBE) =  -4067.39411174     A.U. after   16 cycles

 Excitation energies and oscillator strengths:

 Excited State   1:      Singlet-A      1.8044 eV  687.11 nm  f=0.0000  <S**2>=0.000
     312 -> 313        0.70711
 This state for optimization and/or second-order correction.
 Total Energy, E(TD-HF/TD-DFT) =  -4067.32780029
 Copying the excited state density for this state as the 1-particle RhoCI density.

 Excited State   2:      Singlet-A      1.8605 eV  666.39 nm  f=0.3874  <S**2>=0.000
     309 -> 315       -0.17789
     311 -> 313        0.69232
     311 <- 313       -0.11026

 Excited State   3:      Singlet-A      1.8897 eV  656.09 nm  f=0.3739  <S**2>=0.000
     310 -> 316        0.18006
     312 -> 314        0.68960
     312 <- 314       -0.10437

 Excited State   4:      Singlet-A      2.2338 eV  555.03 nm  f=0.0000  <S**2>=0.000
     311 -> 314        0.70711

 Excited State   5:      Singlet-A      2.2365 eV  554.38 nm  f=0.0962  <S**2>=0.000
     309 -> 313        0.64820
     311 -> 315        0.26581

 The electronic state is 1-A.
 Alpha  occ. eigenvalues --  -46.93060 -46.92278 -19.26577 -19.25258 -19.20335
 Alpha  occ. eigenvalues --  -19.19524 -19.19509 -19.19259 -19.18600 -19.18562
 Alpha  occ. eigenvalues --  -14.41874 -14.41499 -14.41314 -14.41220 -14.39464
 Alpha  occ. eigenvalues --  -14.39182 -14.38896 -14.38875 -10.36550 -10.36512
 Alpha  occ. eigenvalues --  -10.32355 -10.32049 -10.32021 -10.31781 -10.29528
 Alpha  occ. eigenvalues --  -10.29269 -10.29145 -10.29039 -10.28866 -10.28768
 Alpha  occ. eigenvalues --  -10.28740 -10.28622 -10.28325 -10.28324 -10.28121
 Alpha  occ. eigenvalues --  -10.27825 -10.27704 -10.27672 -10.27479 -10.27114
 Alpha  occ. eigenvalues --  -10.26815 -10.26805 -10.26374 -10.26326 -10.26305
 Alpha  occ. eigenvalues --  -10.26201 -10.26144 -10.26116 -10.26077 -10.26063
 Alpha  occ. eigenvalues --  -10.25998 -10.25982 -10.25953 -10.25799 -10.25657
 Alpha  occ. eigenvalues --  -10.25640 -10.25604 -10.25471 -10.25454 -10.25247
 Alpha  occ. eigenvalues --  -10.25219 -10.25082 -10.25069 -10.24991 -10.24773
 Alpha  occ. eigenvalues --  -10.24623 -10.24620 -10.24459 -10.24367 -10.24355
 Alpha  occ. eigenvalues --  -10.24116 -10.23949 -10.23695 -10.23666 -10.23633
 Alpha  occ. eigenvalues --  -10.23534 -10.23496 -10.23353 -10.23348 -10.23337
 Alpha  occ. eigenvalues --  -10.23304 -10.23016 -10.23012 -10.22798 -10.22530
 Alpha  occ. eigenvalues --  -10.22390  -3.14969  -3.14285  -1.87822  -1.87337
 Alpha  occ. eigenvalues --   -1.87184  -1.87148  -1.86642  -1.86514  -1.11187
 Alpha  occ. eigenvalues --   -1.10426  -1.05709  -1.04788  -1.04750  -1.03596
 Alpha  occ. eigenvalues --   -1.02260  -1.01904  -1.00192  -0.99739  -0.98718
 Alpha  occ. eigenvalues --   -0.98706  -0.98479  -0.98057  -0.97307  -0.95596
 Alpha  occ. eigenvalues --   -0.88273  -0.86836  -0.83808  -0.83419  -0.83383
 Alpha  occ. eigenvalues --   -0.82688  -0.82578  -0.82242  -0.82015  -0.81509
 Alpha  occ. eigenvalues --   -0.81237  -0.81074  -0.80553  -0.80458  -0.79713
 Alpha  occ. eigenvalues --   -0.78899  -0.78249  -0.77831  -0.77326  -0.76580
 Alpha  occ. eigenvalues --   -0.76471  -0.75997  -0.75826  -0.75517  -0.75087
 Alpha  occ. eigenvalues --   -0.74899  -0.72755  -0.72521  -0.71929  -0.71854
 Alpha  occ. eigenvalues --   -0.71613  -0.70868  -0.70783  -0.70546  -0.69534
 Alpha  occ. eigenvalues --   -0.69243  -0.67933  -0.67064  -0.66871  -0.65980
 Alpha  occ. eigenvalues --   -0.64325  -0.63661  -0.63549  -0.62743  -0.62544
 Alpha  occ. eigenvalues --   -0.62467  -0.61768  -0.61362  -0.60554  -0.60326
 Alpha  occ. eigenvalues --   -0.60259  -0.60058  -0.59850  -0.59606  -0.59421
 Alpha  occ. eigenvalues --   -0.58882  -0.57314  -0.57234  -0.55052  -0.54508
 Alpha  occ. eigenvalues --   -0.54393  -0.54112  -0.53777  -0.53703  -0.53506
 Alpha  occ. eigenvalues --   -0.53219  -0.52906  -0.52823  -0.52617  -0.51864
 Alpha  occ. eigenvalues --   -0.50939  -0.50687  -0.50653  -0.50317  -0.50093
 Alpha  occ. eigenvalues --   -0.49914  -0.49366  -0.49269  -0.48915  -0.48519
 Alpha  occ. eigenvalues --   -0.48227  -0.48062  -0.47987  -0.47611  -0.47364
 Alpha  occ. eigenvalues --   -0.47164  -0.46935  -0.46903  -0.46719  -0.46605
 Alpha  occ. eigenvalues --   -0.46514  -0.46350  -0.46250  -0.46113  -0.46100
 Alpha  occ. eigenvalues --   -0.45848  -0.45818  -0.45730  -0.45005  -0.44864
 Alpha  occ. eigenvalues --   -0.44721  -0.44535  -0.44519  -0.44415  -0.44244
 Alpha  occ. eigenvalues --   -0.44075  -0.43925  -0.43709  -0.43669  -0.43551
 Alpha  occ. eigenvalues --   -0.43143  -0.43050  -0.43033  -0.42946  -0.42763
 Alpha  occ. eigenvalues --   -0.42590  -0.42204  -0.42118  -0.41858  -0.41771
 Alpha  occ. eigenvalues --   -0.41595  -0.41513  -0.41417  -0.41356  -0.41330
 Alpha  occ. eigenvalues --   -0.40954  -0.40832  -0.40678  -0.40650  -0.40525
 Alpha  occ. eigenvalues --   -0.40454  -0.40271  -0.40228  -0.40087  -0.39914
 Alpha  occ. eigenvalues --   -0.39788  -0.39742  -0.39488  -0.39318  -0.39297
 Alpha  occ. eigenvalues --   -0.39134  -0.38699  -0.38598  -0.38449  -0.38423
 Alpha  occ. eigenvalues --   -0.38316  -0.38263  -0.37981  -0.37966  -0.37829
 Alpha  occ. eigenvalues --   -0.37786  -0.37518  -0.37032  -0.36974  -0.36876
 Alpha  occ. eigenvalues --   -0.36795  -0.36675  -0.36602  -0.36377  -0.36344
 Alpha  occ. eigenvalues --   -0.35981  -0.35875  -0.35758  -0.35542  -0.35267
 Alpha  occ. eigenvalues --   -0.35204  -0.34859  -0.34645  -0.34513  -0.33259
 Alpha  occ. eigenvalues --   -0.33169  -0.33157  -0.32963  -0.32477  -0.32418
 Alpha  occ. eigenvalues --   -0.32240  -0.32190  -0.31722  -0.31658  -0.31145
 Alpha  occ. eigenvalues --   -0.31075  -0.30687  -0.29806  -0.29551  -0.29258
 Alpha  occ. eigenvalues --   -0.29038  -0.28915  -0.28493  -0.27436  -0.26690
 Alpha  occ. eigenvalues --   -0.26413  -0.25918  -0.25797  -0.25670  -0.25545
 Alpha  occ. eigenvalues --   -0.25496  -0.25122  -0.25086  -0.21503  -0.20810
 Alpha  occ. eigenvalues --   -0.19208  -0.18496
 Alpha virt. eigenvalues --   -0.11645  -0.10780  -0.05761  -0.05209  -0.04399
 Alpha virt. eigenvalues --   -0.03645  -0.02097  -0.01819  -0.00419  -0.00231
 Alpha virt. eigenvalues --   -0.00206   0.00350   0.00488   0.01321   0.01380

 Mulliken charges:
               1
     1  Mg  12.000000
     2  C    6.000000
     3  C    6.000000
     4  C    6.000000
     5  C    6.000000
     6  N    7.000000
     7  C    6.000000
     8  C    6.000000
     9  C    6.000000
    10  C    6.000000
    11  C    6.000000
    12  C    6.000000
    13  C    6.000000
    14  H    1.000000
    15  N    7.000000
    16  C    6.000000
    17  C    6.000000
    18  C    6.000000
    19  C    6.000000
    20  C    6.000000
    21  C    6.000000
    22  O    8.000000
    23  C    6.000000
    24  N    7.000000
    25  C    6.000000
    26  C    6.000000
    27  C    6.000000
    28  C    6.000000
    29  C    6.000000
    30  C    6.000000
    31  C    6.000000
    32  N    7.000000
    33  C    6.000000
    34  C    6.000000
    35  C    6.000000
    36  C    6.000000
    37  C    6.000000
    38  C    6.000000
    39  O    8.000000
    40  C    6.000000
    41  C    6.000000
    42  O    8.000000
    43  O    8.000000
    44  C    6.000000
    45  H    1.000000
    46  H    1.000000
    47  H    1.000000
    48  H    1.000000
    49  H    1.000000
    50  H    1.000000
    51  H    1.000000
    52  H    1.000000
    53  H    1.000000
    54  H    1.000000
    55  H    1.000000
    56  H    1.000000
    57  H    1.000000
    58  H    1.000000
    59  H    1.000000
    60  H    1.000000
    61  H    1.000000
    62  H    1.000000
    63  H    1.000000
    64  H    1.000000
    65  H    1.000000
    66  H    1.000000
    67  H    1.000000
    68  H    1.000000
    69  H    1.000000
    70  H    1.000000
    71  H    1.000000
    72  H    1.000000
    73  H    1.000000
    74  H    1.000000
    75  H    1.000000
    76  H    1.000000
    77  H    1.000000
    78  H    1.000000
    79  H    1.000000
    80  Mg  12.000000
    81  C    6.000000
    82  C    6.000000
    83  C    6.000000
    84  C    6.000000
    85  N    7.000000
    86  C    6.000000
    87  C    6.000000
    88  C    6.000000
    89  C    6.000000
    90  C    6.000000
    91  C    6.000000
    92  C    6.000000
    93  H    1.000000
    94  N    7.000000
    95  C    6.000000
    96  C    6.000000
    97  C    6.000000
    98  C    6.000000
    99  C    6.000000
   100  C    6.000000
   101  O    8.000000
   102  C    6.000000
   103  N    7.000000
   104  C    6.000000
   105  C    6.000000
   106  C    6.000000
   107  C    6.000000
   108  C    6.000000
   109  C    6.000000
   110  C    6.000000
   111  N    7.000000
   112  C    6.000000
   113  C    6.000000
   114  C    6.000000
   115  C    6.000000
   116  C    6.000000
   117  C    6.000000
   118  O    8.000000
   119  C    6.000000
   120  C    6.000000
   121  O    8.000000
   122  O    8.000000
   123  C    6.000000
   124  H    1.000000
   125  H    1.000000
   126  H    1.000000
   127  H    1.000000
   128  H    1.000000
   129  H    1.000000
   130  H    1.000000
   131  H    1.000000
   132  H    1.000000
   133  H    1.000000
   134  H    1.000000
   135  H    1.000000
   136  H    1.000000
   137  H    1.000000
   138  H    1.000000
   139  H    1.000000
   140  H    1.000000
   141  H    1.000000
   142  H    1.000000
   143  H    1.000000
   144  H    1.000000
   145  H    1.000000
   146  H    1.000000
   147  H    1.000000
   148  H    1.000000
   149  H    1.000000
   150  H    1.000000
   151  H    1.000000
   152  H    1.000000
   153  H    1.000000
   154  H    1.000000
   155  H    1.000000
   156  H    1.000000
   157  H    1.000000
   158  H    1.000000
 Sum of Mulliken charges = 624.00000

 Dipole moment (field-independent basis, Debye):
    X=             -0.0000    Y=             -0.0000    Z=              0.0000  Tot=              0.0000
 Quadrupole moment (field-independent basis, Debye-Ang):
   XX=             -0.0000   YY=             -0.0000   ZZ=             -0.0000
   XY=             -0.0000   XZ=              0.0000   YZ=              0.0000

 Normal termination of Gaussian 16 at Fri Oct 15 01:36:09 2021.
