 Gaussian 16, Revision A.03,
 Gaussian 16:  ES64L-G16RevA.03 25-Dec-2016

 --------------------------------------------------------
 #p PBE1PBE/Def2SVP td=(nstates=5) density=(transition=1)
 --------------------------------------------------------

 --------------------------------
 TDDFT excited states in gaussian
 --------------------------------
 Symbolic Z-matrix:
 Charge =  0 Multiplicity = 1

                         Standard orientation:
 ---------------------------------------------------------------------
 Center     Atomic      Atomic             Coordinates (Angstroms)
 Number     Number       Type             X           Y           Z
 ---------------------------------------------------------------------
      1         12           0      -17.454793   -0.632712    0.211605
      2          6           0      -17.271037    2.364172   -1.350968
      3          6           0      -16.277492    0.820978    3.138291
      4          6           0      -17.632816   -3.631633    1.772454
      5          6           0      -18.152220   -2.167943   -2.811589
      6          7           0      -16.980628    1.341372    0.769920
      7          6           0      -16.930115    2.446929   -0.015306
      8          6           0      -16.703623    3.706926    0.778740
      9          6           0      -16.119835    3.172155    2.141356
     10          6           0      -16.515244    1.663915    2.020443
     11          6           0      -14.605133    3.442203    2.525428
     12          6           0      -18.065608    4.494788    1.039556
     13          6           0      -17.836095    6.013009    1.298718
     14          1           0      -16.522431    6.545757    1.895050
     15          7           0      -16.945581   -1.377750    2.179853
     16          6           0      -16.478427   -0.559685    3.241800
     17          6           0      -16.297988   -1.359856    4.415454
     18          6           0      -16.676804   -2.697853    4.039668
     19          6           0      -17.122189   -2.578718    2.605324
     20          6           0      -15.894691   -0.832694    5.747814
     21          6           0      -16.681500   -3.971897    4.877027
     22          8           0      -16.919081   -5.138160    4.445555
     23          6           0      -16.359110   -3.889828    6.359435
     24          7           0      -17.766141   -2.617204   -0.423965
     25          6           0      -17.986343   -3.689004    0.442597
     26          6           0      -18.640294   -4.935450   -0.220721
     27          6           0      -18.824957   -4.347084   -1.729861
     28          6           0      -18.257867   -2.975722   -1.680137
     29          6           0      -17.675044   -6.123145   -0.115290
     30          6           0      -20.228350   -4.420835   -2.255194
     31          6           0      -20.343029   -5.162703   -3.556132
     32          7           0      -17.573630   -0.163455   -1.684723
     33          6           0      -17.892631   -0.848777   -2.850416
     34          6           0      -17.887107    0.037250   -3.954895
     35          6           0      -17.603146    1.337778   -3.458263
     36          6           0      -17.522767    1.198774   -2.056566
     37          6           0      -18.164575   -0.246688   -5.381186
     38          6           0      -17.305905    2.704329   -3.827886
     39          8           0      -17.194118    3.306973   -4.877545
     40          6           0      -17.152619    3.420491   -2.403055
     41          6           0      -16.050923    4.418083   -2.386584
     42          8           0      -14.950357    4.282312   -2.856834
     43          8           0      -16.393370    5.578072   -1.804894
     44          6           0      -15.301270    6.591706   -1.761579
     45          1           0      -15.744001    1.334399    3.941095
     46          1           0      -17.557474   -4.609853    2.251720
     47          1           0      -18.475791   -2.552161   -3.781117
     48          1           0      -15.901497    4.319646    0.367659
     49          1           0      -16.740322    3.554834    2.951061
     50          1           0      -14.190477    4.098089    1.759849
     51          1           0      -13.951956    2.579181    2.644358
     52          1           0      -14.615469    3.909323    3.510392
     53          1           0      -18.516668    3.974434    1.884650
     54          1           0      -18.685784    4.366529    0.152322
     55          1           0      -18.667917    6.260778    1.958353
     56          1           0      -18.077586    6.518484    0.364064
     57          1           0      -16.693873   -0.397443    6.347867
     58          1           0      -15.105140   -0.110811    5.542818
     59          1           0      -15.318017   -1.546723    6.335037
     60          1           0      -15.271366   -3.895225    6.427649
     61          1           0      -16.752234   -4.814497    6.781263
     62          1           0      -16.740738   -2.993442    6.848581
     63          1           0      -19.525243   -5.161438    0.374291
     64          1           0      -18.216224   -4.945416   -2.408598
     65          1           0      -16.674619   -5.892984    0.251740
     66          1           0      -17.686312   -6.670615   -1.057462
     67          1           0      -18.086291   -6.768837    0.661173
     68          1           0      -20.654944   -3.443596   -2.481682
     69          1           0      -20.948501   -4.866848   -1.569108
     70          1           0      -21.136120   -5.909889   -3.554462
     71          1           0      -19.418581   -5.686765   -3.797275
     72          1           0      -20.436100   -4.373853   -4.303139
     73          1           0      -17.893121   -1.242382   -5.733169
     74          1           0      -17.401191    0.333157   -5.900758
     75          1           0      -19.203895   -0.013101   -5.612416
     76          1           0      -18.091489    3.973741   -2.440247
     77          1           0      -15.159164    7.083084   -2.725154
     78          1           0      -14.391247    6.191881   -1.313942
     79          1           0      -15.601288    7.382494   -1.073579
     80         12           0       17.570737   -0.749512   -0.020250
     81          6           0       15.514128    2.015957    0.575975
     82          6           0       20.252970    1.354791    0.624370
     83          6           0       19.501055   -3.181557   -0.984769
     84          6           0       14.670922   -2.606385   -0.848967
     85          7           0       17.873094    1.584833    0.153743
     86          6           0       16.892488    2.413508    0.526744
     87          6           0       17.512863    3.726930    0.868367
     88          6           0       18.995988    3.594540    0.443650
     89          6           0       19.090390    2.081737    0.425733
     90          6           0       19.478406    4.246241   -0.853471
     91          6           0       17.371260    4.061751    2.387151
     92          6           0       16.836988    5.469378    2.806343
     93          1           0       17.110245    6.694166    1.878644
     94          7           0       19.645796   -0.944157   -0.020211
     95          6           0       20.535332    0.003006    0.469452
     96          6           0       21.831282   -0.591177    0.414322
     97          6           0       21.672201   -1.904250   -0.185743
     98          6           0       20.248088   -2.088928   -0.421712
     99          6           0       23.143150    0.126742    0.799927
    100          6           0       22.749471   -2.947756   -0.599396
    101          8           0       22.511162   -3.997360   -1.107288
    102          6           0       24.183066   -2.592880   -0.256972
    103          7           0       17.110666   -2.607744   -0.784468
    104          6           0       18.113368   -3.425687   -1.175543
    105          6           0       17.629830   -4.785374   -1.750883
    106          6           0       16.075346   -4.674301   -1.440781
    107          6           0       15.906963   -3.234388   -0.970528
    108          6           0       18.040030   -4.922946   -3.328680
    109          6           0       15.541797   -5.794795   -0.493878
    110          6           0       15.388044   -5.465055    0.980089
    111          7           0       15.466053   -0.447886   -0.102483
    112          6           0       14.433133   -1.306859   -0.364776
    113          6           0       13.141967   -0.554673   -0.184693
    114          6           0       13.543515    0.748657    0.185849
    115          6           0       14.976684    0.803590    0.190080
    116          6           0       11.750132   -1.020100   -0.516309
    117          6           0       13.067750    2.082877    0.543014
    118          8           0       11.900845    2.478654    0.615577
    119          6           0       14.310610    2.866583    0.954306
    120          6           0       14.247797    4.158262    0.190572
    121          8           0       14.538336    4.293645   -0.983851
    122          8           0       13.645542    5.021459    0.991951
    123          6           0       13.074518    6.223111    0.404161
    124          1           0       21.099987    2.040727    0.684128
    125          1           0       20.120229   -4.067205   -1.139952
    126          1           0       13.776400   -3.184887   -1.090302
    127          1           0       17.001066    4.508614    0.307896
    128          1           0       19.575582    4.087843    1.224031
    129          1           0       18.740292    4.825861   -1.408128
    130          1           0       19.879637    3.489837   -1.528562
    131          1           0       20.292532    4.912551   -0.569146
    132          1           0       18.269432    3.846634    2.965663
    133          1           0       16.644969    3.297213    2.662636
    134          1           0       17.325610    5.647944    3.765018
    135          1           0       15.759802    5.400544    2.955947
    136          1           0       23.899165    0.093412    0.015372
    137          1           0       23.659282   -0.368136    1.622754
    138          1           0       23.016390    1.166014    1.106024
    139          1           0       24.309392   -2.303038    0.786370
    140          1           0       24.512248   -1.820188   -0.951841
    141          1           0       24.850640   -3.410564   -0.528638
    142          1           0       18.065751   -5.638282   -1.230960
    143          1           0       15.452693   -4.820386   -2.323314
    144          1           0       17.094659   -4.820353   -3.861624
    145          1           0       18.374499   -5.923113   -3.605065
    146          1           0       18.673273   -4.114642   -3.696136
    147          1           0       16.333607   -6.543864   -0.509015
    148          1           0       14.627445   -6.256318   -0.866223
    149          1           0       16.299538   -4.917413    1.222687
    150          1           0       15.342948   -6.463131    1.415247
    151          1           0       14.596320   -4.800288    1.324617
    152          1           0       11.624097   -1.985281   -1.006957
    153          1           0       11.278984   -0.293857   -1.178799
    154          1           0       11.201150   -0.957027    0.422705
    155          1           0       14.308356    3.218645    1.986070
    156          1           0       13.062048    6.349385   -0.677956
    157          1           0       13.744414    7.003445    0.766604
    158          1           0       12.231339    6.533921    1.021171
 ---------------------------------------------------------------------

 SCF Done:  E(RPBE1PBE) =  -4067.37718795     A.U. after   16 cycles

 Excitation energies and oscillator strengths:

 Excited State   1:      Singlet-A      1.8022 eV  687.94 nm  f=0.3702  <S**2>=0.000
     309 -> 315       -0.16356
     312 -> 313        0.69742
     312 <- 313       -0.11962
 This state for optimization and/or second-order correction.
 Total Energy, E(TD-HF/TD-DFT) =  -4067.31095673
 Copying the excited state density for this state as the 1-particle RhoCI density.

 Excited State   2:      Singlet-A      1.8764 eV  660.75 nm  f=0.3879  <S**2>=0.000
     310 -> 316        0.18227
     311 -> 314        0.69071
     311 <- 314       -0.10328

 Excited State   3:      Singlet-A      1.8840 eV  658.07 nm  f=0.0000  <S**2>=0.000
     311 -> 313        0.70711

 Excited State   4:      Singlet-A      1.9967 eV  620.95 nm  f=0.0000  <S**2>=0.000
     312 -> 314        0.70710

 Excited State   5:      Singlet-A      2.2077 eV  561.59 nm  f=0.0913  <S**2>=0.000
     310 -> 314        0.65470
     311 -> 316       -0.25271

 The electronic state is 1-A.
 Alpha  occ. eigenvalues --  -46.92161 -46.90549 -19.26791 -19.25758 -19.19735
 Alpha  occ. eigenvalues --  -19.19417 -19.19372 -19.18970 -19.18958 -19.18708
 Alpha  occ. eigenvalues --  -14.42272 -14.41370 -14.41284 -14.40965 -14.39117
 Alpha  occ. eigenvalues --  -14.38860 -14.38515 -14.38479 -10.36011 -10.35560
 Alpha  occ. eigenvalues --  -10.32378 -10.32323 -10.32249 -10.31777 -10.29257
 Alpha  occ. eigenvalues --  -10.29195 -10.29100 -10.28820 -10.28661 -10.28653
 Alpha  occ. eigenvalues --  -10.28648 -10.28442 -10.28229 -10.28088 -10.27715
 Alpha  occ. eigenvalues --  -10.27599 -10.27543 -10.27434 -10.26931 -10.26930
 Alpha  occ. eigenvalues --  -10.26854 -10.26810 -10.26738 -10.26662 -10.26501
 Alpha  occ. eigenvalues --  -10.26310 -10.26293 -10.26066 -10.25991 -10.25981
 Alpha  occ. eigenvalues --  -10.25852 -10.25849 -10.25737 -10.25472 -10.25467
 Alpha  occ. eigenvalues --  -10.25446 -10.25383 -10.25349 -10.25340 -10.25202
 Alpha  occ. eigenvalues --  -10.25056 -10.24865 -10.24822 -10.24699 -10.24552
 Alpha  occ. eigenvalues --  -10.24307 -10.24298 -10.24287 -10.24272 -10.24216
 Alpha  occ. eigenvalues --  -10.23930 -10.23756 -10.23732 -10.23633 -10.23514
 Alpha  occ. eigenvalues --  -10.23269 -10.23255 -10.23213 -10.23088 -10.22990
 Alpha  occ. eigenvalues --  -10.22980 -10.22969 -10.22883 -10.22620 -10.22551
 Alpha  occ. eigenvalues --  -10.22440  -3.14201  -3.12978  -1.87050  -1.86610
 Alpha  occ. eigenvalues --   -1.86384  -1.85812  -1.85333  -1.85249  -1.13007
 Alpha  occ. eigenvalues --   -1.12060  -1.06276  -1.04857  -1.04100  -1.03333
 Alpha  occ. eigenvalues --   -1.02072  -1.02058  -0.99582  -0.99082  -0.98378
 Alpha  occ. eigenvalues --   -0.98218  -0.97333  -0.97160  -0.96669  -0.96030
 Alpha  occ. eigenvalues --   -0.87714  -0.87551  -0.84004  -0.83083  -0.83001
 Alpha  occ. eigenvalues --   -0.82846  -0.82816  -0.82388  -0.82007  -0.81512
 Alpha  occ. eigenvalues --   -0.81406  -0.80697  -0.80412  -0.79840  -0.78729
 Alpha  occ. eigenvalues --   -0.78642  -0.78062  -0.77971  -0.76859  -0.76740
 Alpha  occ. eigenvalues --   -0.75867  -0.75724  -0.75372  -0.75095  -0.74738
 Alpha  occ. eigenvalues --   -0.74284  -0.72588  -0.72220  -0.72093  -0.71626
 Alpha  occ. eigenvalues --   -0.71593  -0.71317  -0.70822  -0.70578  -0.69574
 Alpha  occ. eigenvalues --   -0.69485  -0.67322  -0.67065  -0.66276  -0.66172
 Alpha  occ. eigenvalues --   -0.63850  -0.63486  -0.63294  -0.63037  -0.62559
 Alpha  occ. eigenvalues --   -0.62364  -0.61093  -0.60605  -0.60258  -0.59774
 Alpha  occ. eigenvalues --   -0.59706  -0.59428  -0.59303  -0.59158  -0.58856
 Alpha  occ. eigenvalues --   -0.58659  -0.57284  -0.56880  -0.54861  -0.54426
 Alpha  occ. eigenvalues --   -0.54388  -0.54177  -0.53746  -0.53527  -0.53086
 Alpha  occ. eigenvalues --   -0.52983  -0.52520  -0.52360  -0.52294  -0.51850
 Alpha  occ. eigenvalues --   -0.51375  -0.50666  -0.50562  -0.49850  -0.49724
 Alpha  occ. eigenvalues --   -0.49563  -0.49469  -0.49363  -0.49188  -0.48501
 Alpha  occ. eigenvalues --   -0.48135  -0.47943  -0.47820  -0.47591  -0.47460
 Alpha  occ. eigenvalues --   -0.47439  -0.47188  -0.47076  -0.46879  -0.46654
 Alpha  occ. eigenvalues --   -0.46586  -0.46503  -0.46261  -0.45898  -0.45874
 Alpha  occ. eigenvalues --   -0.45729  -0.45724  -0.45478  -0.44965  -0.44639
 Alpha  occ. eigenvalues --   -0.44631  -0.44408  -0.44266  -0.44220  -0.43945
 Alpha  occ. eigenvalues --   -0.43764  -0.43568  -0.43454  -0.43447  -0.43257
 Alpha  occ. eigenvalues --   -0.43060  -0.43055  -0.42832  -0.42805  -0.42674
 Alpha  occ. eigenvalues --   -0.42639  -0.42358  -0.41984  -0.41909  -0.41814
 Alpha  occ. eigenvalues --   -0.41535  -0.41379  -0.41318  -0.41122  -0.41031
 Alpha  occ. eigenvalues --   -0.40835  -0.40685  -0.40660  -0.40601  -0.40364
 Alpha  occ. eigenvalues --   -0.40247  -0.39964  -0.39917  -0.39722  -0.39670
 Alpha  occ. eigenvalues --   -0.39550  -0.39542  -0.39343  -0.39164  -0.38845
 Alpha  occ. eigenvalues --   -0.38688  -0.38462  -0.38379  -0.38113  -0.38100
 Alpha  occ. eigenvalues --   -0.38024  -0.37976  -0.37909  -0.37693  -0.37530
 Alpha  occ. eigenvalues --   -0.37221  -0.37127  -0.37009  -0.36784  -0.36762
 Alpha  occ. eigenvalues --   -0.36666  -0.36494  -0.36255  -0.36079  -0.35975
 Alpha  occ. eigenvalues --   -0.35898  -0.35722  -0.35544  -0.35320  -0.35272
 Alpha  occ. eigenvalues --   -0.35249  -0.35126  -0.34948  -0.34525  -0.34258
 Alpha  occ. eigenvalues --   -0.33255  -0.33221  -0.32969  -0.32634  -0.32221
 Alpha  occ. eigenvalues --   -0.32162  -0.32116  -0.32032  -0.31712  -0.31578
 Alpha  occ. eigenvalues --   -0.31300  -0.31172  -0.29811  -0.29431  -0.29381
 Alpha  occ. eigenvalues --   -0.29082  -0.28513  -0.28404  -0.26983  -0.26465
 Alpha  occ. eigenvalues --   -0.25998  -0.25924  -0.25506  -0.25419  -0.25391
 Alpha  occ. eigenvalues --   -0.25355  -0.25179  -0.24721  -0.21180  -0.20700
 Alpha  occ. eigenvalues --   -0.18689  -0.18687
 Alpha virt. eigenvalues --   -0.11387  -0.10964  -0.05117  -0.04991  -0.04072
 Alpha virt. eigenvalues --   -0.03926  -0.02118  -0.01599   0.00024   0.00131
 Alpha virt. eigenvalues --    0.00859   0.01096   0.01213   0.01237   0.01267

 Mulliken charges:
               1
     1  Mg  12.004233
     2  C    5.978538
     3  C    5.999543
     4  C    6.030851
     5  C    6.015599
     6  N    6.985572
     7  C    6.031612
     8  C    5.988289
     9  C    6.009586
    10  C    5.968559
    11  C    6.004413
    12  C    5.997391
    13  C    5.999938
    14  H    1.005874
    15  N    7.003432
    16  C    5.962030
    17  C    5.986340
    18  C    5.978714
    19  C    5.969976
    20  C    6.003553
    21  C    5.986408
    22  O    7.962568
    23  C    6.004861
    24  N    7.019867
    25  C    5.967237
    26  C    6.009311
    27  C    5.988485
    28  C    6.018017
    29  C    5.999803
    30  C    5.993703
    31  C    5.999723
    32  N    6.997450
    33  C    6.019371
    34  C    6.034895
    35  C    6.000658
    36  C    6.029134
    37  C    5.997067
    38  C    6.013884
    39  O    8.023519
    40  C    6.003618
    41  C    6.003190
    42  O    8.002182
    43  O    8.001942
    44  C    5.998557
    45  H    0.985339
    46  H    1.001366
    47  H    1.014838
    48  H    0.999188
    49  H    0.996503
    50  H    0.985146
    51  H    1.000535
    52  H    0.996770
    53  H    1.011068
    54  H    0.992816
    55  H    1.002246
    56  H    0.995668
    57  H    0.981825
    58  H    0.987238
    59  H    0.986268
    60  H    0.989933
    61  H    0.985688
    62  H    0.993080
    63  H    1.003689
    64  H    1.004141
    65  H    1.004927
    66  H    0.992578
    67  H    1.005140
    68  H    0.998248
    69  H    1.012426
    70  H    1.007130
    71  H    1.003896
    72  H    0.996009
    73  H    1.016581
    74  H    1.015398
    75  H    1.021209
    76  H    1.003513
    77  H    1.000417
    78  H    1.004973
    79  H    1.004717
    80  Mg  12.000015
    81  C    6.000021
    82  C    6.000037
    83  C    5.999975
    84  C    5.999973
    85  N    7.000057
    86  C    6.000027
    87  C    5.999975
    88  C    6.000029
    89  C    5.999879
    90  C    6.000016
    91  C    5.999980
    92  C    6.000001
    93  H    0.999948
    94  N    7.000005
    95  C    5.999895
    96  C    5.999953
    97  C    5.999951
    98  C    5.999905
    99  C    6.000004
   100  C    5.999936
   101  O    7.999901
   102  C    6.000026
   103  N    6.999932
   104  C    5.999937
   105  C    6.000062
   106  C    5.999969
   107  C    6.000110
   108  C    6.000020
   109  C    5.999982
   110  C    5.999982
   111  N    7.000038
   112  C    6.000094
   113  C    6.000166
   114  C    5.999973
   115  C    6.000056
   116  C    5.999983
   117  C    6.000095
   118  O    8.000148
   119  C    6.000004
   120  C    6.000004
   121  O    7.999961
   122  O    8.000037
   123  C    5.999985
   124  H    0.999947
   125  H    0.999964
   126  H    1.000027
   127  H    0.999977
   128  H    1.000005
   129  H    0.999910
   130  H    0.999981
   131  H    0.999977
   132  H    1.000069
   133  H    1.000026
   134  H    1.000054
   135  H    1.000023
   136  H    0.999903
   137  H    0.999956
   138  H    0.999939
   139  H    1.000002
   140  H    0.999937
   141  H    0.999922
   142  H    1.000010
   143  H    0.999949
   144  H    0.999910
   145  H    0.999962
   146  H    0.999976
   147  H    1.000028
   148  H    1.000004
   149  H    1.000025
   150  H    1.000071
   151  H    1.000030
   152  H    1.000051
   153  H    1.000000
   154  H    1.000187
   155  H    1.000105
   156  H    0.999932
   157  H    1.000026
   158  H    1.000070
 Sum of Mulliken charges = 624.00000

 Dipole moment (field-independent basis, Debye):
    X=             -2.0986    Y=              1.8726    Z=            -10.0205  Tot=             10.4078
 Quadrupole moment (field-independent basis, Debye-Ang):
   XX=             69.5845   YY=             -1.4794   ZZ=             -6.8263
   XY=            -28.7348   XZ=            171.2397   YZ=             10.3169

 Normal termination of Gaussian 16 at Fri Oct 15 03:53:49 2021.
