 Gaussian 16, Revision A.03,
 Gaussian 16:  ES64L-G16RevA.03 25-Dec-2016

 --------------------------------------------------------
 #p PBE1PBE/Def2SVP td=(nstates=5) density=(transition=1)
 --------------------------------------------------------

 --------------------------------
 TDDFT excited states in gaussian
 --------------------------------
 Symbolic Z-matrix:
 Charge =  0 Multiplicity = 1

                         Standard orientation:
 ---------------------------------------------------------------------
 Center     Atomic      Atomic             Coordinates (Angstroms)
 Number     Number       Type             X           Y           Z
 ---------------------------------------------------------------------
      1         12           0      -14.535550    0.784578    0.082379
      2          6           0      -14.395243   -2.677037   -0.191272
      3          6           0      -11.168767    0.904052    0.084800
      4          6           0      -14.678571    3.999821    1.122037
      5          6           0      -17.970865    0.501519    0.902279
      6          7           0      -13.066022   -0.740176   -0.129811
      7          6           0      -13.155772   -2.090448   -0.389111
      8          6           0      -11.739172   -2.717912   -0.503236
      9          6           0      -10.860778   -1.603778    0.145071
     10          6           0      -11.711277   -0.361149   -0.073722
     11          6           0      -10.564177   -1.806776    1.672624
     12          6           0      -11.535581   -3.158707   -1.964349
     13          6           0      -10.882867   -4.479736   -2.116662
     14          1           0      -11.083817   -5.121013   -3.414545
     15          7           0      -13.121895    2.267706    0.310665
     16          6           0      -11.776958    2.113171    0.202255
     17          6           0      -11.175296    3.419115    0.102303
     18          6           0      -12.232258    4.349871    0.409971
     19          6           0      -13.408082    3.530110    0.716729
     20          6           0       -9.723899    3.643060   -0.129455
     21          6           0      -12.216769    5.902009    0.597465
     22          8           0      -13.230183    6.554592    0.855560
     23          6           0      -10.976250    6.707284    0.328733
     24          7           0      -16.062799    1.956761    1.225604
     25          6           0      -15.875503    3.355070    1.400652
     26          6           0      -17.110000    4.069136    1.842160
     27          6           0      -18.147913    2.941727    1.532932
     28          6           0      -17.340025    1.713435    1.122385
     29          6           0      -17.075504    4.552460    3.331607
     30          6           0      -19.161134    3.320493    0.391676
     31          6           0      -18.527362    3.832487   -0.926873
     32          7           0      -15.955012   -0.725002    0.214974
     33          6           0      -17.326839   -0.687261    0.508883
     34          6           0      -17.794467   -2.019924    0.421953
     35          6           0      -16.685973   -2.803145    0.125238
     36          6           0      -15.615518   -1.976883    0.025526
     37          6           0      -19.218724   -2.451427    0.570117
     38          6           0      -16.271591   -4.118174   -0.029959
     39          8           0      -16.935314   -5.169122    0.031887
     40          6           0      -14.732499   -4.175855   -0.268057
     41          6           0      -14.609091   -4.843712   -1.673156
     42          8           0      -14.945980   -4.323522   -2.751675
     43          8           0      -14.065524   -6.111964   -1.499797
     44          6           0      -14.078127   -7.055621   -2.662513
     45          1           0      -10.084671    0.802836    0.169056
     46          1           0      -14.944845    5.034012    1.353182
     47          1           0      -19.055673    0.381241    0.938242
     48          1           0      -11.695893   -3.656631    0.048037
     49          1           0       -9.946622   -1.487536   -0.436333
     50          1           0      -10.927595   -2.735323    2.113812
     51          1           0      -11.089129   -1.059620    2.266467
     52          1           0       -9.484334   -1.823033    1.818758
     53          1           0      -10.822636   -2.450829   -2.384782
     54          1           0      -12.507420   -3.125087   -2.457534
     55          1           0      -11.357486   -5.127209   -1.379175
     56          1           0       -9.833805   -4.380600   -1.838536
     57          1           0       -9.246198    2.758730   -0.550762
     58          1           0       -9.300509    4.085394    0.772939
     59          1           0       -9.597794    4.399859   -0.903778
     60          1           0      -11.102535    7.606112    0.932702
     61          1           0      -10.929777    7.011154   -0.717275
     62          1           0      -10.073776    6.192649    0.660027
     63          1           0      -17.360913    4.937503    1.231383
     64          1           0      -18.700139    2.716097    2.445773
     65          1           0      -16.326782    3.973725    3.873188
     66          1           0      -18.001378    4.459576    3.899480
     67          1           0      -16.811771    5.598865    3.487853
     68          1           0      -19.861687    4.024929    0.840439
     69          1           0      -19.734975    2.404201    0.253467
     70          1           0      -18.789509    3.215032   -1.786250
     71          1           0      -17.448566    3.846036   -0.769099
     72          1           0      -18.838882    4.846189   -1.177010
     73          1           0      -19.219089   -3.197280    1.364928
     74          1           0      -19.550124   -2.835835   -0.394498
     75          1           0      -19.910039   -1.678755    0.906739
     76          1           0      -14.298822   -4.841168    0.478051
     77          1           0      -15.126282   -7.192537   -2.927492
     78          1           0      -13.642191   -8.044115   -2.518141
     79          1           0      -13.518955   -6.421055   -3.350141
     80         12           0       15.209826   -0.092622   -0.062596
     81          6           0       11.816830   -0.468847   -0.766576
     82          6           0       15.201686    2.877159   -1.813285
     83          6           0       18.368265    0.111389    0.803974
     84          6           0       14.821986   -2.584492    2.568507
     85          7           0       13.595444    1.041829   -1.247256
     86          6           0       12.273070    0.721947   -1.376201
     87          6           0       11.570950    1.702728   -2.246739
     88          6           0       12.662877    2.805946   -2.545658
     89          6           0       13.950827    2.237520   -1.831588
     90          6           0       12.793879    3.200535   -4.038301
     91          6           0       10.309604    2.307684   -1.583815
     92          6           0        9.098258    2.177896   -2.505580
     93          1           0        8.286035    3.472178   -2.812394
     94          7           0       16.608736    1.298348   -0.482941
     95          6           0       16.453781    2.446081   -1.258971
     96          6           0       17.781009    3.042378   -1.338537
     97          6           0       18.753835    2.222371   -0.598724
     98          6           0       17.935990    1.077392   -0.087425
     99          6           0       18.018206    4.347591   -1.914732
    100          6           0       20.138563    2.663932   -0.362511
    101          8           0       20.613601    3.688459   -0.805924
    102          6           0       21.094732    1.955130    0.532030
    103          7           0       16.343525   -1.039821    1.447868
    104          6           0       17.712287   -0.966877    1.391059
    105          6           0       18.325470   -1.826373    2.476367
    106          6           0       17.168145   -2.256530    3.297820
    107          6           0       16.037999   -1.904664    2.464431
    108          6           0       19.287040   -2.974540    1.961667
    109          6           0       17.016650   -1.439748    4.626850
    110          6           0       16.409842   -2.134333    5.756955
    111          7           0       13.663569   -1.337001    0.759092
    112          6           0       13.659220   -2.325324    1.752117
    113          6           0       12.434592   -3.058212    1.674437
    114          6           0       11.663507   -2.363513    0.750018
    115          6           0       12.450462   -1.273697    0.232178
    116          6           0       12.129926   -4.253061    2.500457
    117          6           0       10.390448   -2.294741    0.150696
    118          8           0        9.417999   -2.999903    0.302742
    119          6           0       10.446822   -1.136112   -0.869798
    120          6           0       10.103065   -1.653925   -2.203649
    121          8           0       10.897919   -2.171339   -3.006451
    122          8           0        8.737398   -1.626119   -2.369949
    123          6           0        8.146212   -1.993549   -3.646375
    124          1           0       15.139700    3.773275   -2.433355
    125          1           0       19.379010    0.091519    1.219139
    126          1           0       14.759738   -3.343746    3.350913
    127          1           0       11.496488    1.197458   -3.210093
    128          1           0       12.448036    3.768151   -2.081804
    129          1           0       11.849696    2.846997   -4.454349
    130          1           0       13.685744    2.852617   -4.559590
    131          1           0       12.816496    4.285890   -4.133157
    132          1           0       10.366141    3.383784   -1.420800
    133          1           0       10.176812    1.774597   -0.642563
    134          1           0        8.451570    1.584785   -1.859132
    135          1           0        9.419098    1.618525   -3.383129
    136          1           0       17.072130    4.717180   -2.310840
    137          1           0       18.682156    4.375168   -2.779261
    138          1           0       18.345297    5.033021   -1.132086
    139          1           0       20.946944    0.938046    0.168944
    140          1           0       20.752159    2.061347    1.561670
    141          1           0       22.117133    2.296761    0.369072
    142          1           0       18.970117   -1.125820    3.005897
    143          1           0       17.034735   -3.324314    3.471734
    144          1           0       19.500718   -2.846491    0.900349
    145          1           0       18.983774   -3.985741    2.235204
    146          1           0       20.306058   -2.879561    2.335715
    147          1           0       16.463400   -0.523194    4.421682
    148          1           0       17.990120   -1.104601    4.984460
    149          1           0       17.192101   -2.668219    6.297618
    150          1           0       15.601832   -2.798898    5.449276
    151          1           0       16.122711   -1.410394    6.520244
    152          1           0       13.010528   -4.883953    2.620596
    153          1           0       11.289775   -4.842723    2.133301
    154          1           0       11.951849   -3.837437    3.492292
    155          1           0        9.650084   -0.406027   -0.726753
    156          1           0        8.140019   -3.041633   -3.945855
    157          1           0        8.589019   -1.390389   -4.438719
    158          1           0        7.088856   -1.763830   -3.520068
 ---------------------------------------------------------------------

 SCF Done:  E(RPBE1PBE) =  -4067.35510903     A.U. after   16 cycles

 Excitation energies and oscillator strengths:

 Excited State   1:      Singlet-A      1.8227 eV  680.22 nm  f=0.0000  <S**2>=0.000
     312 -> 313        0.70710
 This state for optimization and/or second-order correction.
 Total Energy, E(TD-HF/TD-DFT) =  -4067.28812598
 Copying the excited state density for this state as the 1-particle RhoCI density.

 Excited State   2:      Singlet-A      1.8236 eV  679.89 nm  f=0.4008  <S**2>=0.000
     310 -> 316       -0.15421
     312 -> 314        0.69582
     312 <- 314       -0.11747

 Excited State   3:      Singlet-A      1.8373 eV  674.82 nm  f=0.3180  <S**2>=0.000
     309 -> 315       -0.18223
     311 -> 313        0.68888
     311 <- 313       -0.10408

 Excited State   4:      Singlet-A      2.0210 eV  613.47 nm  f=0.0000  <S**2>=0.000
     311 -> 314        0.70710

 Excited State   5:      Singlet-A      2.1968 eV  564.39 nm  f=0.0981  <S**2>=0.000
     309 -> 313        0.64587
     311 -> 315        0.27302

 The electronic state is 1-A.
 Alpha  occ. eigenvalues --  -46.92378 -46.91695 -19.25595 -19.25380 -19.20205
 Alpha  occ. eigenvalues --  -19.19650 -19.18978 -19.18694 -19.17842 -19.17639
 Alpha  occ. eigenvalues --  -14.41891 -14.41530 -14.41507 -14.40909 -14.39977
 Alpha  occ. eigenvalues --  -14.39009 -14.38913 -14.38139 -10.37048 -10.36160
 Alpha  occ. eigenvalues --  -10.32454 -10.31419 -10.30854 -10.30714 -10.29386
 Alpha  occ. eigenvalues --  -10.29381 -10.29238 -10.29147 -10.28969 -10.28778
 Alpha  occ. eigenvalues --  -10.28763 -10.28643 -10.28350 -10.28303 -10.28115
 Alpha  occ. eigenvalues --  -10.27989 -10.27846 -10.27754 -10.26937 -10.26928
 Alpha  occ. eigenvalues --  -10.26893 -10.26578 -10.26460 -10.26262 -10.26222
 Alpha  occ. eigenvalues --  -10.26195 -10.26113 -10.26077 -10.25993 -10.25914
 Alpha  occ. eigenvalues --  -10.25807 -10.25751 -10.25740 -10.25692 -10.25518
 Alpha  occ. eigenvalues --  -10.25493 -10.25381 -10.25299 -10.25188 -10.25106
 Alpha  occ. eigenvalues --  -10.24984 -10.24981 -10.24970 -10.24861 -10.24831
 Alpha  occ. eigenvalues --  -10.24817 -10.24463 -10.24336 -10.24256 -10.24170
 Alpha  occ. eigenvalues --  -10.24152 -10.24008 -10.24005 -10.23875 -10.23755
 Alpha  occ. eigenvalues --  -10.23575 -10.23344 -10.23272 -10.23225 -10.23081
 Alpha  occ. eigenvalues --  -10.23035 -10.22966 -10.22573 -10.22520 -10.22306
 Alpha  occ. eigenvalues --  -10.21371  -3.14450  -3.13869  -1.87293  -1.86833
 Alpha  occ. eigenvalues --   -1.86689  -1.86663  -1.86246  -1.86094  -1.10279
 Alpha  occ. eigenvalues --   -1.09122  -1.04915  -1.04621  -1.04218  -1.02597
 Alpha  occ. eigenvalues --   -1.01568  -1.01420  -0.99649  -0.99426  -0.98580
 Alpha  occ. eigenvalues --   -0.98530  -0.98146  -0.97691  -0.96833  -0.96225
 Alpha  occ. eigenvalues --   -0.87087  -0.86867  -0.85164  -0.83924  -0.83443
 Alpha  occ. eigenvalues --   -0.83436  -0.83284  -0.82877  -0.82113  -0.82095
 Alpha  occ. eigenvalues --   -0.81664  -0.81417  -0.80827  -0.80609  -0.79585
 Alpha  occ. eigenvalues --   -0.78924  -0.78863  -0.77807  -0.77779  -0.76861
 Alpha  occ. eigenvalues --   -0.76444  -0.75796  -0.75783  -0.75232  -0.75217
 Alpha  occ. eigenvalues --   -0.74702  -0.73070  -0.72535  -0.72348  -0.71474
 Alpha  occ. eigenvalues --   -0.71350  -0.71192  -0.70692  -0.70309  -0.69807
 Alpha  occ. eigenvalues --   -0.69799  -0.67929  -0.67658  -0.66550  -0.66452
 Alpha  occ. eigenvalues --   -0.64116  -0.63863  -0.63529  -0.63168  -0.62413
 Alpha  occ. eigenvalues --   -0.61958  -0.61932  -0.60989  -0.60919  -0.60478
 Alpha  occ. eigenvalues --   -0.59870  -0.59833  -0.59339  -0.59058  -0.59003
 Alpha  occ. eigenvalues --   -0.58542  -0.56687  -0.56135  -0.55359  -0.54439
 Alpha  occ. eigenvalues --   -0.54289  -0.54134  -0.54076  -0.53742  -0.53696
 Alpha  occ. eigenvalues --   -0.53087  -0.52599  -0.52151  -0.51921  -0.51330
 Alpha  occ. eigenvalues --   -0.51049  -0.50542  -0.50457  -0.50122  -0.50094
 Alpha  occ. eigenvalues --   -0.49858  -0.49797  -0.49436  -0.49280  -0.49091
 Alpha  occ. eigenvalues --   -0.48895  -0.48036  -0.47967  -0.47628  -0.47528
 Alpha  occ. eigenvalues --   -0.47519  -0.47408  -0.47161  -0.46998  -0.46831
 Alpha  occ. eigenvalues --   -0.46539  -0.46470  -0.46396  -0.46340  -0.46093
 Alpha  occ. eigenvalues --   -0.46030  -0.46010  -0.45880  -0.45075  -0.45041
 Alpha  occ. eigenvalues --   -0.44925  -0.44716  -0.44250  -0.44163  -0.44113
 Alpha  occ. eigenvalues --   -0.44016  -0.43843  -0.43813  -0.43569  -0.43542
 Alpha  occ. eigenvalues --   -0.43347  -0.43279  -0.43172  -0.43159  -0.42718
 Alpha  occ. eigenvalues --   -0.42638  -0.42353  -0.42316  -0.42041  -0.41895
 Alpha  occ. eigenvalues --   -0.41785  -0.41653  -0.41557  -0.41334  -0.41302
 Alpha  occ. eigenvalues --   -0.41085  -0.41022  -0.40938  -0.40680  -0.40562
 Alpha  occ. eigenvalues --   -0.40519  -0.40247  -0.40145  -0.39809  -0.39395
 Alpha  occ. eigenvalues --   -0.39357  -0.39310  -0.39143  -0.38931  -0.38925
 Alpha  occ. eigenvalues --   -0.38584  -0.38499  -0.38292  -0.38287  -0.38201
 Alpha  occ. eigenvalues --   -0.38156  -0.37947  -0.37946  -0.37868  -0.37825
 Alpha  occ. eigenvalues --   -0.37569  -0.37484  -0.37088  -0.37015  -0.36760
 Alpha  occ. eigenvalues --   -0.36665  -0.36526  -0.36440  -0.36362  -0.36200
 Alpha  occ. eigenvalues --   -0.36115  -0.35950  -0.35745  -0.35646  -0.35462
 Alpha  occ. eigenvalues --   -0.35203  -0.35084  -0.34852  -0.34139  -0.33975
 Alpha  occ. eigenvalues --   -0.33595  -0.33186  -0.33002  -0.32741  -0.32377
 Alpha  occ. eigenvalues --   -0.32376  -0.32087  -0.31894  -0.31604  -0.31460
 Alpha  occ. eigenvalues --   -0.31318  -0.30973  -0.29590  -0.29281  -0.29084
 Alpha  occ. eigenvalues --   -0.28982  -0.28691  -0.28294  -0.27090  -0.26972
 Alpha  occ. eigenvalues --   -0.25759  -0.25639  -0.25550  -0.25296  -0.25108
 Alpha  occ. eigenvalues --   -0.25009  -0.24777  -0.24377  -0.21320  -0.21144
 Alpha  occ. eigenvalues --   -0.19280  -0.18822
 Alpha virt. eigenvalues --   -0.11672  -0.11406  -0.06025  -0.05113  -0.04007
 Alpha virt. eigenvalues --   -0.03646  -0.02106  -0.01999  -0.00488  -0.00265
 Alpha virt. eigenvalues --   -0.00108   0.00403   0.00675   0.00750   0.01156

 Mulliken charges:
               1
     1  Mg  12.000000
     2  C    6.000000
     3  C    6.000000
     4  C    6.000000
     5  C    6.000000
     6  N    7.000000
     7  C    6.000000
     8  C    6.000000
     9  C    6.000000
    10  C    6.000000
    11  C    6.000000
    12  C    6.000000
    13  C    6.000000
    14  H    1.000000
    15  N    7.000000
    16  C    6.000000
    17  C    6.000000
    18  C    6.000000
    19  C    6.000000
    20  C    6.000000
    21  C    6.000000
    22  O    8.000000
    23  C    6.000000
    24  N    7.000000
    25  C    6.000000
    26  C    6.000000
    27  C    6.000000
    28  C    6.000000
    29  C    6.000000
    30  C    6.000000
    31  C    6.000000
    32  N    7.000000
    33  C    6.000000
    34  C    6.000000
    35  C    6.000000
    36  C    6.000000
    37  C    6.000000
    38  C    6.000000
    39  O    8.000000
    40  C    6.000000
    41  C    6.000000
    42  O    8.000000
    43  O    8.000000
    44  C    6.000000
    45  H    1.000000
    46  H    1.000000
    47  H    1.000000
    48  H    1.000000
    49  H    1.000000
    50  H    1.000000
    51  H    1.000000
    52  H    1.000000
    53  H    1.000000
    54  H    1.000000
    55  H    1.000000
    56  H    1.000000
    57  H    1.000000
    58  H    1.000000
    59  H    1.000000
    60  H    1.000000
    61  H    1.000000
    62  H    1.000000
    63  H    1.000000
    64  H    1.000000
    65  H    1.000000
    66  H    1.000000
    67  H    1.000000
    68  H    1.000000
    69  H    1.000000
    70  H    1.000000
    71  H    1.000000
    72  H    1.000000
    73  H    1.000000
    74  H    1.000000
    75  H    1.000000
    76  H    1.000000
    77  H    1.000000
    78  H    1.000000
    79  H    1.000000
    80  Mg  12.000000
    81  C    6.000000
    82  C    6.000000
    83  C    6.000000
    84  C    6.000000
    85  N    7.000000
    86  C    6.000000
    87  C    6.000000
    88  C    6.000000
    89  C    6.000000
    90  C    6.000000
    91  C    6.000000
    92  C    6.000000
    93  H    1.000000
    94  N    7.000000
    95  C    6.000000
    96  C    6.000000
    97  C    6.000000
    98  C    6.000000
    99  C    6.000000
   100  C    6.000000
   101  O    8.000000
   102  C    6.000000
   103  N    7.000000
   104  C    6.000000
   105  C    6.000000
   106  C    6.000000
   107  C    6.000000
   108  C    6.000000
   109  C    6.000000
   110  C    6.000000
   111  N    7.000000
   112  C    6.000000
   113  C    6.000000
   114  C    6.000000
   115  C    6.000000
   116  C    6.000000
   117  C    6.000000
   118  O    8.000000
   119  C    6.000000
   120  C    6.000000
   121  O    8.000000
   122  O    8.000000
   123  C    6.000000
   124  H    1.000000
   125  H    1.000000
   126  H    1.000000
   127  H    1.000000
   128  H    1.000000
   129  H    1.000000
   130  H    1.000000
   131  H    1.000000
   132  H    1.000000
   133  H    1.000000
   134  H    1.000000
   135  H    1.000000
   136  H    1.000000
   137  H    1.000000
   138  H    1.000000
   139  H    1.000000
   140  H    1.000000
   141  H    1.000000
   142  H    1.000000
   143  H    1.000000
   144  H    1.000000
   145  H    1.000000
   146  H    1.000000
   147  H    1.000000
   148  H    1.000000
   149  H    1.000000
   150  H    1.000000
   151  H    1.000000
   152  H    1.000000
   153  H    1.000000
   154  H    1.000000
   155  H    1.000000
   156  H    1.000000
   157  H    1.000000
   158  H    1.000000
 Sum of Mulliken charges = 624.00000

 Dipole moment (field-independent basis, Debye):
    X=              0.0000    Y=              0.0000    Z=              0.0000  Tot=              0.0000
 Quadrupole moment (field-independent basis, Debye-Ang):
   XX=             -0.0000   YY=              0.0000   ZZ=             -0.0000
   XY=             -0.0000   XZ=             -0.0000   YZ=              0.0000

 Normal termination of Gaussian 16 at Thu Oct 14 15:33:12 2021.
