 Gaussian 16, Revision A.03,
 Gaussian 16:  ES64L-G16RevA.03 25-Dec-2016

 --------------------------------------------------------
 #p PBE1PBE/Def2SVP td=(nstates=5) density=(transition=1)
 --------------------------------------------------------

 --------------------------------
 TDDFT excited states in gaussian
 --------------------------------
 Symbolic Z-matrix:
 Charge =  0 Multiplicity = 1

                         Standard orientation:
 ---------------------------------------------------------------------
 Center     Atomic      Atomic             Coordinates (Angstroms)
 Number     Number       Type             X           Y           Z
 ---------------------------------------------------------------------
      1         12           0       26.097559   -0.910301    0.194008
      2          6           0       26.991484    2.381209   -0.760385
      3          6           0       25.658982    0.398111    3.405597
      4          6           0       25.136389   -3.874981    1.226655
      5          6           0       27.366640   -2.099798   -2.816716
      6          7           0       26.280934    1.158553    1.146500
      7          6           0       26.510212    2.360166    0.547595
      8          6           0       26.504564    3.587256    1.475291
      9          6           0       26.177956    2.818709    2.854216
     10          6           0       26.054181    1.388508    2.419023
     11          6           0       27.304880    2.947723    3.954016
     12          6           0       25.413779    4.639561    1.091277
     13          6           0       25.709545    6.030724    0.544492
     14          1           0       24.837557    7.225101    0.908630
     15          7           0       25.402181   -1.655883    2.037809
     16          6           0       25.359288   -0.980390    3.265994
     17          6           0       24.977960   -1.943497    4.274746
     18          6           0       24.663779   -3.148169    3.650500
     19          6           0       25.011760   -2.913210    2.235564
     20          6           0       24.763060   -1.463616    5.669556
     21          6           0       24.196384   -4.489228    4.215113
     22          8           0       23.984335   -5.500328    3.538817
     23          6           0       23.842730   -4.526671    5.649683
     24          7           0       26.310138   -2.765127   -0.601444
     25          6           0       25.645268   -3.851270   -0.103456
     26          6           0       25.543232   -4.989562   -1.174572
     27          6           0       26.327539   -4.423128   -2.351039
     28          6           0       26.773584   -3.010144   -1.882588
     29          6           0       26.009635   -6.386548   -0.649128
     30          6           0       25.438012   -4.403694   -3.603439
     31          6           0       26.020672   -4.860548   -4.891234
     32          7           0       27.092977   -0.105245   -1.437096
     33          6           0       27.523872   -0.692275   -2.599865
     34          6           0       28.089323    0.273018   -3.494385
     35          6           0       27.832096    1.595266   -2.880266
     36          6           0       27.205877    1.268578   -1.613418
     37          6           0       28.761096   -0.034480   -4.843646
     38          6           0       27.958162    3.070093   -2.995221
     39          8           0       28.309890    3.772397   -3.958248
     40          6           0       27.405203    3.615191   -1.614409
     41          6           0       28.611656    4.355447   -1.127731
     42          8           0       29.564782    3.925052   -0.489701
     43          8           0       28.495605    5.634277   -1.360091
     44          6           0       29.646385    6.535295   -1.108161
     45          1           0       25.415508    0.965231    4.306094
     46          1           0       24.888306   -4.914978    1.447252
     47          1           0       27.694254   -2.483393   -3.784832
     48          1           0       27.518154    3.989606    1.495805
     49          1           0       25.236140    3.038782    3.357813
     50          1           0       28.283626    3.294991    3.624146
     51          1           0       27.481779    1.977621    4.417139
     52          1           0       26.951041    3.629591    4.727507
     53          1           0       24.835162    4.822688    1.996833
     54          1           0       24.749940    4.232770    0.329488
     55          1           0       25.493556    5.873569   -0.512374
     56          1           0       26.758598    6.152834    0.814270
     57          1           0       23.733531   -1.606584    5.994873
     58          1           0       24.992553   -0.401540    5.759386
     59          1           0       25.377014   -1.984374    6.403758
     60          1           0       23.171295   -3.699372    5.879934
     61          1           0       24.690311   -4.292942    6.294107
     62          1           0       23.319949   -5.430392    5.961246
     63          1           0       24.468095   -5.025806   -1.349499
     64          1           0       27.160892   -5.072831   -2.617936
     65          1           0       26.188501   -6.424093    0.425340
     66          1           0       26.932818   -6.742219   -1.105155
     67          1           0       25.315665   -7.156277   -0.986483
     68          1           0       25.168548   -3.351106   -3.680400
     69          1           0       24.539504   -5.016286   -3.533396
     70          1           0       25.861481   -4.025803   -5.573443
     71          1           0       25.584693   -5.815366   -5.184918
     72          1           0       27.104732   -4.976209   -4.889830
     73          1           0       29.827613   -0.186086   -4.681475
     74          1           0       28.563694    0.797417   -5.519553
     75          1           0       28.392782   -0.960546   -5.285603
     76          1           0       26.595647    4.304510   -1.853631
     77          1           0       29.977215    6.552677   -0.070302
     78          1           0       29.484918    7.564716   -1.427437
     79          1           0       30.561190    6.331037   -1.663656
     80         12           0      -26.954251   -0.425667   -0.217908
     81          6           0      -24.994287    2.413129   -0.804784
     82          6           0      -28.356408    1.111567    2.493453
     83          6           0      -28.514091   -3.260132    0.470495
     84          6           0      -25.269116   -1.980960   -2.959770
     85          7           0      -26.644266    1.544712    0.748165
     86          6           0      -25.858485    2.595974    0.330924
     87          6           0      -26.208335    3.858197    1.097314
     88          6           0      -27.067088    3.312871    2.306050
     89          6           0      -27.443684    1.902227    1.737712
     90          6           0      -26.291896    3.222199    3.614322
     91          6           0      -26.825355    4.925388    0.121473
     92          6           0      -27.408827    6.166379    0.852379
     93          1           0      -26.752490    6.555859    2.160611
     94          7           0      -28.224172   -0.968592    1.216327
     95          6           0      -28.622037   -0.239356    2.329765
     96          6           0      -29.501704   -1.026515    3.211668
     97          6           0      -29.565481   -2.302504    2.571769
     98          6           0      -28.737375   -2.210505    1.372214
     99          6           0      -30.147866   -0.467969    4.423785
    100          6           0      -30.330255   -3.504565    3.062825
    101          8           0      -30.369652   -4.583905    2.409543
    102          6           0      -31.152174   -3.446807    4.321868
    103          7           0      -26.934044   -2.348933   -1.168827
    104          6           0      -27.688233   -3.318421   -0.650348
    105          6           0      -27.419363   -4.693251   -1.406441
    106          6           0      -26.307429   -4.280934   -2.523823
    107          6           0      -26.142543   -2.795457   -2.199952
    108          6           0      -26.926159   -5.761618   -0.346611
    109          6           0      -26.791992   -4.449636   -4.027116
    110          6           0      -26.600471   -5.864092   -4.645889
    111          7           0      -25.428583    0.016641   -1.558518
    112          6           0      -24.909280   -0.646792   -2.701502
    113          6           0      -23.907184    0.264289   -3.409313
    114          6           0      -23.849400    1.440402   -2.668419
    115          6           0      -24.860493    1.264187   -1.594869
    116          6           0      -23.158839   -0.005354   -4.677059
    117          6           0      -23.287996    2.767116   -2.566736
    118          8           0      -22.452841    3.368250   -3.249779
    119          6           0      -24.146819    3.538589   -1.446291
    120          6           0      -23.281266    4.279213   -0.452752
    121          8           0      -22.818594    3.782179    0.538292
    122          8           0      -23.285520    5.668895   -0.709595
    123          6           0      -22.883777    6.558457    0.390408
    124          1           0      -28.671307    1.715129    3.347696
    125          1           0      -29.019852   -4.197488    0.712023
    126          1           0      -24.644299   -2.425555   -3.737323
    127          1           0      -25.275971    4.286642    1.462849
    128          1           0      -28.004207    3.838298    2.492815
    129          1           0      -26.855883    3.819295    4.330749
    130          1           0      -25.264388    3.533907    3.428207
    131          1           0      -26.363243    2.239571    4.080030
    132          1           0      -27.426118    4.293041   -0.531483
    133          1           0      -25.997607    5.246833   -0.509779
    134          1           0      -28.454262    5.894608    0.998623
    135          1           0      -27.329226    7.020445    0.179971
    136          1           0      -29.691732   -1.054381    5.221199
    137          1           0      -31.235679   -0.525885    4.397356
    138          1           0      -29.955339    0.568044    4.705480
    139          1           0      -31.959085   -2.728432    4.183847
    140          1           0      -30.360132   -3.158088    5.013940
    141          1           0      -31.550185   -4.393710    4.685592
    142          1           0      -28.405207   -4.862758   -1.841177
    143          1           0      -25.280655   -4.609839   -2.358097
    144          1           0      -26.834343   -5.381013    0.670500
    145          1           0      -25.942816   -6.137332   -0.630681
    146          1           0      -27.714124   -6.513059   -0.305659
    147          1           0      -26.453179   -3.634066   -4.665345
    148          1           0      -27.870848   -4.299329   -4.004157
    149          1           0      -27.579489   -6.183767   -5.001108
    150          1           0      -26.145785   -6.510642   -3.895221
    151          1           0      -25.933149   -5.846758   -5.507891
    152          1           0      -23.623245    0.619360   -5.440363
    153          1           0      -23.213141   -1.065024   -4.929479
    154          1           0      -22.103199    0.263128   -4.711827
    155          1           0      -24.802521    4.219286   -1.988478
    156          1           0      -21.795522    6.505092    0.406049
    157          1           0      -23.411435    6.300637    1.308893
    158          1           0      -23.243347    7.551446    0.121958
 ---------------------------------------------------------------------

 SCF Done:  E(RPBE1PBE) =  -4067.38395798     A.U. after   16 cycles

 Excitation energies and oscillator strengths:

 Excited State   1:      Singlet-A      1.8621 eV  665.84 nm  f=0.3507  <S**2>=0.000
     309 -> 315       -0.19117
     312 -> 314        0.68775
     312 <- 314       -0.10010
 This state for optimization and/or second-order correction.
 Total Energy, E(TD-HF/TD-DFT) =  -4067.31552840
 Copying the excited state density for this state as the 1-particle RhoCI density.

 Excited State   2:      Singlet-A      1.8639 eV  665.20 nm  f=0.3902  <S**2>=0.000
     310 -> 316        0.18305
     311 -> 313        0.68932

 Excited State   3:      Singlet-A      1.8674 eV  663.93 nm  f=0.0000  <S**2>=0.000
     312 -> 313        0.70711

 Excited State   4:      Singlet-A      2.1873 eV  566.85 nm  f=0.0000  <S**2>=0.000
     311 -> 314        0.70711

 Excited State   5:      Singlet-A      2.2119 eV  560.54 nm  f=0.1053  <S**2>=0.000
     310 -> 313        0.65037
     311 -> 316       -0.26777

 The electronic state is 1-A.
 Alpha  occ. eigenvalues --  -46.91955 -46.91508 -19.25952 -19.24645 -19.20478
 Alpha  occ. eigenvalues --  -19.19505 -19.19426 -19.19366 -19.18601 -19.18489
 Alpha  occ. eigenvalues --  -14.41946 -14.41612 -14.41551 -14.41149 -14.39660
 Alpha  occ. eigenvalues --  -14.39531 -14.39351 -14.38852 -10.36423 -10.35707
 Alpha  occ. eigenvalues --  -10.32850 -10.32805 -10.32697 -10.32346 -10.29205
 Alpha  occ. eigenvalues --  -10.29144 -10.28980 -10.28937 -10.28847 -10.28780
 Alpha  occ. eigenvalues --  -10.28598 -10.28480 -10.28465 -10.28407 -10.28092
 Alpha  occ. eigenvalues --  -10.28084 -10.28037 -10.27924 -10.27764 -10.27298
 Alpha  occ. eigenvalues --  -10.27152 -10.26986 -10.26891 -10.26865 -10.26833
 Alpha  occ. eigenvalues --  -10.26777 -10.26607 -10.26473 -10.26385 -10.26187
 Alpha  occ. eigenvalues --  -10.26182 -10.26121 -10.25958 -10.25915 -10.25909
 Alpha  occ. eigenvalues --  -10.25874 -10.25726 -10.25604 -10.25522 -10.25342
 Alpha  occ. eigenvalues --  -10.25336 -10.25244 -10.24969 -10.24927 -10.24886
 Alpha  occ. eigenvalues --  -10.24791 -10.24649 -10.24483 -10.24362 -10.24144
 Alpha  occ. eigenvalues --  -10.24121 -10.23928 -10.23848 -10.23777 -10.23687
 Alpha  occ. eigenvalues --  -10.23657 -10.23524 -10.23446 -10.23357 -10.23298
 Alpha  occ. eigenvalues --  -10.23249 -10.23088 -10.22929 -10.22899 -10.22856
 Alpha  occ. eigenvalues --  -10.22352  -3.14130  -3.13766  -1.86972  -1.86614
 Alpha  occ. eigenvalues --   -1.86506  -1.86357  -1.86126  -1.86021  -1.12641
 Alpha  occ. eigenvalues --   -1.10203  -1.04521  -1.03863  -1.03351  -1.02610
 Alpha  occ. eigenvalues --   -1.02463  -1.01346  -1.00033  -0.98938  -0.98442
 Alpha  occ. eigenvalues --   -0.98112  -0.97461  -0.97433  -0.96289  -0.96087
 Alpha  occ. eigenvalues --   -0.86310  -0.85966  -0.83833  -0.83213  -0.83172
 Alpha  occ. eigenvalues --   -0.82942  -0.82844  -0.82114  -0.81880  -0.81862
 Alpha  occ. eigenvalues --   -0.81081  -0.81059  -0.80674  -0.79514  -0.78681
 Alpha  occ. eigenvalues --   -0.78519  -0.77884  -0.77250  -0.77170  -0.76671
 Alpha  occ. eigenvalues --   -0.76338  -0.76187  -0.75192  -0.75061  -0.74840
 Alpha  occ. eigenvalues --   -0.74347  -0.73224  -0.72869  -0.71863  -0.71777
 Alpha  occ. eigenvalues --   -0.71289  -0.71198  -0.70592  -0.70093  -0.69485
 Alpha  occ. eigenvalues --   -0.68920  -0.66790  -0.66540  -0.66225  -0.65924
 Alpha  occ. eigenvalues --   -0.63728  -0.63488  -0.62993  -0.62789  -0.62647
 Alpha  occ. eigenvalues --   -0.62237  -0.61499  -0.61259  -0.60204  -0.59947
 Alpha  occ. eigenvalues --   -0.59716  -0.59664  -0.59389  -0.58776  -0.58479
 Alpha  occ. eigenvalues --   -0.58302  -0.57086  -0.55863  -0.55260  -0.55204
 Alpha  occ. eigenvalues --   -0.54079  -0.53999  -0.53621  -0.53275  -0.53110
 Alpha  occ. eigenvalues --   -0.52422  -0.52279  -0.52214  -0.52193  -0.51370
 Alpha  occ. eigenvalues --   -0.51130  -0.50763  -0.50325  -0.50203  -0.49617
 Alpha  occ. eigenvalues --   -0.49173  -0.48895  -0.48807  -0.48754  -0.48483
 Alpha  occ. eigenvalues --   -0.48425  -0.47981  -0.47906  -0.47863  -0.47412
 Alpha  occ. eigenvalues --   -0.47236  -0.47156  -0.46891  -0.46795  -0.46737
 Alpha  occ. eigenvalues --   -0.46518  -0.46361  -0.46096  -0.45990  -0.45752
 Alpha  occ. eigenvalues --   -0.45360  -0.45329  -0.45053  -0.44977  -0.44613
 Alpha  occ. eigenvalues --   -0.44603  -0.44380  -0.44217  -0.44108  -0.44052
 Alpha  occ. eigenvalues --   -0.43920  -0.43899  -0.43653  -0.43554  -0.43531
 Alpha  occ. eigenvalues --   -0.43477  -0.43177  -0.43137  -0.42864  -0.42799
 Alpha  occ. eigenvalues --   -0.42712  -0.42609  -0.42374  -0.42202  -0.42034
 Alpha  occ. eigenvalues --   -0.41542  -0.41266  -0.40980  -0.40939  -0.40805
 Alpha  occ. eigenvalues --   -0.40783  -0.40645  -0.40477  -0.40338  -0.40337
 Alpha  occ. eigenvalues --   -0.40210  -0.40010  -0.39992  -0.39875  -0.39807
 Alpha  occ. eigenvalues --   -0.39670  -0.39521  -0.39445  -0.39149  -0.38990
 Alpha  occ. eigenvalues --   -0.38866  -0.38826  -0.38798  -0.38318  -0.38071
 Alpha  occ. eigenvalues --   -0.37993  -0.37887  -0.37843  -0.37741  -0.37701
 Alpha  occ. eigenvalues --   -0.37491  -0.37377  -0.37185  -0.37044  -0.36697
 Alpha  occ. eigenvalues --   -0.36413  -0.36310  -0.36283  -0.36101  -0.36084
 Alpha  occ. eigenvalues --   -0.35770  -0.35720  -0.35347  -0.35292  -0.35086
 Alpha  occ. eigenvalues --   -0.35023  -0.34817  -0.34417  -0.34146  -0.34067
 Alpha  occ. eigenvalues --   -0.33479  -0.33418  -0.33257  -0.33013  -0.32906
 Alpha  occ. eigenvalues --   -0.32245  -0.31767  -0.31733  -0.31344  -0.31209
 Alpha  occ. eigenvalues --   -0.30943  -0.30867  -0.29685  -0.29402  -0.29375
 Alpha  occ. eigenvalues --   -0.28856  -0.28704  -0.28080  -0.27260  -0.26850
 Alpha  occ. eigenvalues --   -0.26402  -0.26324  -0.25944  -0.25774  -0.25700
 Alpha  occ. eigenvalues --   -0.25607  -0.25206  -0.24686  -0.20900  -0.20814
 Alpha  occ. eigenvalues --   -0.18777  -0.18172
 Alpha virt. eigenvalues --   -0.11060  -0.10491  -0.05552  -0.05387  -0.04418
 Alpha virt. eigenvalues --   -0.04387  -0.02276  -0.02205  -0.00205  -0.00164
 Alpha virt. eigenvalues --    0.00596   0.01071   0.01081   0.01622   0.01710

 Mulliken charges:
               1
     1  Mg  11.999811
     2  C    6.000705
     3  C    5.999989
     4  C    5.999127
     5  C    6.000180
     6  N    7.000430
     7  C    5.998823
     8  C    6.000549
     9  C    5.999617
    10  C    6.001053
    11  C    5.999852
    12  C    6.000078
    13  C    6.000094
    14  H    0.999773
    15  N    6.999813
    16  C    6.001106
    17  C    6.000657
    18  C    6.000640
    19  C    6.000852
    20  C    5.999809
    21  C    6.000452
    22  O    8.000999
    23  C    5.999847
    24  N    6.999654
    25  C    6.001413
    26  C    5.999776
    27  C    6.000252
    28  C    5.999070
    29  C    5.999915
    30  C    6.000081
    31  C    6.000006
    32  N    7.000011
    33  C    5.999035
    34  C    5.998938
    35  C    5.999969
    36  C    5.998932
    37  C    6.000002
    38  C    5.999342
    39  O    7.999077
    40  C    5.999930
    41  C    5.999963
    42  O    7.999756
    43  O    7.999968
    44  C    6.000068
    45  H    1.000435
    46  H    1.000100
    47  H    0.999665
    48  H    0.999984
    49  H    0.999959
    50  H    1.000453
    51  H    0.999863
    52  H    1.000235
    53  H    0.999699
    54  H    1.000015
    55  H    1.000142
    56  H    1.000022
    57  H    1.000597
    58  H    1.000527
    59  H    1.000651
    60  H    1.000174
    61  H    1.000273
    62  H    1.000479
    63  H    0.999967
    64  H    0.999930
    65  H    0.999807
    66  H    1.000272
    67  H    1.000100
    68  H    1.000114
    69  H    0.999615
    70  H    1.000093
    71  H    0.999785
    72  H    1.000054
    73  H    0.999344
    74  H    0.999492
    75  H    0.999380
    76  H    0.999702
    77  H    0.999811
    78  H    0.999859
    79  H    0.999989
    80  Mg  11.998339
    81  C    5.978206
    82  C    6.007318
    83  C    6.020689
    84  C    5.991551
    85  N    6.989427
    86  C    6.033819
    87  C    5.993555
    88  C    6.007849
    89  C    5.971604
    90  C    6.001791
    91  C    5.996837
    92  C    6.000416
    93  H    1.004662
    94  N    7.004914
    95  C    5.965891
    96  C    5.975768
    97  C    5.985436
    98  C    5.974647
    99  C    6.004665
   100  C    5.987885
   101  O    7.969383
   102  C    6.002577
   103  N    7.003478
   104  C    5.971394
   105  C    6.005005
   106  C    5.991333
   107  C    6.032659
   108  C    6.002494
   109  C    5.993360
   110  C    6.001691
   111  N    6.998245
   112  C    6.034162
   113  C    6.030795
   114  C    6.003466
   115  C    6.024441
   116  C    5.995931
   117  C    6.018017
   118  O    8.030042
   119  C    6.002558
   120  C    6.001180
   121  O    8.007809
   122  O    8.000756
   123  C    5.998153
   124  H    0.987633
   125  H    0.995417
   126  H    1.008754
   127  H    0.999529
   128  H    0.999707
   129  H    0.996612
   130  H    0.985976
   131  H    1.005075
   132  H    1.002083
   133  H    0.993416
   134  H    1.006244
   135  H    0.998585
   136  H    0.983229
   137  H    0.981853
   138  H    0.982817
   139  H    0.993121
   140  H    0.995860
   141  H    0.986030
   142  H    1.002838
   143  H    0.999490
   144  H    1.006223
   145  H    0.990974
   146  H    1.001225
   147  H    0.995523
   148  H    1.009047
   149  H    1.005003
   150  H    1.004460
   151  H    0.999605
   152  H    1.018476
   153  H    1.016176
   154  H    1.017539
   155  H    1.006004
   156  H    1.001326
   157  H    1.006235
   158  H    1.003718
 Sum of Mulliken charges = 624.00000

 Dipole moment (field-independent basis, Debye):
    X=              6.5750    Y=              2.4647    Z=             -7.0729  Tot=              9.9666
 Quadrupole moment (field-independent basis, Debye-Ang):
   XX=           -364.5423   YY=              1.0383   ZZ=              1.2535
   XY=            -74.6199   XZ=            205.7510   YZ=              4.1528

 Normal termination of Gaussian 16 at Fri Oct 15 13:26:39 2021.
