 Gaussian 16, Revision A.03,
 Gaussian 16:  ES64L-G16RevA.03 25-Dec-2016

 --------------------------------------------------------
 #p PBE1PBE/Def2SVP td=(nstates=5) density=(transition=1)
 --------------------------------------------------------

 --------------------------------
 TDDFT excited states in gaussian
 --------------------------------
 Symbolic Z-matrix:
 Charge =  0 Multiplicity = 1

                         Standard orientation:
 ---------------------------------------------------------------------
 Center     Atomic      Atomic             Coordinates (Angstroms)
 Number     Number       Type             X           Y           Z
 ---------------------------------------------------------------------
      1         12           0      -14.206606    0.038698    0.248373
      2          6           0      -11.750509    1.728852   -1.419209
      3          6           0      -15.165092   -1.349334   -2.884883
      4          6           0      -16.379598   -1.944897    1.900455
      5          6           0      -12.597389    0.731945    3.259513
      6          7           0      -13.239873   -0.091268   -1.937802
      7          6           0      -12.395592    0.887726   -2.368476
      8          6           0      -12.141181    0.729498   -3.841971
      9          6           0      -13.244674   -0.309366   -4.324268
     10          6           0      -13.984938   -0.637502   -2.989156
     11          6           0      -13.911189   -0.013888   -5.618089
     12          6           0      -10.658297    0.428635   -4.367248
     13          6           0       -9.743518   -0.371231   -3.487838
     14          1           0       -8.996585   -1.527925   -4.137024
     15          7           0      -15.724031   -1.248237   -0.430356
     16          6           0      -15.975195   -1.661609   -1.701889
     17          6           0      -17.068002   -2.586664   -1.762482
     18          6           0      -17.523018   -2.684991   -0.347350
     19          6           0      -16.530824   -1.932674    0.451281
     20          6           0      -17.641136   -3.241356   -2.927331
     21          6           0      -18.741326   -3.402789    0.215540
     22          8           0      -19.390129   -4.110742   -0.469702
     23          6           0      -19.198081   -3.399652    1.648085
     24          7           0      -14.362920   -0.613876    2.235233
     25          6           0      -15.450103   -1.272754    2.664490
     26          6           0      -15.301977   -1.662952    4.227433
     27          6           0      -14.307198   -0.482335    4.670174
     28          6           0      -13.699288   -0.154407    3.327234
     29          6           0      -16.604056   -1.698868    5.032409
     30          6           0      -13.363847   -0.894217    5.814762
     31          6           0      -13.169643    0.012393    7.035900
     32          7           0      -12.450977    0.938029    0.820458
     33          6           0      -11.914625    1.201944    2.074631
     34          6           0      -10.795955    2.058248    1.991522
     35          6           0      -10.687234    2.364460    0.645055
     36          6           0      -11.727041    1.654619   -0.053688
     37          6           0       -9.962484    2.592965    3.114860
     38          6           0      -10.047912    3.095177   -0.368454
     39          8           0       -9.089479    3.855092   -0.245104
     40          6           0      -10.566511    2.605737   -1.750612
     41          6           0      -10.917389    3.902209   -2.465701
     42          8           0      -10.504763    4.208721   -3.604368
     43          8           0      -11.852032    4.556510   -1.698289
     44          6           0      -12.601571    5.733002   -2.202805
     45          1           0      -15.326409   -1.831919   -3.851020
     46          1           0      -16.939778   -2.730806    2.411100
     47          1           0      -12.141736    1.001987    4.214078
     48          1           0      -12.298146    1.695757   -4.322750
     49          1           0      -12.714858   -1.245370   -4.498794
     50          1           0      -14.997690   -0.087853   -5.573314
     51          1           0      -13.478953   -0.579425   -6.443597
     52          1           0      -13.747771    1.032790   -5.874896
     53          1           0      -10.061014    1.319253   -4.562924
     54          1           0      -10.710856   -0.207357   -5.251459
     55          1           0      -10.161388   -0.639783   -2.518169
     56          1           0       -8.887562    0.266282   -3.263997
     57          1           0      -17.523559   -2.585765   -3.789597
     58          1           0      -18.694291   -3.498530   -2.820530
     59          1           0      -17.069589   -4.157096   -3.082753
     60          1           0      -18.845024   -2.389737    1.858064
     61          1           0      -18.675559   -4.132366    2.262273
     62          1           0      -20.265911   -3.520672    1.831020
     63          1           0      -14.744434   -2.599908    4.244197
     64          1           0      -14.733877    0.468828    4.987545
     65          1           0      -16.611524   -0.807155    5.659813
     66          1           0      -16.735808   -2.675519    5.497219
     67          1           0      -17.494947   -1.622818    4.409717
     68          1           0      -12.383630   -1.054145    5.364861
     69          1           0      -13.646220   -1.897934    6.132791
     70          1           0      -13.257049   -0.425276    8.030453
     71          1           0      -13.759126    0.928692    6.983724
     72          1           0      -12.178460    0.424586    6.849527
     73          1           0       -9.579099    3.601537    2.958392
     74          1           0       -9.118673    1.919695    3.267600
     75          1           0      -10.510436    2.681475    4.053862
     76          1           0       -9.697167    2.096684   -2.165007
     77          1           0      -13.644054    5.733386   -1.884959
     78          1           0      -12.560170    5.718256   -3.292039
     79          1           0      -12.278849    6.744503   -1.959386
     80         12           0       13.668715   -0.856336   -0.522301
     81          6           0       13.861487    2.689601   -0.033655
     82          6           0       10.399085   -0.607121   -0.692565
     83          6           0       13.658982   -4.149185   -0.146159
     84          6           0       17.296644   -0.880230    0.082925
     85          7           0       12.303897    0.865240   -0.423628
     86          6           0       12.563409    2.229911   -0.187256
     87          6           0       11.268844    3.127280   -0.156187
     88          6           0       10.160148    1.942851   -0.455438
     89          6           0       10.957832    0.646066   -0.550590
     90          6           0        9.060875    1.843133    0.687414
     91          6           0       11.254963    4.341605   -1.148748
     92          6           0        9.887836    4.955757   -1.425219
     93          1           0        9.711145    6.393030   -0.902145
     94          7           0       12.219255   -2.201107   -0.531840
     95          6           0       10.867396   -1.971871   -0.635953
     96          6           0       10.099925   -3.199102   -0.663065
     97          6           0       11.101914   -4.237704   -0.511583
     98          6           0       12.424659   -3.518823   -0.461026
     99          6           0        8.664607   -3.327425   -0.872284
    100          6           0       10.944083   -5.747730   -0.469302
    101          8           0       11.861724   -6.519437   -0.458284
    102          6           0        9.522286   -6.228767   -0.350779
    103          7           0       15.251670   -2.312171   -0.027400
    104          6           0       14.947791   -3.633384    0.028789
    105          6           0       16.225244   -4.488819    0.241992
    106          6           0       17.364374   -3.413155    0.172243
    107          6           0       16.607346   -2.108465    0.015144
    108          6           0       16.316164   -5.373844    1.531589
    109          6           0       18.408193   -3.585206   -0.987093
    110          6           0       19.454683   -4.687121   -0.709882
    111          7           0       15.273455    0.523716   -0.052153
    112          6           0       16.636441    0.388558    0.078256
    113          6           0       17.213751    1.667573    0.203220
    114          6           0       16.228670    2.582260    0.225707
    115          6           0       15.005912    1.858079    0.087040
    116          6           0       18.725485    1.852487    0.223275
    117          6           0       15.824205    3.983186    0.380922
    118          8           0       16.484227    4.972392    0.569217
    119          6           0       14.230779    4.075957    0.234981
    120          6           0       13.683752    4.442040    1.577780
    121          8           0       13.369762    3.767257    2.532303
    122          8           0       13.537240    5.814301    1.532416
    123          6           0       12.984097    6.472764    2.739771
    124          1           0        9.307598   -0.632110   -0.708375
    125          1           0       13.571247   -5.205809    0.117936
    126          1           0       18.373982   -1.052757    0.138298
    127          1           0       11.107456    3.437729    0.876261
    128          1           0        9.634466    2.202423   -1.374637
    129          1           0        8.076145    1.737608    0.232406
    130          1           0        9.013446    2.623411    1.446562
    131          1           0        9.164739    0.903317    1.228816
    132          1           0       11.741283    3.880973   -2.009625
    133          1           0       11.919689    5.182438   -0.949447
    134          1           0        9.120110    4.335805   -0.963089
    135          1           0        9.778270    5.089162   -2.501107
    136          1           0        8.673096   -3.843129   -1.832506
    137          1           0        8.178874   -2.351530   -0.877724
    138          1           0        8.098925   -3.946157   -0.175962
    139          1           0        9.128449   -6.436209   -1.345657
    140          1           0        8.948006   -5.711567    0.418408
    141          1           0        9.618062   -7.108193    0.285416
    142          1           0       16.370099   -5.015644   -0.701651
    143          1           0       17.823809   -3.320728    1.156606
    144          1           0       17.156683   -5.173871    2.196780
    145          1           0       16.537482   -6.378163    1.171081
    146          1           0       15.431529   -5.364570    2.168319
    147          1           0       18.957650   -2.653531   -1.117187
    148          1           0       17.806912   -3.767397   -1.878892
    149          1           0       19.525905   -4.883826    0.360030
    150          1           0       20.386206   -4.327577   -1.146865
    151          1           0       19.205161   -5.658274   -1.138362
    152          1           0       19.006888    2.839254   -0.144592
    153          1           0       19.183358    1.055799   -0.363108
    154          1           0       19.116094    1.673384    1.225243
    155          1           0       13.937023    4.785604   -0.538824
    156          1           0       13.555138    7.393914    2.855267
    157          1           0       13.058856    5.877864    3.649928
    158          1           0       11.962575    6.637114    2.395465
 ---------------------------------------------------------------------

 SCF Done:  E(RPBE1PBE) =  -4067.33517217     A.U. after   16 cycles

 Excitation energies and oscillator strengths:

 Excited State   1:      Singlet-A      1.6139 eV  768.21 nm  f=0.0000  <S**2>=0.000
     312 -> 313        0.70710
 This state for optimization and/or second-order correction.
 Total Energy, E(TD-HF/TD-DFT) =  -4067.27586140
 Copying the excited state density for this state as the 1-particle RhoCI density.

 Excited State   2:      Singlet-A      1.7943 eV  690.99 nm  f=0.3820  <S**2>=0.000
     309 -> 315        0.16558
     311 -> 313        0.69585
     311 <- 313       -0.11769

 Excited State   3:      Singlet-A      1.8601 eV  666.54 nm  f=0.3774  <S**2>=0.000
     310 -> 316        0.16821
     312 -> 314        0.69333
     312 <- 314       -0.10830

 Excited State   4:      Singlet-A      2.1505 eV  576.54 nm  f=0.0000  <S**2>=0.000
     310 -> 313        0.70710

 Excited State   5:      Singlet-A      2.1558 eV  575.12 nm  f=0.1295  <S**2>=0.000
     308 -> 313       -0.10101
     309 -> 313        0.65385
     311 -> 315       -0.23175

 The electronic state is 1-A.
 Alpha  occ. eigenvalues --  -46.93418 -46.91929 -19.26837 -19.24429 -19.20576
 Alpha  occ. eigenvalues --  -19.20016 -19.19230 -19.19116 -19.18588 -19.17676
 Alpha  occ. eigenvalues --  -14.42180 -14.41639 -14.41574 -14.40812 -14.39896
 Alpha  occ. eigenvalues --  -14.39290 -14.39214 -14.38456 -10.37509 -10.35871
 Alpha  occ. eigenvalues --  -10.32349 -10.31839 -10.31326 -10.30972 -10.30006
 Alpha  occ. eigenvalues --  -10.29725 -10.29266 -10.28961 -10.28846 -10.28720
 Alpha  occ. eigenvalues --  -10.28609 -10.28540 -10.28345 -10.28302 -10.28245
 Alpha  occ. eigenvalues --  -10.28056 -10.27898 -10.27801 -10.27763 -10.26929
 Alpha  occ. eigenvalues --  -10.26831 -10.26778 -10.26734 -10.26662 -10.26612
 Alpha  occ. eigenvalues --  -10.26381 -10.26307 -10.26307 -10.26181 -10.26131
 Alpha  occ. eigenvalues --  -10.26032 -10.25965 -10.25880 -10.25843 -10.25485
 Alpha  occ. eigenvalues --  -10.25456 -10.25317 -10.25280 -10.25208 -10.25074
 Alpha  occ. eigenvalues --  -10.24813 -10.24679 -10.24647 -10.24645 -10.24529
 Alpha  occ. eigenvalues --  -10.24458 -10.24388 -10.24371 -10.24369 -10.24360
 Alpha  occ. eigenvalues --  -10.24334 -10.24331 -10.24120 -10.23890 -10.23703
 Alpha  occ. eigenvalues --  -10.23625 -10.23572 -10.23341 -10.23203 -10.23047
 Alpha  occ. eigenvalues --  -10.22966 -10.22965 -10.22963 -10.22766 -10.22678
 Alpha  occ. eigenvalues --  -10.22333  -3.15470  -3.14050  -1.88266  -1.87880
 Alpha  occ. eigenvalues --   -1.87667  -1.86887  -1.86405  -1.86297  -1.10396
 Alpha  occ. eigenvalues --   -1.10342  -1.06442  -1.06076  -1.05464  -1.03983
 Alpha  occ. eigenvalues --   -1.02187  -1.02054  -0.99819  -0.99007  -0.98409
 Alpha  occ. eigenvalues --   -0.97932  -0.97699  -0.97070  -0.96980  -0.96138
 Alpha  occ. eigenvalues --   -0.88006  -0.87285  -0.84173  -0.83166  -0.83076
 Alpha  occ. eigenvalues --   -0.82810  -0.82479  -0.82249  -0.82228  -0.81647
 Alpha  occ. eigenvalues --   -0.81422  -0.81132  -0.80424  -0.80315  -0.78939
 Alpha  occ. eigenvalues --   -0.78291  -0.78126  -0.77452  -0.77408  -0.76492
 Alpha  occ. eigenvalues --   -0.76384  -0.76163  -0.75380  -0.74982  -0.74941
 Alpha  occ. eigenvalues --   -0.74365  -0.72862  -0.72368  -0.72186  -0.71456
 Alpha  occ. eigenvalues --   -0.71238  -0.71024  -0.70858  -0.69941  -0.69777
 Alpha  occ. eigenvalues --   -0.69141  -0.68136  -0.67146  -0.66282  -0.65671
 Alpha  occ. eigenvalues --   -0.64435  -0.63898  -0.63894  -0.63070  -0.62797
 Alpha  occ. eigenvalues --   -0.62127  -0.61376  -0.61239  -0.60725  -0.60162
 Alpha  occ. eigenvalues --   -0.59467  -0.59307  -0.59082  -0.58912  -0.58743
 Alpha  occ. eigenvalues --   -0.58395  -0.58181  -0.55952  -0.54911  -0.54573
 Alpha  occ. eigenvalues --   -0.54075  -0.54010  -0.53589  -0.53289  -0.52693
 Alpha  occ. eigenvalues --   -0.52604  -0.52433  -0.52056  -0.51911  -0.51469
 Alpha  occ. eigenvalues --   -0.51209  -0.50640  -0.50436  -0.50098  -0.49941
 Alpha  occ. eigenvalues --   -0.49725  -0.49531  -0.49043  -0.48960  -0.48756
 Alpha  occ. eigenvalues --   -0.48575  -0.48463  -0.48205  -0.48027  -0.47793
 Alpha  occ. eigenvalues --   -0.47243  -0.47140  -0.46889  -0.46556  -0.46464
 Alpha  occ. eigenvalues --   -0.46462  -0.46440  -0.46183  -0.46069  -0.45859
 Alpha  occ. eigenvalues --   -0.45729  -0.45438  -0.45412  -0.45246  -0.45056
 Alpha  occ. eigenvalues --   -0.44773  -0.44698  -0.44386  -0.44365  -0.44208
 Alpha  occ. eigenvalues --   -0.44174  -0.43998  -0.43908  -0.43705  -0.43700
 Alpha  occ. eigenvalues --   -0.43339  -0.43019  -0.43007  -0.42590  -0.42555
 Alpha  occ. eigenvalues --   -0.42423  -0.42383  -0.42354  -0.42074  -0.42001
 Alpha  occ. eigenvalues --   -0.41903  -0.41741  -0.41713  -0.41371  -0.41253
 Alpha  occ. eigenvalues --   -0.40993  -0.40954  -0.40527  -0.40359  -0.40337
 Alpha  occ. eigenvalues --   -0.40214  -0.40211  -0.40170  -0.39923  -0.39858
 Alpha  occ. eigenvalues --   -0.39831  -0.39716  -0.39634  -0.39569  -0.39428
 Alpha  occ. eigenvalues --   -0.39045  -0.38862  -0.38671  -0.38582  -0.38394
 Alpha  occ. eigenvalues --   -0.38224  -0.38017  -0.37954  -0.37580  -0.37571
 Alpha  occ. eigenvalues --   -0.37528  -0.37365  -0.37175  -0.36958  -0.36861
 Alpha  occ. eigenvalues --   -0.36835  -0.36662  -0.36613  -0.36479  -0.36380
 Alpha  occ. eigenvalues --   -0.36267  -0.35875  -0.35721  -0.35552  -0.35540
 Alpha  occ. eigenvalues --   -0.35311  -0.35201  -0.34298  -0.34013  -0.33747
 Alpha  occ. eigenvalues --   -0.33713  -0.33118  -0.33049  -0.32714  -0.32397
 Alpha  occ. eigenvalues --   -0.32014  -0.31902  -0.31424  -0.31358  -0.31225
 Alpha  occ. eigenvalues --   -0.30738  -0.30591  -0.29879  -0.29341  -0.29066
 Alpha  occ. eigenvalues --   -0.29048  -0.28654  -0.28197  -0.27226  -0.26807
 Alpha  occ. eigenvalues --   -0.26399  -0.25719  -0.25695  -0.25422  -0.25344
 Alpha  occ. eigenvalues --   -0.25294  -0.25005  -0.23804  -0.21478  -0.20508
 Alpha  occ. eigenvalues --   -0.19423  -0.18536
 Alpha virt. eigenvalues --   -0.12121  -0.10915  -0.05548  -0.04661  -0.03956
 Alpha virt. eigenvalues --   -0.03248  -0.01953  -0.01855  -0.01713  -0.00174
 Alpha virt. eigenvalues --   -0.00120   0.00546   0.00898   0.01473   0.01735

 Mulliken charges:
               1
     1  Mg  12.000000
     2  C    6.000000
     3  C    6.000000
     4  C    6.000000
     5  C    6.000000
     6  N    7.000000
     7  C    6.000000
     8  C    6.000000
     9  C    6.000000
    10  C    6.000000
    11  C    6.000000
    12  C    6.000000
    13  C    6.000000
    14  H    1.000000
    15  N    7.000000
    16  C    6.000000
    17  C    6.000000
    18  C    6.000000
    19  C    6.000000
    20  C    6.000000
    21  C    6.000000
    22  O    8.000000
    23  C    6.000000
    24  N    7.000000
    25  C    6.000000
    26  C    6.000000
    27  C    6.000000
    28  C    6.000000
    29  C    6.000000
    30  C    6.000000
    31  C    6.000000
    32  N    7.000000
    33  C    6.000000
    34  C    6.000000
    35  C    6.000000
    36  C    6.000000
    37  C    6.000000
    38  C    6.000000
    39  O    8.000000
    40  C    6.000000
    41  C    6.000000
    42  O    8.000000
    43  O    8.000000
    44  C    6.000000
    45  H    1.000000
    46  H    1.000000
    47  H    1.000000
    48  H    1.000000
    49  H    1.000000
    50  H    1.000000
    51  H    1.000000
    52  H    1.000000
    53  H    1.000000
    54  H    1.000000
    55  H    1.000000
    56  H    1.000000
    57  H    1.000000
    58  H    1.000000
    59  H    1.000000
    60  H    1.000000
    61  H    1.000000
    62  H    1.000000
    63  H    1.000000
    64  H    1.000000
    65  H    1.000000
    66  H    1.000000
    67  H    1.000000
    68  H    1.000000
    69  H    1.000000
    70  H    1.000000
    71  H    1.000000
    72  H    1.000000
    73  H    1.000000
    74  H    1.000000
    75  H    1.000000
    76  H    1.000000
    77  H    1.000000
    78  H    1.000000
    79  H    1.000000
    80  Mg  12.000000
    81  C    6.000000
    82  C    6.000000
    83  C    6.000000
    84  C    6.000000
    85  N    7.000000
    86  C    6.000000
    87  C    6.000000
    88  C    6.000000
    89  C    6.000000
    90  C    6.000000
    91  C    6.000000
    92  C    6.000000
    93  H    1.000000
    94  N    7.000000
    95  C    6.000000
    96  C    6.000000
    97  C    6.000000
    98  C    6.000000
    99  C    6.000000
   100  C    6.000000
   101  O    8.000000
   102  C    6.000000
   103  N    7.000000
   104  C    6.000000
   105  C    6.000000
   106  C    6.000000
   107  C    6.000000
   108  C    6.000000
   109  C    6.000000
   110  C    6.000000
   111  N    7.000000
   112  C    6.000000
   113  C    6.000000
   114  C    6.000000
   115  C    6.000000
   116  C    6.000000
   117  C    6.000000
   118  O    8.000000
   119  C    6.000000
   120  C    6.000000
   121  O    8.000000
   122  O    8.000000
   123  C    6.000000
   124  H    1.000000
   125  H    1.000000
   126  H    1.000000
   127  H    1.000000
   128  H    1.000000
   129  H    1.000000
   130  H    1.000000
   131  H    1.000000
   132  H    1.000000
   133  H    1.000000
   134  H    1.000000
   135  H    1.000000
   136  H    1.000000
   137  H    1.000000
   138  H    1.000000
   139  H    1.000000
   140  H    1.000000
   141  H    1.000000
   142  H    1.000000
   143  H    1.000000
   144  H    1.000000
   145  H    1.000000
   146  H    1.000000
   147  H    1.000000
   148  H    1.000000
   149  H    1.000000
   150  H    1.000000
   151  H    1.000000
   152  H    1.000000
   153  H    1.000000
   154  H    1.000000
   155  H    1.000000
   156  H    1.000000
   157  H    1.000000
   158  H    1.000000
 Sum of Mulliken charges = 624.00000

 Dipole moment (field-independent basis, Debye):
    X=             -0.0000    Y=             -0.0000    Z=             -0.0000  Tot=              0.0000
 Quadrupole moment (field-independent basis, Debye-Ang):
   XX=             -0.0000   YY=              0.0000   ZZ=             -0.0000
   XY=             -0.0000   XZ=              0.0000   YZ=             -0.0000

 Normal termination of Gaussian 16 at Thu Oct 14 05:25:47 2021.
