 Gaussian 16, Revision A.03,
 Gaussian 16:  ES64L-G16RevA.03 25-Dec-2016

 --------------------------------------------------------
 #p PBE1PBE/Def2SVP td=(nstates=5) density=(transition=1)
 --------------------------------------------------------

 --------------------------------
 TDDFT excited states in gaussian
 --------------------------------
 Symbolic Z-matrix:
 Charge =  0 Multiplicity = 1

                         Standard orientation:
 ---------------------------------------------------------------------
 Center     Atomic      Atomic             Coordinates (Angstroms)
 Number     Number       Type             X           Y           Z
 ---------------------------------------------------------------------
      1         12           0        0.592547   -0.007623    0.254296
      2          6           0       -2.810153   -0.053437   -0.044704
      3          6           0        0.527936   -3.532987   -0.225560
      4          6           0        3.964762    0.041792    0.146414
      5          6           0        0.557333    3.443940   -0.217518
      6          7           0       -1.025282   -1.608243   -0.488317
      7          6           0       -2.353009   -1.379405   -0.284622
      8          6           0       -3.137056   -2.626996   -0.584185
      9          6           0       -2.037361   -3.772288   -0.676507
     10          6           0       -0.717370   -2.972648   -0.439044
     11          6           0       -2.376021   -5.068187   -0.035042
     12          6           0       -4.210970   -2.627706   -1.772499
     13          6           0       -3.950023   -1.754902   -2.964173
     14          1           0       -4.103533   -2.394554   -4.336970
     15          7           0        2.016890   -1.553701    0.235725
     16          6           0        1.813121   -2.888202    0.067378
     17          6           0        3.042301   -3.624871    0.059680
     18          6           0        4.078715   -2.580024    0.290871
     19          6           0        3.367422   -1.284055    0.238262
     20          6           0        3.242390   -5.057628   -0.085745
     21          6           0        5.571911   -2.753365    0.528924
     22          8           0        6.081930   -3.808802    0.396128
     23          6           0        6.560164   -1.663445    0.839171
     24          7           0        2.016501    1.484394   -0.125361
     25          6           0        3.324532    1.260026    0.072280
     26          6           0        4.192984    2.571362   -0.306110
     27          6           0        3.066758    3.684001   -0.035724
     28          6           0        1.831874    2.828239   -0.188418
     29          6           0        5.470529    2.784043    0.510793
     30          6           0        3.214724    4.916746   -0.945715
     31          6           0        3.152417    6.333684   -0.363272
     32          7           0       -0.822194    1.417055   -0.178264
     33          6           0       -0.732989    2.797467   -0.307806
     34          6           0       -2.009048    3.396869   -0.370864
     35          6           0       -2.898635    2.346002   -0.219620
     36          6           0       -2.131871    1.132844   -0.102867
     37          6           0       -2.335320    4.853921   -0.485017
     38          6           0       -4.226141    1.912133   -0.080458
     39          8           0       -5.241469    2.604498   -0.112385
     40          6           0       -4.260222    0.358248   -0.136456
     41          6           0       -5.102872   -0.011742    1.075302
     42          8           0       -6.097165   -0.767006    1.033687
     43          8           0       -4.481685    0.511410    2.184818
     44          6           0       -4.888404    0.142329    3.562801
     45          1           0        0.449038   -4.586515   -0.501572
     46          1           0        5.030521    0.046681   -0.090961
     47          1           0        0.554136    4.532950   -0.293562
     48          1           0       -3.810258   -2.818057    0.252317
     49          1           0       -1.944110   -4.009391   -1.735919
     50          1           0       -1.584267   -5.454757    0.606557
     51          1           0       -2.738567   -5.802463   -0.754433
     52          1           0       -3.202771   -4.919291    0.659585
     53          1           0       -5.210733   -2.310666   -1.475521
     54          1           0       -4.236519   -3.614832   -2.235108
     55          1           0       -3.054453   -1.138696   -2.891804
     56          1           0       -4.779147   -1.049018   -3.023075
     57          1           0        2.379524   -5.575009    0.332471
     58          1           0        4.145479   -5.432237    0.394649
     59          1           0        3.305273   -5.256364   -1.156237
     60          1           0        5.849994   -1.044961    1.388539
     61          1           0        6.919314   -1.149304   -0.051782
     62          1           0        7.432084   -1.935790    1.434111
     63          1           0        4.359502    2.512353   -1.382127
     64          1           0        2.963943    4.089486    0.970508
     65          1           0        5.268456    3.599891    1.205347
     66          1           0        6.335560    2.850672   -0.148400
     67          1           0        5.727309    1.928667    1.134982
     68          1           0        2.433703    4.837732   -1.702402
     69          1           0        4.126037    4.790321   -1.530395
     70          1           0        3.934406    7.043848   -0.632513
     71          1           0        3.002143    6.343516    0.717069
     72          1           0        2.164824    6.661828   -0.685861
     73          1           0       -3.239983    5.161293    0.040140
     74          1           0       -2.445598    5.099821   -1.541430
     75          1           0       -1.570028    5.501898   -0.055754
     76          1           0       -4.751634    0.164557   -1.089145
     77          1           0       -4.038042    0.034340    4.235870
     78          1           0       -5.427735   -0.803764    3.513899
     79          1           0       -5.563176    0.779398    4.133207
 ---------------------------------------------------------------------

 SCF Done:  E(RPBE1PBE) =  -2033.63801488     A.U. after   16 cycles

 Excitation energies and oscillator strengths:

 Excited State   1:      Singlet-A      1.7944 eV  690.96 nm  f=0.3701  <S**2>=0.000
     155 ->158        -0.16560
     156 ->157         0.69590
     156 <-157        -0.11768
 This state for optimization and/or second-order correction.
 Total Energy, E(TD-HF/TD-DFT) =  -2033.57207320
 Copying the excited state density for this state as the 1-particle RhoCI density.

 Excited State   2:      Singlet-A      2.1559 eV  575.10 nm  f=0.1300  <S**2>=0.000
     154 ->157        -0.10040
     155 ->157         0.65389
     156 ->158         0.23180

 Excited State   3:      Singlet-A      2.4376 eV  508.64 nm  f=0.0087  <S**2>=0.000
     154 ->157         0.68887

 Excited State   4:      Singlet-A      2.6555 eV  466.89 nm  f=0.0031  <S**2>=0.000
     152 ->157         0.66752
     152 ->159        -0.14670
     153 ->157         0.11090

 Excited State   5:      Singlet-A      2.7527 eV  450.41 nm  f=0.0050  <S**2>=0.000
     152 ->157        -0.11806
     153 ->157         0.68466

 The electronic state is 1-A.
 Alpha  occ. eigenvalues --  -46.93357 -19.26773 -19.20508 -19.18520 -19.17623
 Alpha  occ. eigenvalues --  -14.42120 -14.41512 -14.39836 -14.39228 -10.37441
 Alpha  occ. eigenvalues --  -10.31258 -10.30918 -10.29945 -10.29662 -10.29206
 Alpha  occ. eigenvalues --  -10.28898 -10.28786 -10.28659 -10.28241 -10.28183
 Alpha  occ. eigenvalues --  -10.26867 -10.26775 -10.26243 -10.26239 -10.26125
 Alpha  occ. eigenvalues --  -10.25964 -10.25902 -10.25816 -10.25783 -10.25403
 Alpha  occ. eigenvalues --  -10.25255 -10.25147 -10.25014 -10.24754 -10.24403
 Alpha  occ. eigenvalues --  -10.24313 -10.24052 -10.23839 -10.23650 -10.23563
 Alpha  occ. eigenvalues --  -10.22984 -10.22711 -10.22627  -3.15408  -1.88205
 Alpha  occ. eigenvalues --   -1.87819  -1.87606  -1.10331  -1.06389  -1.03914
 Alpha  occ. eigenvalues --   -1.01986  -0.99758  -0.98945  -0.97637  -0.96918
 Alpha  occ. eigenvalues --   -0.87942  -0.84116  -0.83012  -0.82747  -0.82186
 Alpha  occ. eigenvalues --   -0.81585  -0.80365  -0.78876  -0.78233  -0.77388
 Alpha  occ. eigenvalues --   -0.76432  -0.75320  -0.74881  -0.72802  -0.72125
 Alpha  occ. eigenvalues --   -0.71393  -0.70963  -0.69880  -0.68073  -0.66221
 Alpha  occ. eigenvalues --   -0.64379  -0.63836  -0.62727  -0.61178  -0.60668
 Alpha  occ. eigenvalues --   -0.60101  -0.59244  -0.58844  -0.58117  -0.54849
 Alpha  occ. eigenvalues --   -0.54013  -0.53528  -0.52631  -0.51992  -0.51848
 Alpha  occ. eigenvalues --   -0.51149  -0.50374  -0.49880  -0.49660  -0.48984
 Alpha  occ. eigenvalues --   -0.48510  -0.47964  -0.47736  -0.47077  -0.46495
 Alpha  occ. eigenvalues --   -0.46399  -0.46385  -0.46009  -0.45667  -0.45380
 Alpha  occ. eigenvalues --   -0.45184  -0.44639  -0.44324  -0.44147  -0.43848
 Alpha  occ. eigenvalues --   -0.43644  -0.42959  -0.42491  -0.42325  -0.42013
 Alpha  occ. eigenvalues --   -0.41937  -0.41842  -0.41680  -0.41190  -0.40935
 Alpha  occ. eigenvalues --   -0.40297  -0.40153  -0.40145  -0.39764  -0.39569
 Alpha  occ. eigenvalues --   -0.38983  -0.38804  -0.38335  -0.37960  -0.37516
 Alpha  occ. eigenvalues --   -0.37472  -0.37108  -0.36903  -0.36772  -0.36550
 Alpha  occ. eigenvalues --   -0.36418  -0.36208  -0.35482  -0.35134  -0.33946
 Alpha  occ. eigenvalues --   -0.33684  -0.33057  -0.32333  -0.31837  -0.31152
 Alpha  occ. eigenvalues --   -0.30672  -0.29815  -0.28985  -0.28590  -0.27162
 Alpha  occ. eigenvalues --   -0.26335  -0.25276  -0.24948  -0.23749  -0.21417
 Alpha  occ. eigenvalues --   -0.19362
 Alpha virt. eigenvalues --   -0.12059  -0.05488  -0.03893  -0.01894  -0.01796
 Alpha virt. eigenvalues --   -0.00053   0.00609   0.01814   0.02857   0.04004
 Alpha virt. eigenvalues --    0.04689   0.05321   0.06142   0.06538   0.06914

 Mulliken charges:
               1
     1  Mg  12.002558
     2  C    6.000892
     3  C    5.985943
     4  C    5.983004
     5  C    6.012647
     6  N    6.994953
     7  C    5.975023
     8  C    6.009397
     9  C    5.986693
    10  C    6.035225
    11  C    5.998719
    12  C    6.000520
    13  C    6.002672
    14  H    0.989896
    15  N    6.996132
    16  C    6.042165
    17  C    6.023187
    18  C    6.006464
    19  C    6.040009
    20  C    5.996292
    21  C    6.010501
    22  O    8.018945
    23  C    6.000871
    24  N    7.002452
    25  C    6.029175
    26  C    5.990506
    27  C    6.011094
    28  C    5.965149
    29  C    5.999624
    30  C    6.002083
    31  C    5.998717
    32  N    7.000409
    33  C    5.968156
    34  C    5.976053
    35  C    5.993183
    36  C    5.976163
    37  C    6.002150
    38  C    5.982947
    39  O    7.966018
    40  C    6.001876
    41  C    5.994154
    42  O    7.988824
    43  O    8.005164
    44  C    6.004806
    45  H    1.008885
    46  H    1.006466
    47  H    0.992010
    48  H    1.001991
    49  H    1.005607
    50  H    0.994807
    51  H    1.003962
    52  H    1.008910
    53  H    1.003130
    54  H    0.991118
    55  H    1.004002
    56  H    1.003885
    57  H    1.017684
    58  H    1.014767
    59  H    1.021047
    60  H    1.004497
    61  H    1.011372
    62  H    1.012193
    63  H    1.003733
    64  H    0.996887
    65  H    1.007465
    66  H    1.000906
    67  H    0.993513
    68  H    1.002816
    69  H    0.990594
    70  H    0.995478
    71  H    0.999038
    72  H    1.004787
    73  H    0.987315
    74  H    0.982625
    75  H    0.982876
    76  H    0.991981
    77  H    0.992991
    78  H    0.993318
    79  H    0.995931
 Sum of Mulliken charges = 312.00000

 Dipole moment (field-independent basis, Debye):
    X=              7.6080    Y=             -7.1210    Z=              0.4485  Tot=             10.4303
 Quadrupole moment (field-independent basis, Debye-Ang):
   XX=              4.8874   YY=              2.6024   ZZ=             -1.2834
   XY=             -5.9970   XZ=              1.5513   YZ=              0.8640

 Normal termination of Gaussian 16 at Wed Oct 13 19:02:09 2021.
