 Gaussian 16, Revision A.03,
 Gaussian 16:  ES64L-G16RevA.03 25-Dec-2016

 --------------------------------------------------------
 #p PBE1PBE/Def2SVP td=(nstates=5) density=(transition=1)
 --------------------------------------------------------

 --------------------------------
 TDDFT excited states in gaussian
 --------------------------------
 Symbolic Z-matrix:
 Charge =  0 Multiplicity = 1

                         Standard orientation:
 ---------------------------------------------------------------------
 Center     Atomic      Atomic             Coordinates (Angstroms)
 Number     Number       Type             X           Y           Z
 ---------------------------------------------------------------------
      1         12           0       -0.714159    0.251769    0.021574
      2          6           0        2.803975    0.285946    0.257656
      3          6           0       -0.583187   -3.173416   -0.228166
      4          6           0       -4.056551    0.138705   -0.288512
      5          6           0       -0.750421    3.735701   -0.301056
      6          7           0        0.937024   -1.175130    0.158814
      7          6           0        2.256807   -1.043144    0.256490
      8          6           0        3.078639   -2.348052    0.305241
      9          6           0        1.899260   -3.335541   -0.153172
     10          6           0        0.653244   -2.484812   -0.116321
     11          6           0        2.118007   -3.952677   -1.513182
     12          6           0        3.670465   -2.713139    1.776982
     13          6           0        4.936791   -3.572502    1.718989
     14          1           0        6.185394   -2.905498    2.351417
     15          7           0       -2.187168   -1.322027   -0.064103
     16          6           0       -1.880226   -2.697686   -0.208806
     17          6           0       -3.117785   -3.421073   -0.022020
     18          6           0       -4.148500   -2.485588   -0.012598
     19          6           0       -3.503512   -1.138175   -0.103500
     20          6           0       -3.231727   -4.932495   -0.085757
     21          6           0       -5.644730   -2.642745    0.133544
     22          8           0       -6.340756   -1.671591    0.194655
     23          6           0       -6.292639   -3.983188    0.281751
     24          7           0       -2.181047    1.683238   -0.451945
     25          6           0       -3.517314    1.407362   -0.453246
     26          6           0       -4.244240    2.769988   -0.625251
     27          6           0       -3.301624    3.823751   -0.072091
     28          6           0       -1.959413    3.087151   -0.292686
     29          6           0       -4.479881    3.033148   -2.111878
     30          6           0       -3.564942    4.216056    1.334596
     31          6           0       -3.795171    3.139176    2.365814
     32          7           0        0.689945    1.758793    0.011607
     33          6           0        0.559810    3.126978   -0.135415
     34          6           0        1.893664    3.741575   -0.050454
     35          6           0        2.775954    2.661743    0.127323
     36          6           0        2.020916    1.521145    0.157882
     37          6           0        2.205777    5.169444   -0.183571
     38          6           0        4.130110    2.283947    0.431341
     39          8           0        5.165554    2.989015    0.614928
     40          6           0        4.160982    0.687466    0.555229
     41          6           0        5.102389    0.196790   -0.514030
     42          8           0        5.051731    0.574374   -1.646975
     43          8           0        6.028792   -0.800263   -0.104652
     44          6           0        6.729243   -1.511163   -1.217222
     45          1           0       -0.559488   -4.256503   -0.361031
     46          1           0       -5.129824    0.143644   -0.491593
     47          1           0       -0.702271    4.823850   -0.219817
     48          1           0        3.944960   -2.268311   -0.352625
     49          1           0        1.897109   -4.110467    0.614364
     50          1           0        2.534654   -4.943265   -1.331570
     51          1           0        2.708485   -3.319657   -2.175882
     52          1           0        1.108687   -4.155144   -1.871338
     53          1           0        2.925426   -3.268363    2.347688
     54          1           0        3.852246   -1.805741    2.353257
     55          1           0        5.020875   -3.759517    0.648251
     56          1           0        4.782282   -4.561310    2.150407
     57          1           0       -2.214781   -5.283685    0.084984
     58          1           0       -3.473952   -5.110280   -1.133139
     59          1           0       -3.901421   -5.332566    0.675799
     60          1           0       -5.967309   -4.225504    1.293600
     61          1           0       -5.919692   -4.746294   -0.400854
     62          1           0       -7.376242   -3.891776    0.199743
     63          1           0       -5.232050    2.830857   -0.169808
     64          1           0       -3.317276    4.781876   -0.590503
     65          1           0       -3.831858    3.726362   -2.648280
     66          1           0       -5.505213    3.387024   -2.218929
     67          1           0       -4.436658    2.075603   -2.632107
     68          1           0       -4.385777    4.929533    1.411019
     69          1           0       -2.664959    4.757479    1.625536
     70          1           0       -2.927518    3.174534    3.025249
     71          1           0       -3.929197    2.085220    2.120468
     72          1           0       -4.649084    3.433976    2.975547
     73          1           0        2.045166    5.455255   -1.223044
     74          1           0        3.238744    5.240096    0.156956
     75          1           0        1.522752    5.784269    0.404116
     76          1           0        4.463638    0.501044    1.585806
     77          1           0        7.527575   -0.888182   -1.620414
     78          1           0        6.061975   -1.798425   -2.031109
     79          1           0        7.275646   -2.411815   -0.938739
 ---------------------------------------------------------------------

 SCF Done:  E(RPBE1PBE) =  -2033.68237259     A.U. after   16 cycles

 Excitation energies and oscillator strengths:

 Excited State   1:      Singlet-A      1.8249 eV  679.40 nm  f=0.3580  <S**2>=0.000
     155 ->158        -0.17187
     156 ->157         0.69451
     156 <-157        -0.10919
 This state for optimization and/or second-order correction.
 Total Energy, E(TD-HF/TD-DFT) =  -2033.61530859
 Copying the excited state density for this state as the 1-particle RhoCI density.

 Excited State   2:      Singlet-A      2.1781 eV  569.23 nm  f=0.1128  <S**2>=0.000
     155 ->157         0.65724
     156 ->158         0.25090

 Excited State   3:      Singlet-A      2.8948 eV  428.30 nm  f=0.0001  <S**2>=0.000
     152 ->157         0.10254
     153 ->157         0.58589
     153 ->159        -0.14916
     154 ->157         0.32226

 Excited State   4:      Singlet-A      3.0109 eV  411.78 nm  f=0.0017  <S**2>=0.000
     152 ->157        -0.43912
     153 ->157        -0.19130
     154 ->157         0.50040

 Excited State   5:      Singlet-A      3.0602 eV  405.15 nm  f=0.0018  <S**2>=0.000
     151 ->157         0.51633
     151 ->159         0.10542
     152 ->157        -0.28009
     153 ->157         0.19473
     154 ->157        -0.28996

 The electronic state is 1-A.
 Alpha  occ. eigenvalues --  -46.92038 -19.25186 -19.20262 -19.19050 -19.18738
 Alpha  occ. eigenvalues --  -14.42725 -14.41076 -14.39250 -14.38898 -10.36470
 Alpha  occ. eigenvalues --  -10.32124 -10.32070 -10.29352 -10.29040 -10.28951
 Alpha  occ. eigenvalues --  -10.28830 -10.28519 -10.28275 -10.27957 -10.27504
 Alpha  occ. eigenvalues --  -10.26731 -10.26687 -10.26389 -10.26330 -10.26129
 Alpha  occ. eigenvalues --  -10.25969 -10.25835 -10.25584 -10.25410 -10.25256
 Alpha  occ. eigenvalues --  -10.24920 -10.24909 -10.24884 -10.24589 -10.24532
 Alpha  occ. eigenvalues --  -10.23791 -10.23677 -10.23360 -10.23082 -10.22822
 Alpha  occ. eigenvalues --  -10.22584 -10.22418 -10.21914  -3.14116  -1.86980
 Alpha  occ. eigenvalues --   -1.86467  -1.86355  -1.10376  -1.06641  -1.02248
 Alpha  occ. eigenvalues --   -1.01576  -0.99840  -0.97982  -0.97847  -0.96424
 Alpha  occ. eigenvalues --   -0.87425  -0.84270  -0.83728  -0.83001  -0.82002
 Alpha  occ. eigenvalues --   -0.81305  -0.80807  -0.78901  -0.77910  -0.76834
 Alpha  occ. eigenvalues --   -0.76572  -0.75508  -0.74235  -0.72993  -0.71682
 Alpha  occ. eigenvalues --   -0.71512  -0.70587  -0.69345  -0.67016  -0.65762
 Alpha  occ. eigenvalues --   -0.64062  -0.63303  -0.62313  -0.61409  -0.60211
 Alpha  occ. eigenvalues --   -0.59451  -0.58842  -0.57904  -0.56400  -0.54778
 Alpha  occ. eigenvalues --   -0.54466  -0.53766  -0.53625  -0.53079  -0.52295
 Alpha  occ. eigenvalues --   -0.50924  -0.50337  -0.49251  -0.49077  -0.48659
 Alpha  occ. eigenvalues --   -0.48506  -0.48118  -0.47943  -0.47706  -0.47131
 Alpha  occ. eigenvalues --   -0.46529  -0.46050  -0.45957  -0.45484  -0.45364
 Alpha  occ. eigenvalues --   -0.44745  -0.44614  -0.44310  -0.43971  -0.43851
 Alpha  occ. eigenvalues --   -0.43729  -0.43031  -0.42841  -0.42401  -0.42195
 Alpha  occ. eigenvalues --   -0.41935  -0.41451  -0.41069  -0.40767  -0.40434
 Alpha  occ. eigenvalues --   -0.40153  -0.40015  -0.39618  -0.39132  -0.38876
 Alpha  occ. eigenvalues --   -0.38579  -0.38402  -0.38029  -0.37845  -0.37653
 Alpha  occ. eigenvalues --   -0.37331  -0.37293  -0.36696  -0.36411  -0.35891
 Alpha  occ. eigenvalues --   -0.35836  -0.35276  -0.35209  -0.34715  -0.34457
 Alpha  occ. eigenvalues --   -0.33297  -0.32709  -0.32350  -0.32115  -0.31458
 Alpha  occ. eigenvalues --   -0.31225  -0.29820  -0.29542  -0.28818  -0.27134
 Alpha  occ. eigenvalues --   -0.25991  -0.25591  -0.25304  -0.25264  -0.21036
 Alpha  occ. eigenvalues --   -0.18967
 Alpha virt. eigenvalues --   -0.11443  -0.05256  -0.03823  -0.02240   0.00031
 Alpha virt. eigenvalues --    0.00728   0.00929   0.01342   0.02598   0.03553
 Alpha virt. eigenvalues --    0.04471   0.05248   0.05881   0.05977   0.06601

 Mulliken charges:
               1
     1  Mg  11.995551
     2  C    6.017520
     3  C    5.987699
     4  C    5.986162
     5  C    6.010241
     6  N    7.011308
     7  C    5.961802
     8  C    6.014012
     9  C    5.983395
    10  C    6.037750
    11  C    5.996442
    12  C    6.000921
    13  C    6.000075
    14  H    1.003497
    15  N    6.993139
    16  C    6.042716
    17  C    6.012051
    18  C    6.021134
    19  C    6.027108
    20  C    5.999616
    21  C    6.011950
    22  O    8.027860
    23  C    5.997293
    24  N    6.998517
    25  C    6.026138
    26  C    5.996732
    27  C    6.004387
    28  C    5.972678
    29  C    6.001642
    30  C    6.006112
    31  C    5.999623
    32  N    6.997790
    33  C    5.962356
    34  C    5.967213
    35  C    6.000186
    36  C    5.973340
    37  C    6.000400
    38  C    5.986402
    39  O    7.970954
    40  C    5.996490
    41  C    5.994691
    42  O    7.997788
    43  O    7.997281
    44  C    6.001995
    45  H    1.010276
    46  H    1.004364
    47  H    0.992119
    48  H    1.002094
    49  H    1.005417
    50  H    1.007902
    51  H    1.013671
    52  H    0.994268
    53  H    0.989346
    54  H    1.006004
    55  H    0.997139
    56  H    0.994727
    57  H    1.014063
    58  H    1.014270
    59  H    1.013729
    60  H    1.007544
    61  H    1.007087
    62  H    1.013724
    63  H    0.998712
    64  H    0.999513
    65  H    1.011283
    66  H    1.001420
    67  H    0.993567
    68  H    0.992908
    69  H    1.006326
    70  H    1.005901
    71  H    0.984716
    72  H    0.997189
    73  H    0.979070
    74  H    0.987215
    75  H    0.980642
    76  H    0.994153
    77  H    0.998550
    78  H    0.994668
    79  H    0.994469
 Sum of Mulliken charges = 312.00000

 Dipole moment (field-independent basis, Debye):
    X=             -7.0367    Y=             -7.3328    Z=             -0.4110  Tot=             10.1712
 Quadrupole moment (field-independent basis, Debye-Ang):
   XX=              8.2281   YY=             -2.7630   ZZ=             -0.0383
   XY=              4.8175   XZ=             -0.0006   YZ=              0.4788

 Normal termination of Gaussian 16 at Wed Oct 13 18:44:35 2021.
