 Gaussian 16, Revision A.03,
 Gaussian 16:  ES64L-G16RevA.03 25-Dec-2016

 --------------------------------------------------------
 #p PBE1PBE/Def2SVP td=(nstates=5) density=(transition=1)
 --------------------------------------------------------

 --------------------------------
 TDDFT excited states in gaussian
 --------------------------------
 Symbolic Z-matrix:
 Charge =  0 Multiplicity = 1

                         Standard orientation:
 ---------------------------------------------------------------------
 Center     Atomic      Atomic             Coordinates (Angstroms)
 Number     Number       Type             X           Y           Z
 ---------------------------------------------------------------------
      1         12           0       -5.182339   -0.182011    0.890151
      2          6           0       -4.756337    3.108562   -0.211118
      3          6           0       -2.627243    0.359081    3.145242
      4          6           0       -5.067706   -3.536446    1.511190
      5          6           0       -7.240666   -0.748632   -1.836607
      6          7           0       -3.962631    1.556310    1.416821
      7          6           0       -4.117857    2.816209    0.990354
      8          6           0       -3.368996    3.870711    1.818377
      9          6           0       -2.526962    2.960077    2.792098
     10          6           0       -3.131397    1.471314    2.521225
     11          6           0       -0.990686    2.997613    2.643307
     12          6           0       -4.269722    4.882443    2.527190
     13          6           0       -3.578477    6.232613    2.790439
     14          1           0       -2.116003    6.423393    2.364210
     15          7           0       -4.107857   -1.416933    2.216260
     16          6           0       -3.120664   -0.989574    3.133965
     17          6           0       -2.684523   -2.139176    3.900920
     18          6           0       -3.346301   -3.316906    3.388749
     19          6           0       -4.242306   -2.794065    2.358480
     20          6           0       -1.761622   -1.980578    5.077769
     21          6           0       -3.310023   -4.827973    3.896401
     22          8           0       -4.025385   -5.698929    3.464212
     23          6           0       -2.294453   -5.149641    4.971204
     24          7           0       -5.947430   -1.889574   -0.077903
     25          6           0       -5.810029   -3.169213    0.374575
     26          6           0       -6.617169   -4.200156   -0.497420
     27          6           0       -7.325880   -3.268206   -1.478934
     28          6           0       -6.799013   -1.894755   -1.107909
     29          6           0       -5.915384   -5.457458   -1.152322
     30          6           0       -8.862711   -3.366346   -1.334609
     31          6           0       -9.560707   -2.558923   -0.217794
     32          7           0       -6.031655    0.934690   -0.665316
     33          6           0       -6.851750    0.578455   -1.704407
     34          6           0       -7.164281    1.700847   -2.524097
     35          6           0       -6.332231    2.774944   -1.970734
     36          6           0       -5.692369    2.248624   -0.916956
     37          6           0       -8.046545    1.843963   -3.684258
     38          6           0       -5.850553    4.135288   -2.166771
     39          8           0       -6.218844    5.000410   -2.968482
     40          6           0       -4.814072    4.438432   -1.044979
     41          6           0       -3.521733    4.826873   -1.600495
     42          8           0       -2.680921    4.068504   -2.071827
     43          8           0       -3.478834    6.192742   -1.726501
     44          6           0       -2.486666    6.813641   -2.625481
     45          1           0       -1.797492    0.614797    3.807808
     46          1           0       -5.178015   -4.578234    1.819253
     47          1           0       -7.964862   -0.900546   -2.639627
     48          1           0       -2.612415    4.383517    1.224909
     49          1           0       -2.790699    3.088893    3.841228
     50          1           0       -0.702388    3.214831    3.671648
     51          1           0       -0.687827    3.802705    1.974250
     52          1           0       -0.620349    2.046426    2.260759
     53          1           0       -4.663968    4.493202    3.465116
     54          1           0       -5.153372    5.086826    1.922038
     55          1           0       -3.684902    6.301436    3.873243
     56          1           0       -4.172047    7.071792    2.424927
     57          1           0       -1.409462   -0.949937    5.033090
     58          1           0       -0.943313   -2.695099    4.986208
     59          1           0       -2.250119   -2.177747    6.033201
     60          1           0       -1.250833   -5.221951    4.663325
     61          1           0       -2.619432   -6.062731    5.469946
     62          1           0       -2.427245   -4.313935    5.658183
     63          1           0       -7.294944   -4.609078    0.251570
     64          1           0       -7.009585   -3.575710   -2.475024
     65          1           0       -6.141581   -5.606924   -2.207407
     66          1           0       -6.288483   -6.349983   -0.651035
     67          1           0       -4.846640   -5.380786   -0.950094
     68          1           0       -9.071535   -4.429192   -1.218911
     69          1           0       -9.249148   -3.069365   -2.310024
     70          1           0      -10.309870   -3.241749    0.182149
     71          1           0      -10.095795   -1.684315   -0.587004
     72          1           0       -8.884904   -2.158129    0.536867
     73          1           0       -8.579337    2.788270   -3.577960
     74          1           0       -8.767060    1.039245   -3.830819
     75          1           0       -7.453582    2.025298   -4.580885
     76          1           0       -5.279826    5.236219   -0.466632
     77          1           0       -1.819378    6.076920   -3.074123
     78          1           0       -1.873900    7.487290   -2.025966
     79          1           0       -3.141899    7.295794   -3.350092
     80         12           0        4.327100   -0.906873   -0.914079
     81          6           0        7.059136    1.059082   -0.184067
     82          6           0        2.263576    1.976592   -0.471611
     83          6           0        1.651081   -2.775891   -1.243269
     84          6           0        6.368027   -3.723465   -1.168967
     85          7           0        4.709972    1.237254   -0.394732
     86          6           0        5.896837    1.810929   -0.176043
     87          6           0        5.687458    3.348134    0.018467
     88          6           0        4.102780    3.546052    0.048043
     89          6           0        3.627425    2.111118   -0.250994
     90          6           0        3.479956    3.921925    1.378814
     91          6           0        6.428857    4.233325   -0.994655
     92          6           0        7.238991    5.313816   -0.298296
     93          1           0        7.558425    6.641498   -1.000677
     94          7           0        2.255131   -0.428684   -0.939776
     95          6           0        1.610756    0.766509   -0.798901
     96          6           0        0.229793    0.646401   -0.951952
     97          6           0       -0.029734   -0.764218   -1.062104
     98          6           0        1.330461   -1.404425   -1.101601
     99          6           0       -0.737624    1.820791   -0.923912
    100          6           0       -1.363816   -1.492163   -1.088011
    101          8           0       -1.361970   -2.736408   -1.015888
    102          6           0       -2.648738   -0.769563   -1.074955
    103          7           0        4.094139   -2.907783   -1.193560
    104          6           0        2.860317   -3.498314   -1.374488
    105          6           0        2.903632   -5.059446   -1.569401
    106          6           0        4.462324   -5.242546   -1.813600
    107          6           0        5.024349   -3.886970   -1.347699
    108          6           0        2.366609   -6.045698   -0.458392
    109          6           0        4.952927   -5.795378   -3.228180
    110          6           0        4.952241   -4.793474   -4.352411
    111          7           0        6.243859   -1.345174   -0.601176
    112          6           0        6.980192   -2.507870   -0.726032
    113          6           0        8.345898   -2.305987   -0.461329
    114          6           0        8.404982   -0.918681   -0.285559
    115          6           0        7.101519   -0.349704   -0.380109
    116          6           0        9.333620   -3.388918   -0.564363
    117          6           0        9.346077    0.068826    0.079984
    118          8           0       10.529370   -0.093938    0.384533
    119          6           0        8.532910    1.464895    0.148754
    120          6           0        8.689292    2.040441    1.472955
    121          8           0        8.152473    1.671656    2.492475
    122          8           0        9.614527    2.992016    1.456824
    123          6           0       10.007134    3.601935    2.691194
    124          1           0        1.637652    2.850981   -0.283821
    125          1           0        0.861778   -3.520345   -1.364095
    126          1           0        6.969941   -4.630511   -1.255672
    127          1           0        6.073649    3.464500    1.030594
    128          1           0        3.909999    4.398672   -0.604052
    129          1           0        4.197734    4.126083    2.173870
    130          1           0        2.875004    3.098197    1.756816
    131          1           0        2.742618    4.711662    1.231639
    132          1           0        5.794835    4.701355   -1.747895
    133          1           0        7.088351    3.587160   -1.573524
    134          1           0        8.231403    4.887993   -0.145958
    135          1           0        6.711729    5.529750    0.630743
    136          1           0       -0.214733    2.775225   -0.985927
    137          1           0       -1.211171    1.860020    0.057311
    138          1           0       -1.540342    1.685714   -1.647863
    139          1           0       -3.452787   -1.414671   -0.718986
    140          1           0       -2.883467   -0.525309   -2.111442
    141          1           0       -2.582268    0.110787   -0.436141
    142          1           0        2.485211   -5.368797   -2.527703
    143          1           0        4.818276   -6.047383   -1.171662
    144          1           0        1.983829   -5.441068    0.362855
    145          1           0        3.218019   -6.524580    0.026845
    146          1           0        1.636677   -6.802695   -0.746653
    147          1           0        4.223873   -6.550184   -3.521866
    148          1           0        5.906461   -6.320943   -3.193553
    149          1           0        5.763792   -5.073660   -5.023055
    150          1           0        5.003759   -3.723851   -4.152952
    151          1           0        3.989304   -4.896509   -4.852672
    152          1           0        9.158958   -4.190253   -1.281868
    153          1           0        9.693198   -3.800517    0.377941
    154          1           0       10.209620   -2.832653   -0.897003
    155          1           0        8.963318    2.135189   -0.595009
    156          1           0        9.393620    4.468837    2.939166
    157          1           0       11.019423    3.979246    2.547428
    158          1           0        9.928089    2.878847    3.503120
 ---------------------------------------------------------------------

 SCF Done:  E(RPBE1PBE) =  -4067.41082731     A.U. after   16 cycles

 Excitation energies and oscillator strengths:

 Excited State   1:      Singlet-A      1.5530 eV  798.38 nm  f=0.0000  <S**2>=0.000
     312 -> 313        0.70685
 This state for optimization and/or second-order correction.
 Total Energy, E(TD-HF/TD-DFT) =  -4067.35375739
 Copying the excited state density for this state as the 1-particle RhoCI density.

 Excited State   2:      Singlet-A      1.8306 eV  677.27 nm  f=0.0006  <S**2>=0.000
     311 -> 314        0.70589

 Excited State   3:      Singlet-A      1.8627 eV  665.62 nm  f=0.6520  <S**2>=0.000
     309 -> 315       -0.10739
     310 -> 316        0.12498
     311 -> 313        0.43955
     312 -> 314        0.53608

 Excited State   4:      Singlet-A      1.8698 eV  663.10 nm  f=0.1703  <S**2>=0.000
     309 -> 315       -0.13521
     310 -> 316       -0.10532
     311 -> 313        0.53387
     312 -> 314       -0.43858

 Excited State   5:      Singlet-A      2.1083 eV  588.08 nm  f=0.0022  <S**2>=0.000
     310 -> 313        0.70528

 The electronic state is 1-A.
 Alpha  occ. eigenvalues --  -46.91995 -46.90698 -19.25390 -19.25222 -19.20261
 Alpha  occ. eigenvalues --  -19.20132 -19.19428 -19.18589 -19.18559 -19.17760
 Alpha  occ. eigenvalues --  -14.42017 -14.41891 -14.41463 -14.41286 -14.39306
 Alpha  occ. eigenvalues --  -14.38846 -14.38290 -14.38278 -10.36568 -10.34998
 Alpha  occ. eigenvalues --  -10.33323 -10.32738 -10.31356 -10.31249 -10.29104
 Alpha  occ. eigenvalues --  -10.29065 -10.28880 -10.28873 -10.28864 -10.28704
 Alpha  occ. eigenvalues --  -10.28556 -10.28506 -10.28300 -10.28273 -10.27923
 Alpha  occ. eigenvalues --  -10.27758 -10.27531 -10.26903 -10.26830 -10.26478
 Alpha  occ. eigenvalues --  -10.26429 -10.26382 -10.26367 -10.26358 -10.26337
 Alpha  occ. eigenvalues --  -10.26181 -10.26126 -10.26106 -10.26020 -10.25889
 Alpha  occ. eigenvalues --  -10.25810 -10.25753 -10.25597 -10.25523 -10.25427
 Alpha  occ. eigenvalues --  -10.25332 -10.25242 -10.25177 -10.25137 -10.25106
 Alpha  occ. eigenvalues --  -10.25036 -10.24866 -10.24567 -10.24533 -10.24447
 Alpha  occ. eigenvalues --  -10.24393 -10.24391 -10.24177 -10.24128 -10.23967
 Alpha  occ. eigenvalues --  -10.23924 -10.23723 -10.23546 -10.23542 -10.23517
 Alpha  occ. eigenvalues --  -10.23452 -10.23411 -10.23345 -10.23161 -10.23034
 Alpha  occ. eigenvalues --  -10.22922 -10.22915 -10.22910 -10.22556 -10.22109
 Alpha  occ. eigenvalues --  -10.22049  -3.14111  -3.13059  -1.86957  -1.86482
 Alpha  occ. eigenvalues --   -1.86336  -1.85901  -1.85452  -1.85285  -1.12493
 Alpha  occ. eigenvalues --   -1.10737  -1.06306  -1.04094  -1.03316  -1.02472
 Alpha  occ. eigenvalues --   -1.02421  -1.02358  -0.99336  -0.98888  -0.98401
 Alpha  occ. eigenvalues --   -0.97892  -0.97564  -0.97538  -0.96805  -0.95873
 Alpha  occ. eigenvalues --   -0.86925  -0.86089  -0.83627  -0.83552  -0.83308
 Alpha  occ. eigenvalues --   -0.82745  -0.82663  -0.82266  -0.81715  -0.81534
 Alpha  occ. eigenvalues --   -0.81447  -0.80940  -0.80681  -0.80393  -0.78917
 Alpha  occ. eigenvalues --   -0.78476  -0.78061  -0.77842  -0.76954  -0.76890
 Alpha  occ. eigenvalues --   -0.76187  -0.75773  -0.75680  -0.75209  -0.74904
 Alpha  occ. eigenvalues --   -0.74535  -0.72660  -0.71812  -0.71703  -0.71537
 Alpha  occ. eigenvalues --   -0.71198  -0.70743  -0.70639  -0.70019  -0.69606
 Alpha  occ. eigenvalues --   -0.69259  -0.67466  -0.67205  -0.65858  -0.65522
 Alpha  occ. eigenvalues --   -0.64363  -0.63688  -0.63246  -0.62909  -0.62546
 Alpha  occ. eigenvalues --   -0.61814  -0.61067  -0.60717  -0.59672  -0.59544
 Alpha  occ. eigenvalues --   -0.59391  -0.59257  -0.59014  -0.58765  -0.58683
 Alpha  occ. eigenvalues --   -0.58599  -0.56646  -0.56538  -0.54558  -0.54445
 Alpha  occ. eigenvalues --   -0.54225  -0.54065  -0.53959  -0.53321  -0.53110
 Alpha  occ. eigenvalues --   -0.52826  -0.52634  -0.52482  -0.52370  -0.51833
 Alpha  occ. eigenvalues --   -0.50723  -0.50626  -0.50423  -0.50287  -0.50073
 Alpha  occ. eigenvalues --   -0.49421  -0.49082  -0.48903  -0.48795  -0.48660
 Alpha  occ. eigenvalues --   -0.48190  -0.48018  -0.47826  -0.47809  -0.47400
 Alpha  occ. eigenvalues --   -0.47127  -0.46977  -0.46918  -0.46643  -0.46583
 Alpha  occ. eigenvalues --   -0.46521  -0.46405  -0.46007  -0.45882  -0.45859
 Alpha  occ. eigenvalues --   -0.45651  -0.45521  -0.44998  -0.44616  -0.44606
 Alpha  occ. eigenvalues --   -0.44363  -0.44236  -0.44068  -0.44061  -0.43895
 Alpha  occ. eigenvalues --   -0.43807  -0.43715  -0.43702  -0.43605  -0.43473
 Alpha  occ. eigenvalues --   -0.43346  -0.43216  -0.43142  -0.42802  -0.42639
 Alpha  occ. eigenvalues --   -0.42519  -0.42458  -0.42064  -0.41906  -0.41634
 Alpha  occ. eigenvalues --   -0.41380  -0.41303  -0.41232  -0.41110  -0.40820
 Alpha  occ. eigenvalues --   -0.40793  -0.40742  -0.40590  -0.40358  -0.40292
 Alpha  occ. eigenvalues --   -0.40146  -0.39929  -0.39731  -0.39596  -0.39522
 Alpha  occ. eigenvalues --   -0.39431  -0.39238  -0.39030  -0.38879  -0.38805
 Alpha  occ. eigenvalues --   -0.38709  -0.38529  -0.38396  -0.38390  -0.38257
 Alpha  occ. eigenvalues --   -0.38075  -0.37944  -0.37814  -0.37694  -0.37535
 Alpha  occ. eigenvalues --   -0.37370  -0.37084  -0.37052  -0.36888  -0.36716
 Alpha  occ. eigenvalues --   -0.36540  -0.36517  -0.36159  -0.36122  -0.36020
 Alpha  occ. eigenvalues --   -0.35724  -0.35707  -0.35635  -0.35422  -0.35191
 Alpha  occ. eigenvalues --   -0.35094  -0.34997  -0.33889  -0.33778  -0.33600
 Alpha  occ. eigenvalues --   -0.33495  -0.33230  -0.33009  -0.32837  -0.32363
 Alpha  occ. eigenvalues --   -0.32047  -0.31930  -0.31504  -0.31444  -0.31262
 Alpha  occ. eigenvalues --   -0.31070  -0.30935  -0.29925  -0.29546  -0.29244
 Alpha  occ. eigenvalues --   -0.29065  -0.28492  -0.28199  -0.26879  -0.26678
 Alpha  occ. eigenvalues --   -0.26412  -0.26187  -0.25477  -0.25358  -0.24990
 Alpha  occ. eigenvalues --   -0.24867  -0.24791  -0.24616  -0.20840  -0.20698
 Alpha  occ. eigenvalues --   -0.19183  -0.18668
 Alpha virt. eigenvalues --   -0.11594  -0.11035  -0.05147  -0.04618  -0.03989
 Alpha virt. eigenvalues --   -0.03227  -0.02213  -0.01464  -0.00497  -0.00102
 Alpha virt. eigenvalues --    0.00547   0.00648   0.01361   0.01471   0.02101

 Mulliken charges:
               1
     1  Mg  11.999777
     2  C    6.000185
     3  C    6.000209
     4  C    5.999756
     5  C    5.999481
     6  N    7.000217
     7  C    5.999764
     8  C    5.999809
     9  C    6.000368
    10  C    5.999425
    11  C    5.999879
    12  C    6.000004
    13  C    5.999981
    14  H    1.000057
    15  N    6.999825
    16  C    5.999903
    17  C    5.999864
    18  C    5.999949
    19  C    6.000059
    20  C    6.000025
    21  C    5.999992
    22  O    7.999998
    23  C    6.000009
    24  N    6.999777
    25  C    6.000066
    26  C    6.000025
    27  C    5.999926
    28  C    6.000331
    29  C    5.999973
    30  C    5.999994
    31  C    5.999994
    32  N    7.000078
    33  C    6.000191
    34  C    6.000233
    35  C    6.000108
    36  C    6.000052
    37  C    5.999957
    38  C    6.000124
    39  O    8.000141
    40  C    6.000030
    41  C    6.000040
    42  O    8.000067
    43  O    8.000008
    44  C    5.999980
    45  H    1.000169
    46  H    0.999925
    47  H    0.999957
    48  H    1.000070
    49  H    1.000050
    50  H    1.000001
    51  H    0.999970
    52  H    1.000411
    53  H    1.000037
    54  H    0.999957
    55  H    1.000041
    56  H    1.000009
    57  H    0.999880
    58  H    0.999932
    59  H    0.999949
    60  H    1.000006
    61  H    0.999994
    62  H    1.000016
    63  H    1.000000
    64  H    1.000010
    65  H    0.999967
    66  H    1.000005
    67  H    1.000032
    68  H    1.000032
    69  H    0.999985
    70  H    1.000019
    71  H    0.999961
    72  H    1.000041
    73  H    1.000110
    74  H    1.000156
    75  H    1.000151
    76  H    1.000093
    77  H    1.000049
    78  H    1.000069
    79  H    1.000029
    80  Mg  11.999933
    81  C    6.000039
    82  C    5.999820
    83  C    5.999958
    84  C    5.999995
    85  N    7.000006
    86  C    5.999902
    87  C    6.000024
    88  C    5.999964
    89  C    6.000053
    90  C    6.000151
    91  C    6.000013
    92  C    6.000022
    93  H    0.999936
    94  N    6.999986
    95  C    6.000064
    96  C    6.000197
    97  C    5.999846
    98  C    6.000100
    99  C    5.999782
   100  C    6.000141
   101  O    8.000057
   102  C    6.000032
   103  N    6.999997
   104  C    6.000086
   105  C    5.999976
   106  C    6.000041
   107  C    5.999916
   108  C    6.000007
   109  C    6.000025
   110  C    6.000024
   111  N    6.999973
   112  C    5.999948
   113  C    5.999906
   114  C    6.000050
   115  C    5.999918
   116  C    6.000011
   117  C    5.999868
   118  O    7.999893
   119  C    5.999971
   120  C    5.999988
   121  O    7.999959
   122  O    7.999989
   123  C    6.000016
   124  H    0.999972
   125  H    0.999990
   126  H    0.999910
   127  H    0.999986
   128  H    0.999971
   129  H    0.999976
   130  H    0.999923
   131  H    0.999814
   132  H    0.999946
   133  H    1.000025
   134  H    1.000016
   135  H    0.999976
   136  H    1.000126
   137  H    1.000180
   138  H    1.000235
   139  H    1.000272
   140  H    0.999960
   141  H    1.000106
   142  H    0.999966
   143  H    0.999956
   144  H    0.999982
   145  H    1.000012
   146  H    0.999967
   147  H    0.999932
   148  H    0.999991
   149  H    0.999979
   150  H    1.000009
   151  H    0.999943
   152  H    0.999911
   153  H    0.999888
   154  H    0.999926
   155  H    0.999935
   156  H    0.999960
   157  H    0.999974
   158  H    0.999988
 Sum of Mulliken charges = 624.00000

 Dipole moment (field-independent basis, Debye):
    X=             -0.0912    Y=              0.0479    Z=             -0.0174  Tot=              0.1045
 Quadrupole moment (field-independent basis, Debye-Ang):
   XX=             -0.2391   YY=              0.0041   ZZ=              0.0252
   XY=             -0.1455   XZ=              0.1407   YZ=             -0.0363

 Normal termination of Gaussian 16 at Thu Oct 14 20:57:32 2021.
