 Gaussian 16, Revision A.03,
 Gaussian 16:  ES64L-G16RevA.03 25-Dec-2016

 --------------------------------------------------------
 #p PBE1PBE/Def2SVP td=(nstates=5) density=(transition=1)
 --------------------------------------------------------

 --------------------------------
 TDDFT excited states in gaussian
 --------------------------------
 Symbolic Z-matrix:
 Charge =  0 Multiplicity = 1

                         Standard orientation:
 ---------------------------------------------------------------------
 Center     Atomic      Atomic             Coordinates (Angstroms)
 Number     Number       Type             X           Y           Z
 ---------------------------------------------------------------------
      1         12           0       29.467197    0.749206   -0.461581
      2          6           0       28.375636   -2.734796   -0.093013
      3          6           0       26.487794    1.539770    1.112538
      4          6           0       30.778431    3.579472    0.201839
      5          6           0       32.566941   -0.633135   -1.641620
      6          7           0       27.659901   -0.574691    0.556140
      7          6           0       27.432545   -1.933512    0.569357
      8          6           0       26.140930   -2.236951    1.413410
      9          6           0       25.430770   -0.877436    1.534224
     10          6           0       26.577682    0.086500    1.045046
     11          6           0       24.123863   -0.625592    0.673145
     12          6           0       26.433151   -2.946474    2.779818
     13          6           0       25.459195   -4.026615    3.198765
     14          1           0       24.404413   -3.638782    4.282085
     15          7           0       28.720196    2.369330    0.395444
     16          6           0       27.459914    2.571082    0.888912
     17          6           0       27.334116    3.964448    1.397339
     18          6           0       28.604786    4.545659    1.148633
     19          6           0       29.438751    3.479093    0.600108
     20          6           0       26.122056    4.587306    2.109149
     21          6           0       29.131042    5.913329    1.593226
     22          8           0       28.336582    6.666690    2.149453
     23          6           0       30.444313    6.380543    1.382938
     24          7           0       31.519145    1.286236   -0.457066
     25          6           0       31.693566    2.653181   -0.370194
     26          6           0       33.183163    2.981896   -0.773129
     27          6           0       33.809225    1.569238   -1.055749
     28          6           0       32.528664    0.705652   -1.152123
     29          6           0       33.357938    3.981027   -1.949655
     30          6           0       34.881201    0.992127   -0.045731
     31          6           0       36.328787    1.501134   -0.158270
     32          7           0       30.367902   -1.233021   -0.873200
     33          6           0       31.565529   -1.588595   -1.460765
     34          6           0       31.617672   -2.997854   -1.765852
     35          6           0       30.360431   -3.492404   -1.252873
     36          6           0       29.610981   -2.421789   -0.651424
     37          6           0       32.799339   -3.682926   -2.380113
     38          6           0       29.628935   -4.661505   -1.046901
     39          8           0       29.936385   -5.837570   -1.186570
     40          6           0       28.390849   -4.273995   -0.187429
     41          6           0       27.206268   -4.761902   -0.988359
     42          8           0       26.292277   -5.436338   -0.507374
     43          8           0       27.114278   -4.247529   -2.344078
     44          6           0       25.791478   -4.455492   -2.930998
     45          1           0       25.524660    1.823695    1.540587
     46          1           0       31.301201    4.538194    0.198698
     47          1           0       33.532693   -0.888096   -2.082755
     48          1           0       25.447084   -2.802067    0.789421
     49          1           0       25.252300   -0.604379    2.574261
     50          1           0       23.308278   -0.670637    1.394566
     51          1           0       23.960813   -1.432615   -0.040569
     52          1           0       24.119598    0.288525    0.079541
     53          1           0       26.365487   -2.297224    3.653118
     54          1           0       27.407683   -3.434416    2.752181
     55          1           0       26.052961   -4.898574    3.473106
     56          1           0       24.881041   -4.305535    2.317257
     57          1           0       25.981502    5.613418    1.768346
     58          1           0       26.365337    4.492047    3.167311
     59          1           0       25.203601    4.063056    1.848659
     60          1           0       30.587178    6.511048    0.309777
     61          1           0       31.225330    5.777265    1.845827
     62          1           0       30.431426    7.294792    1.977294
     63          1           0       33.769179    3.419526    0.034363
     64          1           0       34.235392    1.517405   -2.057353
     65          1           0       33.947926    3.444089   -2.692557
     66          1           0       33.913089    4.844361   -1.584153
     67          1           0       32.332308    4.207665   -2.243453
     68          1           0       34.863064   -0.079387   -0.247462
     69          1           0       34.620933    1.240914    0.983297
     70          1           0       36.248863    2.136914   -1.040496
     71          1           0       37.008011    0.699176   -0.450944
     72          1           0       36.726712    2.059402    0.688788
     73          1           0       33.633019   -3.468533   -1.712737
     74          1           0       33.107490   -3.249403   -3.331365
     75          1           0       32.724274   -4.769922   -2.347729
     76          1           0       28.449011   -4.859430    0.729966
     77          1           0       25.855635   -3.623774   -3.633611
     78          1           0       25.006765   -4.493084   -2.175441
     79          1           0       25.861478   -5.367706   -3.523636
     80         12           0      -29.937906   -0.083195   -0.593071
     81          6           0      -26.771025    1.034834    0.669896
     82          6           0      -29.208509   -3.149989    1.086999
     83          6           0      -33.162262   -1.017309   -0.733861
     84          6           0      -30.654154    3.147868   -1.455353
     85          7           0      -28.214874   -0.885781    0.728101
     86          6           0      -27.044801   -0.276304    1.075877
     87          6           0      -26.134848   -1.211823    1.946119
     88          6           0      -26.816578   -2.637616    1.675652
     89          6           0      -28.191986   -2.189992    1.207157
     90          6           0      -26.140174   -3.470334    0.610890
     91          6           0      -25.980248   -0.739667    3.382363
     92          6           0      -24.559187   -0.783638    4.001777
     93          1           0      -24.127219   -1.969645    4.983943
     94          7           0      -31.069034   -1.929693    0.004376
     95          6           0      -30.523981   -3.088701    0.595280
     96          6           0      -31.583492   -4.097623    0.716176
     97          6           0      -32.755871   -3.478046    0.128463
     98          6           0      -32.406518   -2.100229   -0.143008
     99          6           0      -31.477630   -5.435615    1.345456
    100          6           0      -34.064802   -4.178783   -0.136378
    101          8           0      -34.108757   -5.379738    0.008552
    102          6           0      -35.329829   -3.484382   -0.585338
    103          7           0      -31.593365    0.966048   -0.910624
    104          6           0      -32.801294    0.294051   -1.075292
    105          6           0      -33.851767    1.333843   -1.472321
    106          6           0      -33.004405    2.587175   -1.901363
    107          6           0      -31.645427    2.191988   -1.430748
    108          6           0      -34.969502    0.909693   -2.494359
    109          6           0      -33.476676    3.993281   -1.419606
    110          6           0      -33.702760    5.048515   -2.452726
    111          7           0      -28.938514    1.705961   -0.565081
    112          6           0      -29.321184    2.954365   -1.023826
    113          6           0      -28.170452    3.877853   -1.049177
    114          6           0      -27.166016    3.136303   -0.314088
    115          6           0      -27.706462    1.872653   -0.056867
    116          6           0      -28.056975    5.277268   -1.594073
    117          6           0      -25.764944    3.224100    0.193159
    118          8           0      -24.998614    4.144804    0.210379
    119          6           0      -25.541376    1.908924    0.932556
    120          6           0      -24.306010    1.271937    0.369669
    121          8           0      -24.316246    0.893307   -0.781926
    122          8           0      -23.230865    1.071914    1.286782
    123          6           0      -22.078847    0.256060    0.796351
    124          1           0      -29.002697   -4.120869    1.542858
    125          1           0      -34.235850   -1.165206   -0.862026
    126          1           0      -30.865309    4.111874   -1.922222
    127          1           0      -25.146959   -1.340455    1.504750
    128          1           0      -26.967400   -3.189253    2.603504
    129          1           0      -26.470842   -3.114248   -0.364524
    130          1           0      -26.393447   -4.511392    0.810787
    131          1           0      -25.053011   -3.440520    0.531069
    132          1           0      -26.586879   -1.414286    3.985718
    133          1           0      -26.490659    0.219064    3.473722
    134          1           0      -24.499966    0.161823    4.541476
    135          1           0      -23.762662   -0.766918    3.257788
    136          1           0      -31.325184   -6.142351    0.530305
    137          1           0      -32.445237   -5.709654    1.765973
    138          1           0      -30.732977   -5.622438    2.120134
    139          1           0      -36.219075   -4.113313   -0.622800
    140          1           0      -35.125096   -3.136470   -1.597905
    141          1           0      -35.652409   -2.578554   -0.073334
    142          1           0      -34.406778    1.444695   -0.540326
    143          1           0      -32.872884    2.550816   -2.982377
    144          1           0      -34.657750    0.033284   -3.063163
    145          1           0      -35.237948    1.748845   -3.135867
    146          1           0      -35.894375    0.680890   -1.965321
    147          1           0      -32.756934    4.374569   -0.695324
    148          1           0      -34.366158    3.837729   -0.809237
    149          1           0      -32.895456    5.778555   -2.398300
    150          1           0      -34.636656    5.569990   -2.243394
    151          1           0      -33.751172    4.732823   -3.494661
    152          1           0      -27.017081    5.537941   -1.789909
    153          1           0      -28.498690    5.935256   -0.845190
    154          1           0      -28.714068    5.350238   -2.460869
    155          1           0      -25.527100    2.133896    1.999099
    156          1           0      -21.443713    0.878757    0.166077
    157          1           0      -22.422868   -0.561413    0.163075
    158          1           0      -21.520227   -0.166035    1.631521
 ---------------------------------------------------------------------

 SCF Done:  E(RPBE1PBE) =  -4067.32627591     A.U. after   15 cycles

 Excitation energies and oscillator strengths:

 Excited State   1:      Singlet-A      1.8362 eV  675.21 nm  f=0.3803  <S**2>=0.000
     310 -> 316        0.16423
     312 -> 313        0.69669
     312 <- 313       -0.11953
 This state for optimization and/or second-order correction.
 Total Energy, E(TD-HF/TD-DFT) =  -4067.25879556
 Copying the excited state density for this state as the 1-particle RhoCI density.

 Excited State   2:      Singlet-A      1.8703 eV  662.91 nm  f=0.3429  <S**2>=0.000
     309 -> 315        0.19149
     311 -> 314        0.68646

 Excited State   3:      Singlet-A      1.9648 eV  631.04 nm  f=0.0000  <S**2>=0.000
     312 -> 314        0.70711

 Excited State   4:      Singlet-A      2.0389 eV  608.09 nm  f=0.0000  <S**2>=0.000
     311 -> 313        0.70711

 Excited State   5:      Singlet-A      2.2322 eV  555.44 nm  f=0.0735  <S**2>=0.000
     307 -> 314       -0.10212
     309 -> 314        0.63200
     311 -> 315       -0.29399

 The electronic state is 1-A.
 Alpha  occ. eigenvalues --  -46.94138 -46.92731 -19.25855 -19.24379 -19.20856
 Alpha  occ. eigenvalues --  -19.20333 -19.19827 -19.18932 -19.18231 -19.18183
 Alpha  occ. eigenvalues --  -14.42122 -14.42081 -14.41638 -14.41352 -14.40326
 Alpha  occ. eigenvalues --  -14.38998 -14.38911 -14.38818 -10.37176 -10.36461
 Alpha  occ. eigenvalues --  -10.32470 -10.31973 -10.31683 -10.30704 -10.29928
 Alpha  occ. eigenvalues --  -10.29559 -10.29466 -10.29451 -10.29122 -10.29076
 Alpha  occ. eigenvalues --  -10.29017 -10.28869 -10.28787 -10.28480 -10.28180
 Alpha  occ. eigenvalues --  -10.28003 -10.27939 -10.27915 -10.27275 -10.27246
 Alpha  occ. eigenvalues --  -10.27150 -10.27131 -10.26783 -10.26699 -10.26679
 Alpha  occ. eigenvalues --  -10.26662 -10.26649 -10.26385 -10.26362 -10.26347
 Alpha  occ. eigenvalues --  -10.26240 -10.26197 -10.26122 -10.26005 -10.25968
 Alpha  occ. eigenvalues --  -10.25966 -10.25919 -10.25819 -10.25762 -10.25568
 Alpha  occ. eigenvalues --  -10.25454 -10.25071 -10.25050 -10.24778 -10.24713
 Alpha  occ. eigenvalues --  -10.24654 -10.24527 -10.24464 -10.24434 -10.24411
 Alpha  occ. eigenvalues --  -10.24326 -10.24221 -10.24100 -10.24064 -10.24034
 Alpha  occ. eigenvalues --  -10.23956 -10.23929 -10.23752 -10.23511 -10.23501
 Alpha  occ. eigenvalues --  -10.23304 -10.23224 -10.23211 -10.23176 -10.23083
 Alpha  occ. eigenvalues --  -10.22825  -3.16131  -3.14878  -1.88912  -1.88556
 Alpha  occ. eigenvalues --   -1.88317  -1.87664  -1.87258  -1.87106  -1.10011
 Alpha  occ. eigenvalues --   -1.08670  -1.06400  -1.05107  -1.04996  -1.03798
 Alpha  occ. eigenvalues --   -1.02634  -1.01183  -0.99567  -0.99233  -0.98189
 Alpha  occ. eigenvalues --   -0.98007  -0.97898  -0.97370  -0.96193  -0.95842
 Alpha  occ. eigenvalues --   -0.87316  -0.87029  -0.83722  -0.83254  -0.83201
 Alpha  occ. eigenvalues --   -0.83137  -0.82781  -0.82775  -0.81898  -0.81272
 Alpha  occ. eigenvalues --   -0.81124  -0.80546  -0.80350  -0.79955  -0.79237
 Alpha  occ. eigenvalues --   -0.78756  -0.78271  -0.78122  -0.77930  -0.76837
 Alpha  occ. eigenvalues --   -0.76763  -0.76022  -0.75533  -0.74843  -0.74511
 Alpha  occ. eigenvalues --   -0.74237  -0.72517  -0.72492  -0.71789  -0.71671
 Alpha  occ. eigenvalues --   -0.71319  -0.71091  -0.70593  -0.70139  -0.69614
 Alpha  occ. eigenvalues --   -0.69598  -0.67343  -0.67101  -0.66386  -0.66224
 Alpha  occ. eigenvalues --   -0.63909  -0.63506  -0.63304  -0.63045  -0.62343
 Alpha  occ. eigenvalues --   -0.62158  -0.61384  -0.61133  -0.60397  -0.60015
 Alpha  occ. eigenvalues --   -0.59839  -0.59513  -0.59477  -0.59135  -0.58836
 Alpha  occ. eigenvalues --   -0.58609  -0.56869  -0.56405  -0.54885  -0.54430
 Alpha  occ. eigenvalues --   -0.54349  -0.53984  -0.53788  -0.53779  -0.53516
 Alpha  occ. eigenvalues --   -0.53469  -0.52996  -0.52239  -0.51854  -0.51549
 Alpha  occ. eigenvalues --   -0.51219  -0.51107  -0.50277  -0.50194  -0.50050
 Alpha  occ. eigenvalues --   -0.49358  -0.48796  -0.48737  -0.48438  -0.48428
 Alpha  occ. eigenvalues --   -0.48302  -0.48121  -0.47898  -0.47853  -0.47724
 Alpha  occ. eigenvalues --   -0.47484  -0.47472  -0.47121  -0.46884  -0.46602
 Alpha  occ. eigenvalues --   -0.46413  -0.46329  -0.46248  -0.45914  -0.45889
 Alpha  occ. eigenvalues --   -0.45596  -0.45566  -0.45467  -0.45244  -0.45077
 Alpha  occ. eigenvalues --   -0.44517  -0.44498  -0.44486  -0.44433  -0.44305
 Alpha  occ. eigenvalues --   -0.44061  -0.43930  -0.43874  -0.43784  -0.43625
 Alpha  occ. eigenvalues --   -0.43317  -0.43305  -0.43269  -0.43039  -0.42851
 Alpha  occ. eigenvalues --   -0.42818  -0.42635  -0.42408  -0.42381  -0.41872
 Alpha  occ. eigenvalues --   -0.41836  -0.41662  -0.41465  -0.41141  -0.41106
 Alpha  occ. eigenvalues --   -0.41025  -0.40913  -0.40870  -0.40814  -0.40688
 Alpha  occ. eigenvalues --   -0.40607  -0.40606  -0.40162  -0.39951  -0.39751
 Alpha  occ. eigenvalues --   -0.39654  -0.39497  -0.39380  -0.39276  -0.39151
 Alpha  occ. eigenvalues --   -0.38939  -0.38730  -0.38602  -0.38484  -0.38438
 Alpha  occ. eigenvalues --   -0.38258  -0.38120  -0.38052  -0.37792  -0.37497
 Alpha  occ. eigenvalues --   -0.37426  -0.37413  -0.37363  -0.37175  -0.37148
 Alpha  occ. eigenvalues --   -0.36847  -0.36806  -0.36740  -0.36392  -0.36369
 Alpha  occ. eigenvalues --   -0.36169  -0.36024  -0.35650  -0.35525  -0.35207
 Alpha  occ. eigenvalues --   -0.35186  -0.35065  -0.34844  -0.34263  -0.34231
 Alpha  occ. eigenvalues --   -0.33806  -0.33442  -0.32884  -0.32683  -0.32562
 Alpha  occ. eigenvalues --   -0.32343  -0.32166  -0.32037  -0.31561  -0.31352
 Alpha  occ. eigenvalues --   -0.30850  -0.30260  -0.29784  -0.29672  -0.29554
 Alpha  occ. eigenvalues --   -0.29228  -0.28828  -0.28414  -0.27112  -0.26847
 Alpha  occ. eigenvalues --   -0.26658  -0.26343  -0.26079  -0.25318  -0.25233
 Alpha  occ. eigenvalues --   -0.25169  -0.24438  -0.24400  -0.21385  -0.21202
 Alpha  occ. eigenvalues --   -0.19112  -0.18778
 Alpha virt. eigenvalues --   -0.11396  -0.11334  -0.06113  -0.05022  -0.04378
 Alpha virt. eigenvalues --   -0.03544  -0.02423  -0.02155  -0.01959  -0.01548
 Alpha virt. eigenvalues --   -0.00208   0.00091   0.00137   0.00243   0.01250

 Mulliken charges:
               1
     1  Mg  11.999986
     2  C    5.999997
     3  C    6.000021
     4  C    6.000081
     5  C    5.999925
     6  N    6.999993
     7  C    6.000093
     8  C    5.999965
     9  C    6.000015
    10  C    5.999820
    11  C    6.000040
    12  C    5.999991
    13  C    5.999998
    14  H    1.000029
    15  N    7.000037
    16  C    5.999822
    17  C    5.999887
    18  C    5.999971
    19  C    5.999832
    20  C    6.000008
    21  C    5.999938
    22  O    7.999913
    23  C    6.000040
    24  N    7.000043
    25  C    5.999805
    26  C    6.000035
    27  C    5.999990
    28  C    6.000171
    29  C    5.999993
    30  C    5.999975
    31  C    5.999994
    32  N    7.000005
    33  C    6.000157
    34  C    6.000117
    35  C    6.000034
    36  C    6.000146
    37  C    5.999977
    38  C    6.000149
    39  O    8.000122
    40  C    5.999944
    41  C    6.000041
    42  O    8.000024
    43  O    8.000000
    44  C    5.999992
    45  H    0.999928
    46  H    0.999981
    47  H    1.000047
    48  H    0.999990
    49  H    0.999997
    50  H    0.999962
    51  H    0.999939
    52  H    0.999999
    53  H    1.000035
    54  H    0.999978
    55  H    1.000004
    56  H    0.999996
    57  H    0.999915
    58  H    0.999924
    59  H    0.999914
    60  H    0.999955
    61  H    0.999958
    62  H    0.999945
    63  H    0.999997
    64  H    0.999991
    65  H    0.999962
    66  H    1.000002
    67  H    1.000005
    68  H    0.999976
    69  H    1.000044
    70  H    1.000019
    71  H    1.000012
    72  H    1.000031
    73  H    1.000102
    74  H    1.000100
    75  H    1.000080
    76  H    1.000046
    77  H    1.000009
    78  H    1.000023
    79  H    1.000019
    80  Mg  11.999784
    81  C    5.977507
    82  C    5.999338
    83  C    6.032514
    84  C    5.999465
    85  N    6.985088
    86  C    6.028805
    87  C    5.991280
    88  C    6.008031
    89  C    5.974245
    90  C    6.005849
    91  C    5.995888
    92  C    5.999633
    93  H    1.007197
    94  N    7.003293
    95  C    5.962676
    96  C    5.975853
    97  C    5.993135
    98  C    5.961152
    99  C    6.004856
   100  C    5.988784
   101  O    7.982567
   102  C    6.002189
   103  N    7.009726
   104  C    5.962805
   105  C    6.008497
   106  C    5.989036
   107  C    6.029365
   108  C    6.000506
   109  C    5.995798
   110  C    5.998799
   111  N    6.999939
   112  C    6.031323
   113  C    6.032637
   114  C    6.001708
   115  C    6.030465
   116  C    6.000236
   117  C    6.017766
   118  O    8.024815
   119  C    6.000332
   120  C    6.005023
   121  O    8.002633
   122  O    8.001974
   123  C    5.998332
   124  H    0.987420
   125  H    0.996404
   126  H    1.013178
   127  H    1.000869
   128  H    0.999039
   129  H    0.994828
   130  H    1.001191
   131  H    0.984493
   132  H    1.010047
   133  H    0.994189
   134  H    0.996999
   135  H    0.997535
   136  H    0.980904
   137  H    0.985077
   138  H    0.981851
   139  H    0.988717
   140  H    0.989855
   141  H    0.988816
   142  H    1.000160
   143  H    1.004008
   144  H    1.003248
   145  H    0.992206
   146  H    1.003393
   147  H    0.996596
   148  H    1.011485
   149  H    0.996304
   150  H    1.006326
   151  H    1.004249
   152  H    1.015060
   153  H    1.020217
   154  H    1.015743
   155  H    1.007785
   156  H    1.000693
   157  H    1.005524
   158  H    1.004742
 Sum of Mulliken charges = 624.00000

 Dipole moment (field-independent basis, Debye):
    X=              4.3990    Y=              9.3335    Z=             -1.6651  Tot=             10.4517
 Quadrupole moment (field-independent basis, Debye-Ang):
   XX=           -258.8728   YY=             -2.2516   ZZ=              1.4481
   XY=           -283.4244   XZ=             49.3360   YZ=             -1.9335

 Normal termination of Gaussian 16 at Fri Oct 15 08:09:04 2021.
