 Gaussian 16, Revision A.03,
 Gaussian 16:  ES64L-G16RevA.03 25-Dec-2016

 --------------------------------------------------------
 #p PBE1PBE/Def2SVP td=(nstates=5) density=(transition=1)
 --------------------------------------------------------

 --------------------------------
 TDDFT excited states in gaussian
 --------------------------------
 Symbolic Z-matrix:
 Charge =  0 Multiplicity = 1

                         Standard orientation:
 ---------------------------------------------------------------------
 Center     Atomic      Atomic             Coordinates (Angstroms)
 Number     Number       Type             X           Y           Z
 ---------------------------------------------------------------------
      1         12           0       12.777394    0.279026    0.345785
      2          6           0        9.488057   -0.562014   -0.495977
      3          6           0       13.611941    0.289358   -2.828041
      4          6           0       16.088509    0.346434    1.259991
      5          6           0       11.997456   -0.235483    3.750560
      6          7           0       11.629732    0.002976   -1.400067
      7          6           0       10.291013   -0.268987   -1.577803
      8          6           0        9.882562   -0.165908   -3.041618
      9          6           0       11.273678   -0.118291   -3.751308
     10          6           0       12.206850    0.174632   -2.628471
     11          6           0       11.692988   -1.257469   -4.655171
     12          6           0        8.905401    1.007729   -3.370212
     13          6           0        8.467992    1.101671   -4.836028
     14          1           0        6.968229    1.178630   -5.081559
     15          7           0       14.691409    0.251468   -0.706453
     16          6           0       14.784328    0.403685   -2.043956
     17          6           0       16.163993    0.576844   -2.405203
     18          6           0       16.913990    0.485326   -1.220023
     19          6           0       15.886302    0.339525   -0.153506
     20          6           0       16.648237    0.748446   -3.829502
     21          6           0       18.386419    0.618317   -1.007354
     22          8           0       19.008610    0.383618    0.062998
     23          6           0       19.279751    1.119984   -2.135300
     24          7           0       13.857066    0.057317    2.200429
     25          6           0       15.207644    0.057422    2.287521
     26          6           0       15.651304    0.098610    3.847904
     27          6           0       14.285514    0.383261    4.565940
     28          6           0       13.302277    0.131432    3.468216
     29          6           0       16.337183   -1.272591    4.224345
     30          6           0       14.160817    1.903550    4.947628
     31          6           0       14.402126    2.961401    3.882039
     32          7           0       11.041345   -0.241313    1.490305
     33          6           0       10.926981   -0.394076    2.844801
     34          6           0        9.603380   -0.724165    3.106333
     35          6           0        8.928640   -0.844498    1.857430
     36          6           0        9.854285   -0.539594    0.894400
     37          6           0        8.956680   -1.039790    4.408827
     38          6           0        7.671116   -1.164977    1.144751
     39          8           0        6.567080   -1.550317    1.512130
     40          6           0        7.976982   -0.888200   -0.428260
     41          6           0        7.459633   -2.003741   -1.264739
     42          8           0        7.459872   -3.223939   -0.924069
     43          8           0        6.864589   -1.454525   -2.315013
     44          6           0        5.920544   -2.328965   -2.984198
     45          1           0       13.922925    0.418451   -3.866945
     46          1           0       17.134640    0.402710    1.570203
     47          1           0       11.764784   -0.258573    4.816325
     48          1           0        9.284904   -1.061729   -3.211239
     49          1           0       11.387795    0.747111   -4.405020
     50          1           0       10.900036   -1.900980   -5.036198
     51          1           0       12.444694   -1.859218   -4.143646
     52          1           0       12.341679   -0.830963   -5.420538
     53          1           0        9.346977    1.951939   -3.050463
     54          1           0        8.010140    0.904566   -2.757922
     55          1           0        8.558619    0.139219   -5.339277
     56          1           0        9.012814    1.885565   -5.362954
     57          1           0       15.883868    0.607184   -4.593535
     58          1           0       17.348056   -0.006524   -4.186962
     59          1           0       17.107510    1.719334   -4.017901
     60          1           0       19.308968    0.349097   -2.904852
     61          1           0       20.332865    1.113864   -1.855121
     62          1           0       19.017151    2.120715   -2.480246
     63          1           0       16.401417    0.875960    3.993446
     64          1           0       14.219823   -0.371163    5.349897
     65          1           0       16.606699   -1.876711    3.357852
     66          1           0       15.716183   -1.929690    4.833398
     67          1           0       17.290818   -1.156386    4.737293
     68          1           0       14.920555    1.942782    5.728310
     69          1           0       13.211974    2.181816    5.405290
     70          1           0       14.846494    2.506930    2.996289
     71          1           0       14.945819    3.851643    4.196345
     72          1           0       13.397740    3.347920    3.708907
     73          1           0        9.083191   -0.270794    5.171304
     74          1           0        9.470001   -1.931476    4.767523
     75          1           0        7.899018   -1.279430    4.304080
     76          1           0        7.386579    0.000370   -0.650301
     77          1           0        5.013548   -1.777256   -3.234482
     78          1           0        5.570735   -3.189211   -2.413987
     79          1           0        6.410910   -2.646967   -3.904841
     80         12           0      -12.462482   -0.525938   -0.482200
     81          6           0      -12.197506    2.876002    0.165593
     82          6           0       -8.931078   -0.677713   -0.736569
     83          6           0      -12.560989   -3.825211    0.036690
     84          6           0      -15.849285   -0.314899    0.473673
     85          7           0      -10.693828    0.935064    0.055786
     86          6           0      -10.911913    2.291546    0.028808
     87          6           0       -9.624476    3.054446    0.020857
     88          6           0       -8.603981    1.952754   -0.524345
     89          6           0       -9.414369    0.616042   -0.382032
     90          6           0       -8.059444    2.176739   -2.024341
     91          6           0       -9.342012    3.709815    1.469355
     92          6           0       -8.509889    4.890207    1.447896
     93          1           0       -7.266325    4.786877    2.356179
     94          7           0      -11.013281   -2.066151   -0.540999
     95          6           0       -9.602805   -1.923113   -0.663951
     96          6           0       -9.029544   -3.257978   -0.698587
     97          6           0      -10.060771   -4.207565   -0.497985
     98          6           0      -11.309272   -3.378278   -0.407199
     99          6           0       -7.564621   -3.483610   -0.755152
    100          6           0       -9.823372   -5.769733   -0.361565
    101          8           0       -8.662944   -6.166167   -0.457657
    102          6           0      -10.970984   -6.771308   -0.431633
    103          7           0      -13.974742   -1.806127    0.255913
    104          6           0      -13.760527   -3.146208    0.243520
    105          6           0      -15.043391   -4.004047    0.834960
    106          6           0      -16.178346   -2.873270    0.765561
    107          6           0      -15.355353   -1.580962    0.464244
    108          6           0      -15.467730   -5.269954   -0.001724
    109          6           0      -16.974834   -2.740312    2.064928
    110          6           0      -18.510503   -2.931103    2.077244
    111          7           0      -13.818813    0.983729   -0.101264
    112          6           0      -15.141372    0.915307    0.228203
    113          6           0      -15.682867    2.245413    0.277648
    114          6           0      -14.486797    3.056774    0.309127
    115          6           0      -13.390735    2.198862    0.115303
    116          6           0      -17.108660    2.619733    0.562691
    117          6           0      -14.011957    4.407478    0.525810
    118          8           0      -14.616740    5.435371    0.571222
    119          6           0      -12.439748    4.401826    0.386514
    120          6           0      -11.895684    5.192197   -0.823916
    121          8           0      -12.294542    5.070083   -1.962145
    122          8           0      -10.946629    6.137444   -0.383052
    123          6           0      -10.469198    7.073696   -1.355398
    124          1           0       -7.849075   -0.646862   -0.875168
    125          1           0      -12.609217   -4.837394    0.443228
    126          1           0      -16.905830   -0.296868    0.747252
    127          1           0       -9.573767    3.775400   -0.795738
    128          1           0       -7.749348    1.922492    0.152478
    129          1           0       -6.977395    2.260321   -1.923732
    130          1           0       -8.481766    3.060552   -2.501482
    131          1           0       -8.312001    1.271538   -2.577300
    132          1           0       -8.816236    2.918108    2.002817
    133          1           0      -10.357203    3.797049    1.857436
    134          1           0       -9.144814    5.711132    1.778982
    135          1           0       -8.126093    5.058913    0.441783
    136          1           0       -7.027275   -2.573008   -1.019440
    137          1           0       -7.326165   -4.176093   -1.562822
    138          1           0       -7.177826   -3.818073    0.207748
    139          1           0      -11.661353   -6.708371    0.410105
    140          1           0      -10.530852   -7.767098   -0.493793
    141          1           0      -11.496036   -6.594635   -1.370428
    142          1           0      -14.757404   -4.194307    1.869060
    143          1           0      -16.839667   -2.938498   -0.098716
    144          1           0      -15.273259   -6.173572    0.575259
    145          1           0      -14.885055   -5.307987   -0.922908
    146          1           0      -16.533368   -5.163408   -0.207441
    147          1           0      -16.742009   -1.811666    2.585500
    148          1           0      -16.642103   -3.393153    2.871731
    149          1           0      -19.126266   -2.049297    2.256397
    150          1           0      -18.702290   -3.590380    2.924152
    151          1           0      -18.862251   -3.368740    1.142206
    152          1           0      -17.240180    3.648218    0.225594
    153          1           0      -17.332142    2.825922    1.608947
    154          1           0      -17.853572    1.916196    0.191814
    155          1           0      -12.115201    4.902195    1.299304
    156          1           0       -9.485430    7.295103   -0.940269
    157          1           0      -10.998746    8.024743   -1.301718
    158          1           0      -10.519556    6.652866   -2.358825
 ---------------------------------------------------------------------

 SCF Done:  E(RPBE1PBE) =  -4067.35772473     A.U. after   16 cycles

 Excitation energies and oscillator strengths:

 Excited State   1:      Singlet-A      1.7515 eV  707.88 nm  f=0.0000  <S**2>=0.000
     312 -> 313        0.70709
 This state for optimization and/or second-order correction.
 Total Energy, E(TD-HF/TD-DFT) =  -4067.29335852
 Copying the excited state density for this state as the 1-particle RhoCI density.

 Excited State   2:      Singlet-A      1.8323 eV  676.66 nm  f=0.4160  <S**2>=0.000
     309 -> 315       -0.16834
     312 -> 314        0.69207
     312 <- 314       -0.11044

 Excited State   3:      Singlet-A      1.8528 eV  669.17 nm  f=0.3495  <S**2>=0.000
     310 -> 316       -0.15578
     311 -> 313        0.69300
     311 <- 313       -0.11115

 Excited State   4:      Singlet-A      2.0637 eV  600.78 nm  f=0.0000  <S**2>=0.000
     311 -> 314        0.70710

 Excited State   5:      Singlet-A      2.1527 eV  575.94 nm  f=0.1552  <S**2>=0.000
     310 -> 313        0.66961
     311 -> 316        0.19805

 The electronic state is 1-A.
 Alpha  occ. eigenvalues --  -46.93126 -46.92786 -19.27363 -19.25777 -19.20924
 Alpha  occ. eigenvalues --  -19.19658 -19.19434 -19.19125 -19.18933 -19.18576
 Alpha  occ. eigenvalues --  -14.42364 -14.41643 -14.41590 -14.41401 -14.39680
 Alpha  occ. eigenvalues --  -14.39262 -14.38772 -14.37895 -10.37101 -10.36340
 Alpha  occ. eigenvalues --  -10.33320 -10.32683 -10.32230 -10.31250 -10.29622
 Alpha  occ. eigenvalues --  -10.29333 -10.29297 -10.29124 -10.28891 -10.28718
 Alpha  occ. eigenvalues --  -10.28666 -10.28479 -10.28399 -10.28354 -10.28341
 Alpha  occ. eigenvalues --  -10.28197 -10.28052 -10.27999 -10.27599 -10.27083
 Alpha  occ. eigenvalues --  -10.27039 -10.26800 -10.26497 -10.26376 -10.26246
 Alpha  occ. eigenvalues --  -10.26189 -10.26184 -10.26166 -10.26114 -10.26016
 Alpha  occ. eigenvalues --  -10.25973 -10.25907 -10.25847 -10.25794 -10.25692
 Alpha  occ. eigenvalues --  -10.25638 -10.25623 -10.25581 -10.25567 -10.25528
 Alpha  occ. eigenvalues --  -10.25426 -10.25270 -10.25242 -10.25008 -10.24718
 Alpha  occ. eigenvalues --  -10.24542 -10.24242 -10.24240 -10.24234 -10.24155
 Alpha  occ. eigenvalues --  -10.24149 -10.24079 -10.24075 -10.24060 -10.23902
 Alpha  occ. eigenvalues --  -10.23842 -10.23762 -10.23293 -10.23287 -10.23228
 Alpha  occ. eigenvalues --  -10.23157 -10.22884 -10.22609 -10.22556 -10.22552
 Alpha  occ. eigenvalues --  -10.22312  -3.15126  -3.14759  -1.87913  -1.87608
 Alpha  occ. eigenvalues --   -1.87555  -1.87314  -1.87102  -1.86995  -1.12986
 Alpha  occ. eigenvalues --   -1.10817  -1.05663  -1.04783  -1.03765  -1.03549
 Alpha  occ. eigenvalues --   -1.02862  -1.00807  -0.99918  -0.99755  -0.98960
 Alpha  occ. eigenvalues --   -0.98120  -0.97335  -0.97238  -0.96879  -0.96113
 Alpha  occ. eigenvalues --   -0.86630  -0.86317  -0.83856  -0.83583  -0.83464
 Alpha  occ. eigenvalues --   -0.82618  -0.82542  -0.82362  -0.82167  -0.81466
 Alpha  occ. eigenvalues --   -0.81118  -0.80743  -0.80242  -0.80014  -0.79127
 Alpha  occ. eigenvalues --   -0.78247  -0.78107  -0.77618  -0.77190  -0.76848
 Alpha  occ. eigenvalues --   -0.76300  -0.76074  -0.75663  -0.75425  -0.74873
 Alpha  occ. eigenvalues --   -0.74567  -0.72956  -0.72166  -0.71969  -0.71698
 Alpha  occ. eigenvalues --   -0.71515  -0.70954  -0.70533  -0.70437  -0.69601
 Alpha  occ. eigenvalues --   -0.69211  -0.67294  -0.67088  -0.66169  -0.65721
 Alpha  occ. eigenvalues --   -0.64200  -0.63597  -0.63559  -0.62875  -0.62662
 Alpha  occ. eigenvalues --   -0.62273  -0.61796  -0.60771  -0.60254  -0.59900
 Alpha  occ. eigenvalues --   -0.59821  -0.59306  -0.59278  -0.59084  -0.58813
 Alpha  occ. eigenvalues --   -0.58641  -0.57380  -0.57377  -0.55427  -0.54302
 Alpha  occ. eigenvalues --   -0.54163  -0.54016  -0.53894  -0.53483  -0.53180
 Alpha  occ. eigenvalues --   -0.53008  -0.52570  -0.52165  -0.51980  -0.51902
 Alpha  occ. eigenvalues --   -0.50809  -0.50775  -0.50568  -0.50347  -0.50036
 Alpha  occ. eigenvalues --   -0.49954  -0.49905  -0.49506  -0.49216  -0.48954
 Alpha  occ. eigenvalues --   -0.48556  -0.48053  -0.47798  -0.47534  -0.47317
 Alpha  occ. eigenvalues --   -0.47286  -0.47087  -0.47076  -0.46885  -0.46526
 Alpha  occ. eigenvalues --   -0.46330  -0.46248  -0.46175  -0.46118  -0.45630
 Alpha  occ. eigenvalues --   -0.45600  -0.45418  -0.45248  -0.44875  -0.44717
 Alpha  occ. eigenvalues --   -0.44712  -0.44418  -0.44215  -0.44127  -0.44108
 Alpha  occ. eigenvalues --   -0.43841  -0.43776  -0.43716  -0.43538  -0.43357
 Alpha  occ. eigenvalues --   -0.43274  -0.43076  -0.43071  -0.42937  -0.42735
 Alpha  occ. eigenvalues --   -0.42635  -0.42472  -0.42026  -0.42004  -0.41672
 Alpha  occ. eigenvalues --   -0.41611  -0.41534  -0.41504  -0.41202  -0.41078
 Alpha  occ. eigenvalues --   -0.41042  -0.40808  -0.40761  -0.40675  -0.40556
 Alpha  occ. eigenvalues --   -0.40334  -0.40222  -0.40023  -0.39905  -0.39683
 Alpha  occ. eigenvalues --   -0.39604  -0.39499  -0.39286  -0.39225  -0.39070
 Alpha  occ. eigenvalues --   -0.38781  -0.38667  -0.38600  -0.38553  -0.38394
 Alpha  occ. eigenvalues --   -0.38194  -0.38170  -0.38056  -0.37853  -0.37589
 Alpha  occ. eigenvalues --   -0.37508  -0.37494  -0.37405  -0.37305  -0.37260
 Alpha  occ. eigenvalues --   -0.37053  -0.36984  -0.36487  -0.36322  -0.36272
 Alpha  occ. eigenvalues --   -0.36175  -0.35904  -0.35823  -0.35713  -0.35352
 Alpha  occ. eigenvalues --   -0.35279  -0.34721  -0.34552  -0.34213  -0.33653
 Alpha  occ. eigenvalues --   -0.33552  -0.33088  -0.32859  -0.32690  -0.32360
 Alpha  occ. eigenvalues --   -0.32019  -0.32008  -0.31657  -0.31591  -0.31369
 Alpha  occ. eigenvalues --   -0.31197  -0.30626  -0.29724  -0.29356  -0.29307
 Alpha  occ. eigenvalues --   -0.29226  -0.28820  -0.28265  -0.27391  -0.26831
 Alpha  occ. eigenvalues --   -0.26376  -0.26114  -0.25627  -0.25522  -0.25270
 Alpha  occ. eigenvalues --   -0.25045  -0.24911  -0.24434  -0.21142  -0.21012
 Alpha  occ. eigenvalues --   -0.19337  -0.18737
 Alpha virt. eigenvalues --   -0.11775  -0.11210  -0.05095  -0.04926  -0.04130
 Alpha virt. eigenvalues --   -0.03704  -0.02258  -0.02073  -0.01393  -0.01055
 Alpha virt. eigenvalues --   -0.00278  -0.00077   0.00446   0.00509   0.01623

 Mulliken charges:
               1
     1  Mg  12.000000
     2  C    6.000000
     3  C    6.000000
     4  C    6.000000
     5  C    6.000000
     6  N    7.000000
     7  C    6.000000
     8  C    6.000000
     9  C    6.000000
    10  C    6.000000
    11  C    6.000000
    12  C    6.000000
    13  C    6.000000
    14  H    1.000000
    15  N    7.000000
    16  C    6.000000
    17  C    6.000000
    18  C    6.000000
    19  C    6.000000
    20  C    6.000000
    21  C    6.000000
    22  O    8.000000
    23  C    6.000000
    24  N    7.000000
    25  C    6.000000
    26  C    6.000000
    27  C    6.000000
    28  C    6.000000
    29  C    6.000000
    30  C    6.000000
    31  C    6.000000
    32  N    7.000000
    33  C    6.000000
    34  C    6.000000
    35  C    6.000000
    36  C    6.000000
    37  C    6.000000
    38  C    6.000000
    39  O    8.000000
    40  C    6.000000
    41  C    6.000000
    42  O    8.000000
    43  O    8.000000
    44  C    6.000000
    45  H    1.000000
    46  H    1.000000
    47  H    1.000000
    48  H    1.000000
    49  H    1.000000
    50  H    1.000000
    51  H    1.000000
    52  H    1.000000
    53  H    1.000000
    54  H    1.000000
    55  H    1.000000
    56  H    1.000000
    57  H    1.000000
    58  H    1.000000
    59  H    1.000000
    60  H    1.000000
    61  H    1.000000
    62  H    1.000000
    63  H    1.000000
    64  H    1.000000
    65  H    1.000000
    66  H    1.000000
    67  H    1.000000
    68  H    1.000000
    69  H    1.000000
    70  H    1.000000
    71  H    1.000000
    72  H    1.000000
    73  H    1.000000
    74  H    1.000000
    75  H    1.000000
    76  H    1.000000
    77  H    1.000000
    78  H    1.000000
    79  H    1.000000
    80  Mg  12.000000
    81  C    6.000000
    82  C    6.000000
    83  C    6.000000
    84  C    6.000000
    85  N    7.000000
    86  C    6.000000
    87  C    6.000000
    88  C    6.000000
    89  C    6.000000
    90  C    6.000000
    91  C    6.000000
    92  C    6.000000
    93  H    1.000000
    94  N    7.000000
    95  C    6.000000
    96  C    6.000000
    97  C    6.000000
    98  C    6.000000
    99  C    6.000000
   100  C    6.000000
   101  O    8.000000
   102  C    6.000000
   103  N    7.000000
   104  C    6.000000
   105  C    6.000000
   106  C    6.000000
   107  C    6.000000
   108  C    6.000000
   109  C    6.000000
   110  C    6.000000
   111  N    7.000000
   112  C    6.000000
   113  C    6.000000
   114  C    6.000000
   115  C    6.000000
   116  C    6.000000
   117  C    6.000000
   118  O    8.000000
   119  C    6.000000
   120  C    6.000000
   121  O    8.000000
   122  O    8.000000
   123  C    6.000000
   124  H    1.000000
   125  H    1.000000
   126  H    1.000000
   127  H    1.000000
   128  H    1.000000
   129  H    1.000000
   130  H    1.000000
   131  H    1.000000
   132  H    1.000000
   133  H    1.000000
   134  H    1.000000
   135  H    1.000000
   136  H    1.000000
   137  H    1.000000
   138  H    1.000000
   139  H    1.000000
   140  H    1.000000
   141  H    1.000000
   142  H    1.000000
   143  H    1.000000
   144  H    1.000000
   145  H    1.000000
   146  H    1.000000
   147  H    1.000000
   148  H    1.000000
   149  H    1.000000
   150  H    1.000000
   151  H    1.000000
   152  H    1.000000
   153  H    1.000000
   154  H    1.000000
   155  H    1.000000
   156  H    1.000000
   157  H    1.000000
   158  H    1.000000
 Sum of Mulliken charges = 624.00000

 Dipole moment (field-independent basis, Debye):
    X=             -0.0000    Y=             -0.0000    Z=              0.0000  Tot=              0.0000
 Quadrupole moment (field-independent basis, Debye-Ang):
   XX=             -0.0000   YY=              0.0000   ZZ=              0.0000
   XY=              0.0000   XZ=              0.0000   YZ=              0.0000

 Normal termination of Gaussian 16 at Thu Oct 14 08:21:54 2021.
