 Gaussian 16, Revision A.03,
 Gaussian 16:  ES64L-G16RevA.03 25-Dec-2016

 --------------------------------------------------------
 #p PBE1PBE/Def2SVP td=(nstates=5) density=(transition=1)
 --------------------------------------------------------

 --------------------------------
 TDDFT excited states in gaussian
 --------------------------------
 Symbolic Z-matrix:
 Charge =  0 Multiplicity = 1

                         Standard orientation:
 ---------------------------------------------------------------------
 Center     Atomic      Atomic             Coordinates (Angstroms)
 Number     Number       Type             X           Y           Z
 ---------------------------------------------------------------------
      1         12           0        8.380500    0.509738    0.090219
      2          6           0        6.845084   -1.843746   -2.096273
      3          6           0        7.536795    3.029951   -2.070668
      4          6           0        8.907890    2.824429    2.661429
      5          6           0        8.680587   -2.028412    2.501901
      6          7           0        7.028617    0.513657   -1.813533
      7          6           0        6.743312   -0.528041   -2.611789
      8          6           0        6.501805   -0.027431   -4.024103
      9          6           0        6.653395    1.569425   -4.022206
     10          6           0        7.261736    1.677530   -2.533313
     11          6           0        7.647292    1.976293   -5.133244
     12          6           0        5.139156   -0.472049   -4.530649
     13          6           0        3.979356   -0.472481   -3.506612
     14          1           0        2.911363    0.645169   -3.656710
     15          7           0        8.327496    2.682997    0.257512
     16          6           0        7.926524    3.488636   -0.785970
     17          6           0        8.188463    4.828777   -0.363612
     18          6           0        8.503280    4.853370    1.048450
     19          6           0        8.646994    3.418881    1.403928
     20          6           0        7.893583    6.028972   -1.233258
     21          6           0        8.527070    6.062407    1.984965
     22          8           0        8.226635    7.163292    1.565084
     23          6           0        8.875491    5.979949    3.371755
     24          7           0        8.641941    0.429825    2.290725
     25          6           0        8.976687    1.474352    3.033766
     26          6           0        9.203278    1.126445    4.496004
     27          6           0        8.758287   -0.399083    4.477116
     28          6           0        8.747724   -0.728405    3.027935
     29          6           0       10.717462    1.339620    4.988012
     30          6           0        7.373723   -0.587413    5.252180
     31          6           0        7.323980   -1.334944    6.554577
     32          7           0        8.124078   -1.483160    0.135172
     33          6           0        8.408985   -2.414424    1.154518
     34          6           0        8.201572   -3.792717    0.672518
     35          6           0        7.625645   -3.566123   -0.577411
     36          6           0        7.462118   -2.164220   -0.856184
     37          6           0        8.622996   -5.154266    1.325625
     38          6           0        7.065202   -4.283619   -1.726968
     39          8           0        6.939615   -5.489633   -1.996527
     40          6           0        6.555813   -3.224131   -2.759061
     41          6           0        5.102365   -3.551110   -2.757015
     42          8           0        4.386293   -3.532899   -1.788871
     43          8           0        4.732719   -3.992419   -3.955901
     44          6           0        3.283193   -4.302927   -4.213562
     45          1           0        7.548364    3.783842   -2.860397
     46          1           0        9.161130    3.426616    3.536250
     47          1           0        8.703512   -2.716061    3.350506
     48          1           0        7.301079   -0.575777   -4.522733
     49          1           0        5.696767    2.080826   -4.132404
     50          1           0        7.126571    2.633745   -5.829165
     51          1           0        8.024611    1.145335   -5.729821
     52          1           0        8.435929    2.538327   -4.633693
     53          1           0        5.210866   -1.485272   -4.926139
     54          1           0        4.789808    0.192512   -5.321386
     55          1           0        4.224705   -0.279882   -2.462284
     56          1           0        3.520756   -1.454942   -3.619254
     57          1           0        7.432258    5.741641   -2.178443
     58          1           0        8.817034    6.601373   -1.327454
     59          1           0        7.257332    6.697730   -0.654620
     60          1           0        8.198785    5.389823    3.990126
     61          1           0        8.895189    6.982930    3.797640
     62          1           0        9.847522    5.486317    3.344233
     63          1           0        8.511590    1.615623    5.181373
     64          1           0        9.501386   -0.840794    5.141284
     65          1           0       11.305555    1.770912    4.177402
     66          1           0       11.126329    0.352412    5.204134
     67          1           0       10.846396    1.918667    5.903742
     68          1           0        6.679419   -1.199539    4.676439
     69          1           0        6.899749    0.374227    5.444063
     70          1           0        6.958749   -2.357869    6.462957
     71          1           0        6.597307   -0.719098    7.085488
     72          1           0        8.207132   -1.220458    7.183313
     73          1           0        7.926333   -5.359835    2.137879
     74          1           0        9.664062   -5.052260    1.632454
     75          1           0        8.477359   -5.946012    0.590981
     76          1           0        7.100183   -3.421511   -3.683264
     77          1           0        3.004910   -5.310313   -3.903155
     78          1           0        3.041577   -4.204317   -5.272644
     79          1           0        2.735506   -3.544476   -3.654224
     80         12           0       -8.173396    0.170832   -0.018778
     81          6           0       -5.552620   -2.085689   -0.349754
     82          6           0       -6.458398    2.180100   -2.266288
     83          6           0      -10.447840    2.603899    0.669208
     84          6           0       -9.625993   -1.907561    2.331996
     85          7           0       -6.197469    0.075081   -1.130427
     86          6           0       -5.286261   -0.969874   -1.150029
     87          6           0       -3.993612   -0.672695   -2.007127
     88          6           0       -4.227457    0.855257   -2.323914
     89          6           0       -5.709316    1.089586   -1.850595
     90          6           0       -3.331276    1.935603   -1.711364
     91          6           0       -3.909730   -1.617171   -3.220205
     92          6           0       -2.867461   -2.703290   -3.173533
     93          1           0       -2.165944   -3.048749   -4.499089
     94          7           0       -8.568348    2.044212   -0.814447
     95          6           0       -7.778328    2.610208   -1.765863
     96          6           0       -8.376630    3.931785   -2.037639
     97          6           0       -9.449789    4.131884   -1.155325
     98          6           0       -9.559813    2.945524   -0.398829
     99          6           0       -7.912696    4.756178   -3.169243
    100          6           0      -10.329782    5.331403   -0.958587
    101          8           0      -11.337999    5.337599   -0.198934
    102          6           0      -10.102553    6.597820   -1.580695
    103          7           0       -9.808651    0.296637    1.216116
    104          6           0      -10.617484    1.386857    1.314874
    105          6           0      -11.712044    1.225416    2.294939
    106          6           0      -11.505416   -0.247038    2.801900
    107          6           0      -10.230986   -0.603533    2.133652
    108          6           0      -11.941020    2.200239    3.487340
    109          6           0      -12.748818   -1.239391    2.566048
    110          6           0      -12.986619   -2.001730    1.228727
    111          7           0       -7.729701   -1.598205    0.883402
    112          6           0       -8.425299   -2.345055    1.790097
    113          6           0       -7.834272   -3.603504    1.932231
    114          6           0       -6.624605   -3.483914    1.145350
    115          6           0       -6.636579   -2.256175    0.513920
    116          6           0       -8.354910   -4.803664    2.720892
    117          6           0       -5.511132   -4.261854    0.683317
    118          8           0       -5.169458   -5.420242    0.808787
    119          6           0       -4.633075   -3.262324   -0.148296
    120          6           0       -3.415921   -2.912428    0.610498
    121          8           0       -3.135630   -1.792077    1.090606
    122          8           0       -2.560654   -3.940438    0.802276
    123          6           0       -1.185246   -3.672126    1.345010
    124          1           0       -5.883249    2.834549   -2.923617
    125          1           0      -11.184343    3.355761    0.960921
    126          1           0      -10.108002   -2.686068    2.927855
    127          1           0       -3.101158   -0.583719   -1.386799
    128          1           0       -4.195235    0.933607   -3.410573
    129          1           0       -3.890700    2.516631   -0.977800
    130          1           0       -3.155623    2.664035   -2.501594
    131          1           0       -2.401243    1.579393   -1.267013
    132          1           0       -3.632626   -0.975620   -4.057523
    133          1           0       -4.910726   -1.998022   -3.422834
    134          1           0       -3.357802   -3.609580   -2.817165
    135          1           0       -2.063046   -2.553189   -2.453337
    136          1           0       -8.778217    4.838270   -3.825422
    137          1           0       -7.055311    4.430022   -3.759398
    138          1           0       -7.658242    5.754143   -2.812375
    139          1           0       -9.033614    6.780240   -1.473442
    140          1           0      -10.819437    7.337587   -1.226774
    141          1           0      -10.215745    6.529884   -2.662701
    142          1           0      -12.561051    1.295228    1.615555
    143          1           0      -11.284445   -0.232021    3.868512
    144          1           0      -12.876132    2.752068    3.391270
    145          1           0      -11.157555    2.957421    3.533247
    146          1           0      -11.901671    1.711131    4.460579
    147          1           0      -13.597841   -0.563814    2.672395
    148          1           0      -12.654852   -1.883216    3.440684
    149          1           0      -12.171194   -1.946865    0.507959
    150          1           0      -13.952562   -1.839123    0.749746
    151          1           0      -13.091710   -3.038390    1.546015
    152          1           0       -7.632461   -5.149156    3.461095
    153          1           0       -8.477727   -5.627765    2.018317
    154          1           0       -9.336371   -4.658184    3.172959
    155          1           0       -4.235686   -3.813654   -1.000653
    156          1           0       -0.751873   -4.636644    1.080077
    157          1           0       -1.142907   -3.459667    2.412760
    158          1           0       -0.737139   -2.833206    0.811648
 ---------------------------------------------------------------------

 SCF Done:  E(RPBE1PBE) =  -4067.34385993     A.U. after   16 cycles

 Excitation energies and oscillator strengths:

 Excited State   1:      Singlet-A      1.7492 eV  708.82 nm  f=0.0000  <S**2>=0.000
     312 -> 313        0.70707
 This state for optimization and/or second-order correction.
 Total Energy, E(TD-HF/TD-DFT) =  -4067.27957942
 Copying the excited state density for this state as the 1-particle RhoCI density.

 Excited State   2:      Singlet-A      1.8504 eV  670.05 nm  f=0.1259  <S**2>=0.000
     309 -> 315       -0.17859
     311 -> 313        0.63632
     312 -> 314        0.26204

 Excited State   3:      Singlet-A      1.8681 eV  663.70 nm  f=0.5613  <S**2>=0.000
     310 -> 316       -0.15811
     311 -> 313       -0.25962
     312 -> 314        0.64011
     312 <- 314       -0.10121

 Excited State   4:      Singlet-A      1.9919 eV  622.45 nm  f=0.0000  <S**2>=0.000
     311 -> 314        0.70710

 Excited State   5:      Singlet-A      2.2156 eV  559.58 nm  f=0.0708  <S**2>=0.000
     309 -> 313        0.61688
     310 -> 314       -0.14800
     311 -> 315        0.29228

 The electronic state is 1-A.
 Alpha  occ. eigenvalues --  -46.93678 -46.90815 -19.25836 -19.24342 -19.19228
 Alpha  occ. eigenvalues --  -19.19225 -19.18353 -19.18336 -19.18234 -19.18069
 Alpha  occ. eigenvalues --  -14.42030 -14.41549 -14.41352 -14.41280 -14.39939
 Alpha  occ. eigenvalues --  -14.39287 -14.39069 -14.37932 -10.35877 -10.35261
 Alpha  occ. eigenvalues --  -10.32282 -10.31489 -10.31487 -10.31195 -10.29876
 Alpha  occ. eigenvalues --  -10.29793 -10.29249 -10.28889 -10.28747 -10.28641
 Alpha  occ. eigenvalues --  -10.28608 -10.28591 -10.28468 -10.28440 -10.28132
 Alpha  occ. eigenvalues --  -10.28014 -10.27808 -10.27674 -10.27568 -10.27563
 Alpha  occ. eigenvalues --  -10.26816 -10.26664 -10.26663 -10.26313 -10.26165
 Alpha  occ. eigenvalues --  -10.26145 -10.26097 -10.26083 -10.25862 -10.25858
 Alpha  occ. eigenvalues --  -10.25827 -10.25825 -10.25788 -10.25774 -10.25620
 Alpha  occ. eigenvalues --  -10.25496 -10.25329 -10.25175 -10.25151 -10.25131
 Alpha  occ. eigenvalues --  -10.24974 -10.24834 -10.24817 -10.24814 -10.24744
 Alpha  occ. eigenvalues --  -10.24650 -10.24509 -10.24383 -10.24372 -10.24331
 Alpha  occ. eigenvalues --  -10.24236 -10.24202 -10.24165 -10.24148 -10.23772
 Alpha  occ. eigenvalues --  -10.23657 -10.23653 -10.23380 -10.23324 -10.23284
 Alpha  occ. eigenvalues --  -10.23073 -10.23007 -10.22989 -10.22809 -10.22563
 Alpha  occ. eigenvalues --  -10.22283  -3.15571  -3.13107  -1.88373  -1.87976
 Alpha  occ. eigenvalues --   -1.87770  -1.85960  -1.85486  -1.85335  -1.11964
 Alpha  occ. eigenvalues --   -1.09562  -1.05007  -1.04165  -1.03674  -1.02656
 Alpha  occ. eigenvalues --   -1.02505  -0.99633  -0.99365  -0.99300  -0.98639
 Alpha  occ. eigenvalues --   -0.98381  -0.97738  -0.97183  -0.96754  -0.96318
 Alpha  occ. eigenvalues --   -0.87334  -0.86410  -0.83329  -0.83185  -0.83145
 Alpha  occ. eigenvalues --   -0.82640  -0.82628  -0.82497  -0.81722  -0.81504
 Alpha  occ. eigenvalues --   -0.81202  -0.80570  -0.80337  -0.79701  -0.79013
 Alpha  occ. eigenvalues --   -0.78499  -0.78402  -0.77771  -0.77171  -0.76946
 Alpha  occ. eigenvalues --   -0.76864  -0.76595  -0.75535  -0.75154  -0.74708
 Alpha  occ. eigenvalues --   -0.74679  -0.72765  -0.72325  -0.71736  -0.71690
 Alpha  occ. eigenvalues --   -0.70992  -0.70780  -0.70687  -0.70279  -0.69533
 Alpha  occ. eigenvalues --   -0.69396  -0.67436  -0.67397  -0.66280  -0.65649
 Alpha  occ. eigenvalues --   -0.64388  -0.63345  -0.62999  -0.62993  -0.62663
 Alpha  occ. eigenvalues --   -0.62314  -0.61392  -0.61232  -0.60083  -0.59739
 Alpha  occ. eigenvalues --   -0.59558  -0.59436  -0.59368  -0.59053  -0.58768
 Alpha  occ. eigenvalues --   -0.58679  -0.57120  -0.55788  -0.54932  -0.54383
 Alpha  occ. eigenvalues --   -0.54043  -0.53946  -0.53689  -0.53568  -0.53198
 Alpha  occ. eigenvalues --   -0.53139  -0.52496  -0.52060  -0.51944  -0.51696
 Alpha  occ. eigenvalues --   -0.50864  -0.50659  -0.50459  -0.49962  -0.49713
 Alpha  occ. eigenvalues --   -0.49604  -0.49333  -0.49221  -0.48761  -0.48541
 Alpha  occ. eigenvalues --   -0.48259  -0.48139  -0.47784  -0.47643  -0.47311
 Alpha  occ. eigenvalues --   -0.47143  -0.47006  -0.46930  -0.46860  -0.46765
 Alpha  occ. eigenvalues --   -0.46541  -0.46463  -0.46323  -0.46178  -0.45532
 Alpha  occ. eigenvalues --   -0.45324  -0.45226  -0.44875  -0.44815  -0.44665
 Alpha  occ. eigenvalues --   -0.44481  -0.44386  -0.44227  -0.44141  -0.44074
 Alpha  occ. eigenvalues --   -0.43912  -0.43863  -0.43607  -0.43467  -0.43313
 Alpha  occ. eigenvalues --   -0.43215  -0.43037  -0.42839  -0.42614  -0.42522
 Alpha  occ. eigenvalues --   -0.42463  -0.42287  -0.42042  -0.41775  -0.41728
 Alpha  occ. eigenvalues --   -0.41688  -0.41430  -0.41299  -0.41117  -0.41050
 Alpha  occ. eigenvalues --   -0.40867  -0.40663  -0.40640  -0.40389  -0.40311
 Alpha  occ. eigenvalues --   -0.40184  -0.40057  -0.40014  -0.39924  -0.39920
 Alpha  occ. eigenvalues --   -0.39798  -0.39704  -0.39442  -0.39233  -0.38900
 Alpha  occ. eigenvalues --   -0.38854  -0.38670  -0.38668  -0.38441  -0.38423
 Alpha  occ. eigenvalues --   -0.38369  -0.38117  -0.38051  -0.37865  -0.37613
 Alpha  occ. eigenvalues --   -0.37522  -0.37342  -0.37239  -0.36980  -0.36419
 Alpha  occ. eigenvalues --   -0.36320  -0.36319  -0.36216  -0.35969  -0.35878
 Alpha  occ. eigenvalues --   -0.35814  -0.35499  -0.35096  -0.35058  -0.35053
 Alpha  occ. eigenvalues --   -0.34807  -0.34705  -0.34493  -0.33726  -0.33686
 Alpha  occ. eigenvalues --   -0.33117  -0.33061  -0.32743  -0.32508  -0.32216
 Alpha  occ. eigenvalues --   -0.31911  -0.31797  -0.31530  -0.31474  -0.31364
 Alpha  occ. eigenvalues --   -0.30879  -0.30213  -0.29409  -0.29389  -0.29250
 Alpha  occ. eigenvalues --   -0.28958  -0.28660  -0.27301  -0.27117  -0.26542
 Alpha  occ. eigenvalues --   -0.26115  -0.25629  -0.25519  -0.25451  -0.25103
 Alpha  occ. eigenvalues --   -0.24885  -0.24731  -0.24579  -0.21325  -0.20486
 Alpha  occ. eigenvalues --   -0.19083  -0.18586
 Alpha virt. eigenvalues --   -0.11364  -0.10962  -0.06028  -0.04763  -0.04063
 Alpha virt. eigenvalues --   -0.03382  -0.02159  -0.01901  -0.01757   0.00313
 Alpha virt. eigenvalues --    0.00691   0.00771   0.00997   0.01534   0.02048

 Mulliken charges:
               1
     1  Mg  12.000000
     2  C    6.000000
     3  C    6.000001
     4  C    6.000000
     5  C    5.999998
     6  N    6.999999
     7  C    6.000001
     8  C    6.000000
     9  C    6.000001
    10  C    5.999998
    11  C    6.000000
    12  C    5.999999
    13  C    6.000001
    14  H    0.999999
    15  N    7.000000
    16  C    5.999998
    17  C    5.999999
    18  C    5.999999
    19  C    5.999998
    20  C    6.000000
    21  C    5.999999
    22  O    7.999999
    23  C    6.000000
    24  N    7.000000
    25  C    5.999999
    26  C    6.000001
    27  C    5.999999
    28  C    6.000002
    29  C    6.000000
    30  C    6.000000
    31  C    6.000000
    32  N    7.000000
    33  C    6.000002
    34  C    6.000001
    35  C    6.000000
    36  C    6.000001
    37  C    6.000000
    38  C    6.000000
    39  O    8.000001
    40  C    6.000000
    41  C    6.000001
    42  O    8.000001
    43  O    8.000000
    44  C    6.000000
    45  H    1.000000
    46  H    0.999999
    47  H    1.000000
    48  H    1.000000
    49  H    1.000000
    50  H    1.000000
    51  H    0.999999
    52  H    1.000000
    53  H    1.000000
    54  H    1.000000
    55  H    1.000000
    56  H    0.999999
    57  H    0.999999
    58  H    0.999999
    59  H    0.999999
    60  H    0.999999
    61  H    0.999999
    62  H    1.000000
    63  H    1.000000
    64  H    1.000000
    65  H    1.000000
    66  H    0.999999
    67  H    1.000000
    68  H    1.000000
    69  H    1.000001
    70  H    1.000000
    71  H    1.000000
    72  H    1.000000
    73  H    1.000001
    74  H    1.000001
    75  H    1.000000
    76  H    1.000001
    77  H    1.000000
    78  H    1.000000
    79  H    0.999999
    80  Mg  12.000000
    81  C    5.999999
    82  C    6.000001
    83  C    6.000001
    84  C    6.000001
    85  N    7.000000
    86  C    6.000002
    87  C    5.999999
    88  C    6.000000
    89  C    6.000000
    90  C    6.000003
    91  C    6.000001
    92  C    5.999999
    93  H    1.000000
    94  N    7.000000
    95  C    5.999999
    96  C    6.000000
    97  C    6.000000
    98  C    5.999999
    99  C    6.000000
   100  C    6.000000
   101  O    7.999999
   102  C    6.000000
   103  N    7.000000
   104  C    5.999999
   105  C    6.000000
   106  C    6.000000
   107  C    6.000002
   108  C    6.000000
   109  C    6.000000
   110  C    6.000000
   111  N    7.000000
   112  C    6.000001
   113  C    6.000001
   114  C    6.000000
   115  C    6.000001
   116  C    6.000000
   117  C    6.000001
   118  O    8.000001
   119  C    6.000000
   120  C    6.000000
   121  O    8.000000
   122  O    8.000000
   123  C    6.000000
   124  H    1.000000
   125  H    1.000000
   126  H    1.000000
   127  H    1.000000
   128  H    1.000000
   129  H    1.000000
   130  H    1.000000
   131  H    0.999996
   132  H    1.000000
   133  H    1.000000
   134  H    1.000000
   135  H    1.000001
   136  H    1.000000
   137  H    0.999999
   138  H    0.999999
   139  H    1.000000
   140  H    1.000000
   141  H    1.000000
   142  H    1.000000
   143  H    1.000000
   144  H    1.000000
   145  H    1.000000
   146  H    1.000000
   147  H    1.000000
   148  H    1.000000
   149  H    1.000000
   150  H    1.000000
   151  H    1.000000
   152  H    1.000000
   153  H    1.000001
   154  H    1.000001
   155  H    1.000000
   156  H    1.000000
   157  H    1.000000
   158  H    1.000000
 Sum of Mulliken charges = 624.00000

 Dipole moment (field-independent basis, Debye):
    X=             -0.0004    Y=             -0.0008    Z=              0.0001  Tot=              0.0009
 Quadrupole moment (field-independent basis, Debye-Ang):
   XX=             -0.0004   YY=             -0.0007   ZZ=             -0.0001
   XY=             -0.0019   XZ=             -0.0011   YZ=             -0.0000

 Normal termination of Gaussian 16 at Wed Oct 13 22:53:33 2021.
