 Gaussian 16, Revision A.03,
 Gaussian 16:  ES64L-G16RevA.03 25-Dec-2016

 --------------------------------------------------------
 #p PBE1PBE/Def2SVP td=(nstates=5) density=(transition=1)
 --------------------------------------------------------

 --------------------------------
 TDDFT excited states in gaussian
 --------------------------------
 Symbolic Z-matrix:
 Charge =  0 Multiplicity = 1

                         Standard orientation:
 ---------------------------------------------------------------------
 Center     Atomic      Atomic             Coordinates (Angstroms)
 Number     Number       Type             X           Y           Z
 ---------------------------------------------------------------------
      1         12           0      -30.724114   -0.072999   -0.216344
      2          6           0      -27.377855    0.528692   -0.041651
      3          6           0      -30.115512   -3.118877    1.326860
      4          6           0      -34.050915   -0.492231   -0.045357
      5          6           0      -31.293825    3.273014   -1.146612
      6          7           0      -28.955379   -1.049044    0.789085
      7          6           0      -27.695094   -0.587637    0.661967
      8          6           0      -26.708138   -1.416310    1.399935
      9          6           0      -27.582832   -2.814527    1.511292
     10          6           0      -29.009587   -2.323243    1.187971
     11          6           0      -27.045070   -3.940038    0.579074
     12          6           0      -26.430188   -0.794636    2.759356
     13          6           0      -27.651743   -0.495821    3.746396
     14          1           0      -27.515733   -0.754047    5.241795
     15          7           0      -31.920117   -1.577991    0.529358
     16          6           0      -31.479995   -2.836481    1.011823
     17          6           0      -32.636265   -3.657317    1.151169
     18          6           0      -33.784466   -2.946708    0.824036
     19          6           0      -33.321412   -1.624565    0.370055
     20          6           0      -32.443573   -5.083239    1.625938
     21          6           0      -35.218668   -3.395522    0.971879
     22          8           0      -35.381183   -4.552568    1.433453
     23          6           0      -36.373515   -2.572556    0.837372
     24          7           0      -32.422092    1.299311   -0.346292
     25          6           0      -33.705166    0.839133   -0.298730
     26          6           0      -34.720236    1.981095   -0.544204
     27          6           0      -33.790700    3.190605   -0.897804
     28          6           0      -32.409341    2.584006   -0.718120
     29          6           0      -35.749166    1.657110   -1.606227
     30          6           0      -34.085628    4.458829    0.067682
     31          6           0      -34.092549    5.808861   -0.658505
     32          7           0      -29.595823    1.663034   -0.566574
     33          6           0      -29.907942    2.863028   -1.120862
     34          6           0      -28.666644    3.492541   -1.481094
     35          6           0      -27.580685    2.618661   -1.128223
     36          6           0      -28.217275    1.532544   -0.550683
     37          6           0      -28.510634    4.918441   -1.885743
     38          6           0      -26.171814    2.413334   -1.023501
     39          8           0      -25.315917    3.203758   -1.440666
     40          6           0      -25.998365    1.059259   -0.360727
     41          6           0      -25.222599    0.183455   -1.272291
     42          8           0      -24.122421    0.541209   -1.644567
     43          8           0      -25.807864   -1.015935   -1.541562
     44          6           0      -25.040529   -1.898977   -2.422101
     45          1           0      -29.903862   -4.166714    1.549264
     46          1           0      -35.104835   -0.726855   -0.207582
     47          1           0      -31.380613    4.260244   -1.605892
     48          1           0      -25.729168   -1.575992    0.947917
     49          1           0      -27.439987   -3.285417    2.484767
     50          1           0      -26.777221   -4.815682    1.169219
     51          1           0      -26.133191   -3.558440    0.119004
     52          1           0      -27.723849   -4.229950   -0.224044
     53          1           0      -25.820129    0.091751    2.584225
     54          1           0      -25.671917   -1.464824    3.164115
     55          1           0      -28.577499   -1.028406    3.528210
     56          1           0      -27.752846    0.584392    3.645549
     57          1           0      -32.417544   -5.023740    2.714164
     58          1           0      -31.473504   -5.440769    1.282895
     59          1           0      -33.196371   -5.805718    1.309206
     60          1           0      -37.191662   -2.915528    1.471489
     61          1           0      -36.666409   -2.396577   -0.198488
     62          1           0      -36.096000   -1.631491    1.310281
     63          1           0      -35.178375    2.116201    0.436192
     64          1           0      -33.877955    3.414980   -1.960711
     65          1           0      -35.699443    0.632711   -1.974364
     66          1           0      -35.906034    2.313980   -2.461381
     67          1           0      -36.671976    1.603760   -1.027842
     68          1           0      -33.374699    4.564461    0.887214
     69          1           0      -35.023364    4.349289    0.612142
     70          1           0      -35.124582    6.153317   -0.718687
     71          1           0      -33.777541    5.641900   -1.688771
     72          1           0      -33.484131    6.563712   -0.160140
     73          1           0      -28.899825    5.211164   -2.860163
     74          1           0      -27.438777    5.112689   -1.831786
     75          1           0      -29.018838    5.597269   -1.200807
     76          1           0      -25.418340    1.238570    0.545017
     77          1           0      -24.067747   -2.066135   -1.958766
     78          1           0      -24.959156   -1.528778   -3.444201
     79          1           0      -25.588183   -2.821930   -2.612147
     80         12           0       30.661023    0.356595   -0.345416
     81          6           0       27.774029   -1.415374   -0.040130
     82          6           0       28.876449    3.268107    0.574847
     83          6           0       33.581407    1.799418    0.392014
     84          6           0       32.488881   -2.733152   -0.739139
     85          7           0       28.595311    0.813131    0.160530
     86          6           0       27.583233    0.015097    0.247486
     87          6           0       26.210284    0.765003    0.380846
     88          6           0       26.580635    2.293761    0.281289
     89          6           0       28.143646    2.176492    0.303813
     90          6           0       25.897060    3.088012   -0.832589
     91          6           0       25.387844    0.317821    1.730116
     92          6           0       26.164623   -0.271022    2.896581
     93          1           0       25.560546   -0.293533    4.300666
     94          7           0       31.145474    2.272113    0.392428
     95          6           0       30.308734    3.333720    0.639905
     96          6           0       31.052080    4.417504    1.117651
     97          6           0       32.446355    4.025828    1.123618
     98          6           0       32.450687    2.614919    0.655039
     99          6           0       30.398743    5.767242    1.351675
    100          6           0       33.600908    4.945035    1.561666
    101          8           0       33.312697    6.103223    1.938404
    102          6           0       34.991008    4.591892    1.580549
    103          7           0       32.795950   -0.424013   -0.035344
    104          6           0       33.745232    0.462587    0.064926
    105          6           0       35.166718   -0.146903   -0.098394
    106          6           0       34.825552   -1.594354   -0.514890
    107          6           0       33.245487   -1.658754   -0.464945
    108          6           0       36.015107    0.527743   -1.115152
    109          6           0       35.544156   -2.691276    0.403713
    110          6           0       36.676716   -3.551689   -0.293498
    111          7           0       30.288483   -1.664546   -0.506499
    112          6           0       31.077932   -2.805591   -0.696721
    113          6           0       30.178117   -3.996706   -0.796509
    114          6           0       28.911824   -3.472208   -0.501032
    115          6           0       29.018450   -2.064292   -0.297829
    116          6           0       30.516224   -5.382657   -1.059077
    117          6           0       27.600299   -3.888997   -0.299909
    118          8           0       27.027810   -4.986300   -0.372157
    119          6           0       26.784840   -2.582087   -0.086601
    120          6           0       25.670651   -2.529992   -1.158865
    121          8           0       24.473177   -2.387675   -0.979006
    122          8           0       26.171082   -2.661877   -2.436157
    123          6           0       25.210310   -2.667752   -3.545720
    124          1           0       28.249799    4.096953    0.910202
    125          1           0       34.570393    2.256755    0.461268
    126          1           0       33.035989   -3.632722   -1.028417
    127          1           0       25.668433    0.570017   -0.544999
    128          1           0       26.366167    2.829640    1.206439
    129          1           0       26.641599    3.418556   -1.556553
    130          1           0       25.403339    3.984761   -0.456393
    131          1           0       25.088841    2.573905   -1.352836
    132          1           0       24.642489   -0.356178    1.307232
    133          1           0       24.877046    1.126783    2.252829
    134          1           0       27.077097    0.324574    2.905293
    135          1           0       26.448792   -1.271961    2.571321
    136          1           0       30.779499    6.650898    0.838885
    137          1           0       30.346780    5.945550    2.425991
    138          1           0       29.352287    5.708398    1.053018
    139          1           0       35.461991    4.326866    0.634123
    140          1           0       35.137612    3.660701    2.126884
    141          1           0       35.616075    5.303071    2.119664
    142          1           0       35.833704   -0.155680    0.763571
    143          1           0       35.029973   -1.799443   -1.565792
    144          1           0       36.799813    1.166958   -0.710803
    145          1           0       35.439077    1.275888   -1.660909
    146          1           0       36.463510   -0.210178   -1.780164
    147          1           0       34.795623   -3.431807    0.688766
    148          1           0       36.074825   -2.282124    1.262350
    149          1           0       37.548599   -3.603558    0.357391
    150          1           0       37.025602   -2.999032   -1.165917
    151          1           0       36.250898   -4.551194   -0.383560
    152          1           0       31.395307   -5.327474   -1.701584
    153          1           0       29.706685   -5.881638   -1.592979
    154          1           0       30.621722   -5.859357   -0.084987
    155          1           0       26.114182   -2.629494    0.771035
    156          1           0       25.663121   -3.192295   -4.387314
    157          1           0       24.911893   -1.710759   -3.973443
    158          1           0       24.239639   -3.090868   -3.285462
 ---------------------------------------------------------------------

 SCF Done:  E(RPBE1PBE) =  -4067.34377421     A.U. after   19 cycles

 Excitation energies and oscillator strengths:

 Excited State   1:      Singlet-A      1.8537 eV  668.85 nm  f=0.4173  <S**2>=0.000
     309 -> 315       -0.15851
     311 -> 313        0.69704
     311 <- 313       -0.12237
 This state for optimization and/or second-order correction.
 Total Energy, E(TD-HF/TD-DFT) =  -4067.27565244
 Copying the excited state density for this state as the 1-particle RhoCI density.

 Excited State   2:      Singlet-A      1.8908 eV  655.72 nm  f=0.3790  <S**2>=0.000
     310 -> 316       -0.16975
     312 -> 314        0.69198
     312 <- 314       -0.10820

 Excited State   3:      Singlet-A      1.9320 eV  641.75 nm  f=0.0000  <S**2>=0.000
     312 -> 313        0.70711

 Excited State   4:      Singlet-A      2.0497 eV  604.88 nm  f=0.0000  <S**2>=0.000
     311 -> 314        0.70711

 Excited State   5:      Singlet-A      2.2081 eV  561.51 nm  f=0.1164  <S**2>=0.000
     310 -> 314        0.66032
     312 -> 316        0.22048

 The electronic state is 1-A.
 Alpha  occ. eigenvalues --  -46.93703 -46.92465 -19.27046 -19.25471 -19.20300
 Alpha  occ. eigenvalues --  -19.19747 -19.19008 -19.18674 -19.18243 -19.17854
 Alpha  occ. eigenvalues --  -14.42688 -14.41565 -14.41475 -14.41395 -14.40102
 Alpha  occ. eigenvalues --  -14.39593 -14.39378 -14.38375 -10.36722 -10.36507
 Alpha  occ. eigenvalues --  -10.31814 -10.31721 -10.31638 -10.31583 -10.30540
 Alpha  occ. eigenvalues --  -10.29967 -10.29248 -10.29233 -10.28856 -10.28731
 Alpha  occ. eigenvalues --  -10.28675 -10.28674 -10.28673 -10.28584 -10.28562
 Alpha  occ. eigenvalues --  -10.28321 -10.28017 -10.27863 -10.27827 -10.27130
 Alpha  occ. eigenvalues --  -10.27121 -10.27059 -10.27035 -10.26960 -10.26572
 Alpha  occ. eigenvalues --  -10.26318 -10.26294 -10.26254 -10.26238 -10.26212
 Alpha  occ. eigenvalues --  -10.26150 -10.26137 -10.26061 -10.25868 -10.25840
 Alpha  occ. eigenvalues --  -10.25686 -10.25683 -10.25540 -10.25052 -10.25035
 Alpha  occ. eigenvalues --  -10.24971 -10.24901 -10.24894 -10.24880 -10.24862
 Alpha  occ. eigenvalues --  -10.24801 -10.24801 -10.24787 -10.24753 -10.24674
 Alpha  occ. eigenvalues --  -10.24481 -10.24383 -10.24117 -10.23980 -10.23920
 Alpha  occ. eigenvalues --  -10.23776 -10.23653 -10.23575 -10.23517 -10.23074
 Alpha  occ. eigenvalues --  -10.23074 -10.23068 -10.22850 -10.22558 -10.22554
 Alpha  occ. eigenvalues --  -10.22456  -3.15692  -3.14501  -1.88508  -1.88099
 Alpha  occ. eigenvalues --   -1.87880  -1.87316  -1.86893  -1.86706  -1.12201
 Alpha  occ. eigenvalues --   -1.10841  -1.03888  -1.03587  -1.02949  -1.02878
 Alpha  occ. eigenvalues --   -1.02519  -1.02131  -0.99588  -0.99554  -0.99137
 Alpha  occ. eigenvalues --   -0.99107  -0.98192  -0.97545  -0.97116  -0.95972
 Alpha  occ. eigenvalues --   -0.88533  -0.87227  -0.84021  -0.83724  -0.83523
 Alpha  occ. eigenvalues --   -0.83319  -0.83313  -0.83035  -0.82445  -0.82084
 Alpha  occ. eigenvalues --   -0.82080  -0.80513  -0.80172  -0.79746  -0.79388
 Alpha  occ. eigenvalues --   -0.78998  -0.78446  -0.78418  -0.77501  -0.77214
 Alpha  occ. eigenvalues --   -0.77047  -0.76813  -0.75785  -0.75676  -0.75255
 Alpha  occ. eigenvalues --   -0.74550  -0.72973  -0.72841  -0.72240  -0.71699
 Alpha  occ. eigenvalues --   -0.71379  -0.71247  -0.70641  -0.70431  -0.69705
 Alpha  occ. eigenvalues --   -0.69275  -0.67835  -0.66997  -0.66543  -0.66425
 Alpha  occ. eigenvalues --   -0.64416  -0.63968  -0.63622  -0.63265  -0.63231
 Alpha  occ. eigenvalues --   -0.62747  -0.61531  -0.61370  -0.60967  -0.60410
 Alpha  occ. eigenvalues --   -0.60140  -0.59816  -0.59748  -0.59356  -0.59102
 Alpha  occ. eigenvalues --   -0.58898  -0.58399  -0.57826  -0.55396  -0.54777
 Alpha  occ. eigenvalues --   -0.54574  -0.54224  -0.53835  -0.53576  -0.53222
 Alpha  occ. eigenvalues --   -0.53158  -0.52997  -0.52667  -0.52658  -0.51685
 Alpha  occ. eigenvalues --   -0.51285  -0.51130  -0.51013  -0.50414  -0.50252
 Alpha  occ. eigenvalues --   -0.49975  -0.49714  -0.49280  -0.49133  -0.48956
 Alpha  occ. eigenvalues --   -0.48867  -0.48424  -0.48411  -0.48040  -0.47787
 Alpha  occ. eigenvalues --   -0.47762  -0.47690  -0.47485  -0.47113  -0.46958
 Alpha  occ. eigenvalues --   -0.46724  -0.46478  -0.46421  -0.46093  -0.46008
 Alpha  occ. eigenvalues --   -0.45779  -0.45708  -0.45543  -0.45531  -0.45301
 Alpha  occ. eigenvalues --   -0.44839  -0.44744  -0.44500  -0.44192  -0.44180
 Alpha  occ. eigenvalues --   -0.44042  -0.43869  -0.43789  -0.43658  -0.43422
 Alpha  occ. eigenvalues --   -0.43359  -0.43351  -0.43270  -0.43182  -0.43009
 Alpha  occ. eigenvalues --   -0.42757  -0.42383  -0.42254  -0.42096  -0.41894
 Alpha  occ. eigenvalues --   -0.41755  -0.41545  -0.41480  -0.41366  -0.41122
 Alpha  occ. eigenvalues --   -0.41006  -0.40996  -0.40743  -0.40667  -0.40519
 Alpha  occ. eigenvalues --   -0.40486  -0.40423  -0.40061  -0.39975  -0.39827
 Alpha  occ. eigenvalues --   -0.39578  -0.39571  -0.39472  -0.39434  -0.39317
 Alpha  occ. eigenvalues --   -0.39298  -0.39143  -0.38555  -0.38492  -0.38403
 Alpha  occ. eigenvalues --   -0.38322  -0.37665  -0.37602  -0.37469  -0.37378
 Alpha  occ. eigenvalues --   -0.37187  -0.37142  -0.37092  -0.36842  -0.36765
 Alpha  occ. eigenvalues --   -0.36738  -0.36640  -0.36349  -0.36082  -0.36015
 Alpha  occ. eigenvalues --   -0.35819  -0.35800  -0.35699  -0.35564  -0.35260
 Alpha  occ. eigenvalues --   -0.34985  -0.34742  -0.34505  -0.34111  -0.34012
 Alpha  occ. eigenvalues --   -0.33656  -0.33587  -0.33033  -0.32878  -0.32799
 Alpha  occ. eigenvalues --   -0.32676  -0.32459  -0.31947  -0.31833  -0.31571
 Alpha  occ. eigenvalues --   -0.31296  -0.31023  -0.29775  -0.29762  -0.29624
 Alpha  occ. eigenvalues --   -0.29287  -0.29179  -0.28552  -0.27365  -0.27141
 Alpha  occ. eigenvalues --   -0.26380  -0.25851  -0.25580  -0.25425  -0.25351
 Alpha  occ. eigenvalues --   -0.25045  -0.24832  -0.24801  -0.21798  -0.21194
 Alpha  occ. eigenvalues --   -0.19313  -0.19249
 Alpha virt. eigenvalues --   -0.11933  -0.11565  -0.05425  -0.05400  -0.04186
 Alpha virt. eigenvalues --   -0.04032  -0.02357  -0.02349  -0.02033  -0.01375
 Alpha virt. eigenvalues --    0.00490   0.00529   0.00847   0.01320   0.01426

 Mulliken charges:
               1
     1  Mg  11.999996
     2  C    6.000039
     3  C    6.000059
     4  C    5.999966
     5  C    5.999939
     6  N    7.000025
     7  C    5.999991
     8  C    6.000004
     9  C    5.999992
    10  C    5.999970
    11  C    5.999996
    12  C    6.000001
    13  C    5.999995
    14  H    1.000002
    15  N    6.999990
    16  C    5.999966
    17  C    5.999997
    18  C    5.999977
    19  C    6.000027
    20  C    6.000005
    21  C    6.000008
    22  O    7.999999
    23  C    6.000005
    24  N    6.999975
    25  C    6.000022
    26  C    5.999990
    27  C    6.000008
    28  C    6.000019
    29  C    6.000004
    30  C    6.000005
    31  C    6.000001
    32  N    7.000013
    33  C    6.000032
    34  C    6.000001
    35  C    6.000011
    36  C    5.999989
    37  C    5.999995
    38  C    5.999990
    39  O    8.000003
    40  C    5.999997
    41  C    5.999998
    42  O    8.000014
    43  O    7.999994
    44  C    5.999995
    45  H    1.000021
    46  H    0.999989
    47  H    0.999979
    48  H    1.000018
    49  H    1.000012
    50  H    1.000018
    51  H    1.000021
    52  H    1.000001
    53  H    1.000004
    54  H    1.000016
    55  H    0.999990
    56  H    0.999994
    57  H    1.000007
    58  H    1.000019
    59  H    1.000009
    60  H    0.999995
    61  H    1.000001
    62  H    0.999997
    63  H    0.999990
    64  H    0.999994
    65  H    1.000003
    66  H    0.999994
    67  H    0.999988
    68  H    0.999997
    69  H    0.999983
    70  H    0.999984
    71  H    1.000004
    72  H    0.999992
    73  H    0.999983
    74  H    0.999993
    75  H    0.999975
    76  H    1.000000
    77  H    1.000017
    78  H    1.000003
    79  H    1.000003
    80  Mg  12.001270
    81  C    5.983731
    82  C    5.965492
    83  C    6.007134
    84  C    6.029619
    85  N    6.979669
    86  C    5.977762
    87  C    6.005887
    88  C    5.989145
    89  C    6.044354
    90  C    6.000565
    91  C    6.001231
    92  C    6.007773
    93  H    0.989428
    94  N    7.000676
    95  C    6.048830
    96  C    6.010004
    97  C    6.019407
    98  C    6.028111
    99  C    5.994335
   100  C    6.012863
   101  O    8.025758
   102  C    5.992521
   103  N    7.020788
   104  C    6.014937
   105  C    5.990644
   106  C    6.004634
   107  C    5.966070
   108  C    5.998343
   109  C    6.000080
   110  C    6.000259
   111  N    6.996629
   112  C    5.954545
   113  C    5.976500
   114  C    5.991364
   115  C    5.985076
   116  C    6.001367
   117  C    5.981567
   118  O    7.964915
   119  C    6.006984
   120  C    5.994782
   121  O    7.987782
   122  O    8.004209
   123  C    6.004322
   124  H    1.005884
   125  H    1.013533
   126  H    0.996105
   127  H    0.999648
   128  H    0.999491
   129  H    0.997818
   130  H    0.999787
   131  H    1.010340
   132  H    1.002843
   133  H    0.990856
   134  H    0.989407
   135  H    1.011111
   136  H    1.015371
   137  H    1.017247
   138  H    1.019358
   139  H    1.011328
   140  H    1.009721
   141  H    1.014256
   142  H    1.003560
   143  H    1.002149
   144  H    0.999273
   145  H    0.996779
   146  H    1.011914
   147  H    1.006634
   148  H    0.993068
   149  H    0.997355
   150  H    0.996310
   151  H    1.004320
   152  H    0.983735
   153  H    0.988139
   154  H    0.981905
   155  H    0.987536
   156  H    0.996020
   157  H    0.990604
   158  H    0.995235
 Sum of Mulliken charges = 624.00000

 Dipole moment (field-independent basis, Debye):
    X=              4.6697    Y=              9.6580    Z=              1.9109  Tot=             10.8965
 Quadrupole moment (field-independent basis, Debye-Ang):
   XX=            283.0925   YY=              5.8994   ZZ=             -0.3331
   XY=            295.9714   XZ=             59.9447   YZ=              2.8736

 Normal termination of Gaussian 16 at Thu Oct 14 22:07:00 2021.
