 Gaussian 16, Revision A.03,
 Gaussian 16:  ES64L-G16RevA.03 25-Dec-2016

 --------------------------------------------------------
 #p PBE1PBE/Def2SVP td=(nstates=5) density=(transition=1)
 --------------------------------------------------------

 --------------------------------
 TDDFT excited states in gaussian
 --------------------------------
 Symbolic Z-matrix:
 Charge =  0 Multiplicity = 1

                         Standard orientation:
 ---------------------------------------------------------------------
 Center     Atomic      Atomic             Coordinates (Angstroms)
 Number     Number       Type             X           Y           Z
 ---------------------------------------------------------------------
      1         12           0      -26.598220   -0.434508    0.412245
      2          6           0      -25.026134    2.027875   -1.361774
      3          6           0      -26.792974   -2.369843   -2.293094
      4          6           0      -28.283332   -2.558289    2.221249
      5          6           0      -26.867038    1.944767    3.052195
      6          7           0      -26.123809   -0.131022   -1.683681
      7          6           0      -25.259080    0.832129   -2.089390
      8          6           0      -24.623841    0.495399   -3.410661
      9          6           0      -25.441164   -0.797606   -3.811802
     10          6           0      -26.241493   -1.095123   -2.562348
     11          6           0      -26.281710   -0.655816   -5.103443
     12          6           0      -22.982048    0.356365   -3.359929
     13          6           0      -22.151527    1.064724   -4.440997
     14          1           0      -22.865495    1.366070   -5.796112
     15          7           0      -27.242081   -2.214369    0.082581
     16          6           0      -27.267573   -2.903852   -1.087745
     17          6           0      -27.972766   -4.158890   -0.993874
     18          6           0      -28.225090   -4.316291    0.335449
     19          6           0      -28.023716   -2.950116    0.910647
     20          6           0      -28.250070   -4.897207   -2.290624
     21          6           0      -28.816420   -5.536342    1.069224
     22          8           0      -29.063011   -5.561287    2.252563
     23          6           0      -29.102331   -6.704562    0.172511
     24          7           0      -27.594290   -0.218925    2.314043
     25          6           0      -28.109486   -1.336440    2.857454
     26          6           0      -28.551483   -1.088045    4.303029
     27          6           0      -27.813523    0.244156    4.669671
     28          6           0      -27.412053    0.721002    3.258752
     29          6           0      -30.106731   -1.048754    4.621442
     30          6           0      -26.523768    0.106659    5.563400
     31          6           0      -25.329491   -0.713467    5.151896
     32          7           0      -26.015690    1.555653    0.893082
     33          6           0      -26.257495    2.438841    1.950274
     34          6           0      -25.656398    3.755675    1.703282
     35          6           0      -25.146208    3.637343    0.401767
     36          6           0      -25.401438    2.289498   -0.003665
     37          6           0      -25.554961    4.929086    2.643677
     38          6           0      -24.491656    4.296167   -0.633968
     39          8           0      -24.101850    5.444324   -0.778482
     40          6           0      -24.172803    3.236398   -1.720145
     41          6           0      -24.583158    3.923159   -2.966365
     42          8           0      -25.741312    4.027839   -3.377394
     43          8           0      -23.520821    4.537774   -3.563354
     44          6           0      -23.759105    5.511759   -4.633253
     45          1           0      -26.666028   -3.047911   -3.139860
     46          1           0      -28.798050   -3.237053    2.903394
     47          1           0      -26.984583    2.551457    3.953346
     48          1           0      -24.890249    1.236040   -4.164781
     49          1           0      -24.748496   -1.632523   -3.915504
     50          1           0      -27.328414   -0.523795   -4.829706
     51          1           0      -26.192716   -1.579160   -5.675843
     52          1           0      -25.898634    0.220322   -5.626780
     53          1           0      -22.796044   -0.716475   -3.411571
     54          1           0      -22.593761    0.762866   -2.426606
     55          1           0      -21.325257    0.428658   -4.757373
     56          1           0      -21.682318    1.954461   -4.021273
     57          1           0      -28.870181   -4.358567   -3.007336
     58          1           0      -28.880367   -5.786271   -2.296566
     59          1           0      -27.235586   -5.133534   -2.611735
     60          1           0      -28.203896   -7.005316   -0.365917
     61          1           0      -29.940328   -6.331671   -0.416033
     62          1           0      -29.387999   -7.654834    0.622181
     63          1           0      -28.159375   -1.972952    4.805586
     64          1           0      -28.546062    0.953250    5.055892
     65          1           0      -30.668710   -1.227528    3.705068
     66          1           0      -30.416879   -0.044222    4.906778
     67          1           0      -30.458983   -1.714885    5.410501
     68          1           0      -26.979386   -0.283993    6.473652
     69          1           0      -26.074911    1.073365    5.789434
     70          1           0      -25.575128   -1.293040    4.261073
     71          1           0      -25.073417   -1.432386    5.930003
     72          1           0      -24.437516   -0.160031    4.858993
     73          1           0      -26.221821    5.743839    2.365086
     74          1           0      -24.526232    5.288486    2.674271
     75          1           0      -25.936797    4.523137    3.580766
     76          1           0      -23.129550    2.921739   -1.687750
     77          1           0      -22.948982    6.237044   -4.717866
     78          1           0      -24.762858    5.931395   -4.586898
     79          1           0      -23.825663    5.045231   -5.615947
     80         12           0       26.592874    0.506921   -0.149347
     81          6           0       25.429178   -2.748057    0.007057
     82          6           0       23.419702    1.650297    0.617091
     83          6           0       27.935769    3.549789    0.427217
     84          6           0       29.806253   -0.880716   -0.580984
     85          7           0       24.701131   -0.469975    0.547261
     86          6           0       24.466150   -1.766641    0.327576
     87          6           0       23.016087   -2.130004    0.773639
     88          6           0       22.306747   -0.696284    0.697965
     89          6           0       23.547346    0.263032    0.535869
     90          6           0       21.209769   -0.623021   -0.391430
     91          6           0       23.014184   -2.641277    2.196316
     92          6           0       22.089716   -3.817621    2.468681
     93          1           0       21.281969   -3.974830    3.811796
     94          7           0       25.702026    2.398730    0.282164
     95          6           0       24.433374    2.671096    0.633020
     96          6           0       24.334477    4.081384    0.826592
     97          6           0       25.604551    4.694474    0.603169
     98          6           0       26.503267    3.554277    0.384755
     99          6           0       23.023491    4.750847    1.014872
    100          6           0       25.880513    6.141864    0.806457
    101          8           0       24.971698    6.906120    1.085544
    102          6           0       27.274433    6.724846    0.607208
    103          7           0       28.677519    1.255328   -0.174712
    104          6           0       28.903118    2.552485    0.175640
    105          6           0       30.361277    2.793509    0.395379
    106          6           0       30.953314    1.341121    0.070688
    107          6           0       29.779808    0.480908   -0.327683
    108          6           0       30.954851    3.954870   -0.423774
    109          6           0       31.839827    0.677339    1.215427
    110          6           0       33.250745    0.128424    0.898218
    111          7           0       27.459526   -1.366552   -0.289888
    112          6           0       28.736894   -1.763392   -0.532989
    113          6           0       28.756958   -3.104387   -0.918818
    114          6           0       27.463888   -3.581939   -0.756539
    115          6           0       26.732314   -2.512570   -0.304179
    116          6           0       30.042976   -3.893432   -1.302684
    117          6           0       26.623358   -4.680066   -0.870937
    118          8           0       26.926799   -5.840649   -1.124163
    119          6           0       25.173506   -4.257018   -0.329588
    120          6           0       24.189954   -4.308813   -1.350300
    121          8           0       23.960285   -3.544169   -2.290337
    122          8           0       23.438908   -5.453190   -1.100120
    123          6           0       22.331319   -5.820284   -1.965764
    124          1           0       22.397814    2.024978    0.702843
    125          1           0       28.509838    4.466248    0.581897
    126          1           0       30.830192   -1.190485   -0.800670
    127          1           0       22.638180   -2.890296    0.090650
    128          1           0       21.896899   -0.353010    1.647300
    129          1           0       21.178569   -1.529286   -0.995934
    130          1           0       21.388810    0.242578   -1.030022
    131          1           0       20.260637   -0.442067    0.112530
    132          1           0       22.832555   -1.919213    2.992651
    133          1           0       24.060183   -2.868907    2.401595
    134          1           0       22.672838   -4.717616    2.274284
    135          1           0       21.381161   -3.720013    1.646187
    136          1           0       22.792961    5.108725    0.011611
    137          1           0       23.088553    5.562420    1.739844
    138          1           0       22.242656    4.075657    1.365062
    139          1           0       27.822179    6.493825    1.520956
    140          1           0       27.145065    7.806570    0.632516
    141          1           0       27.736420    6.323803   -0.294827
    142          1           0       30.355348    3.014039    1.462332
    143          1           0       31.684457    1.378046   -0.736901
    144          1           0       31.116780    4.766538    0.286273
    145          1           0       30.314650    4.262417   -1.251256
    146          1           0       31.934647    3.664766   -0.802390
    147          1           0       31.286563   -0.166616    1.627170
    148          1           0       32.064381    1.366094    2.030152
    149          1           0       32.988186   -0.895918    0.634172
    150          1           0       33.862347    0.111933    1.799381
    151          1           0       33.776032    0.452328   -0.000161
    152          1           0       30.607947   -4.093360   -0.393120
    153          1           0       30.758256   -3.367378   -1.935233
    154          1           0       29.790415   -4.846536   -1.768168
    155          1           0       24.975736   -4.908424    0.521820
    156          1           0       22.269426   -6.908058   -1.957271
    157          1           0       22.357503   -5.383781   -2.964556
    158          1           0       21.412471   -5.503893   -1.471886
 ---------------------------------------------------------------------

 SCF Done:  E(RPBE1PBE) =  -4067.34809272     A.U. after   16 cycles

 Excitation energies and oscillator strengths:

 Excited State   1:      Singlet-A      1.7329 eV  715.46 nm  f=0.0000  <S**2>=0.000
     312 -> 313        0.70711
 This state for optimization and/or second-order correction.
 Total Energy, E(TD-HF/TD-DFT) =  -4067.28440841
 Copying the excited state density for this state as the 1-particle RhoCI density.

 Excited State   2:      Singlet-A      1.8605 eV  666.39 nm  f=0.3831  <S**2>=0.000
     309 -> 315       -0.17791
     311 -> 313        0.69232
     311 <- 313       -0.11026

 Excited State   3:      Singlet-A      1.8950 eV  654.27 nm  f=0.3672  <S**2>=0.000
     310 -> 316        0.18686
     312 -> 314        0.68805

 Excited State   4:      Singlet-A      2.2365 eV  554.37 nm  f=0.0962  <S**2>=0.000
     309 -> 313        0.64825
     311 -> 315        0.26569

 Excited State   5:      Singlet-A      2.2581 eV  549.07 nm  f=0.0658  <S**2>=0.000
     310 -> 314        0.63634
     312 -> 316       -0.29840

 The electronic state is 1-A.
 Alpha  occ. eigenvalues --  -46.93074 -46.91358 -19.25275 -19.24614 -19.20351
 Alpha  occ. eigenvalues --  -19.19927 -19.19523 -19.18639 -19.18612 -19.18088
 Alpha  occ. eigenvalues --  -14.41888 -14.41513 -14.41174 -14.40562 -14.39535
 Alpha  occ. eigenvalues --  -14.39477 -14.38889 -14.38489 -10.36528 -10.35318
 Alpha  occ. eigenvalues --  -10.32898 -10.32370 -10.31793 -10.30823 -10.29283
 Alpha  occ. eigenvalues --  -10.29159 -10.29053 -10.28879 -10.28787 -10.28635
 Alpha  occ. eigenvalues --  -10.28314 -10.28290 -10.28076 -10.27923 -10.27828
 Alpha  occ. eigenvalues --  -10.27515 -10.27493 -10.27128 -10.26928 -10.26727
 Alpha  occ. eigenvalues --  -10.26540 -10.26341 -10.26322 -10.26291 -10.26213
 Alpha  occ. eigenvalues --  -10.26157 -10.26130 -10.26013 -10.25997 -10.25966
 Alpha  occ. eigenvalues --  -10.25936 -10.25736 -10.25695 -10.25672 -10.25487
 Alpha  occ. eigenvalues --  -10.25485 -10.25468 -10.25417 -10.25408 -10.25274
 Alpha  occ. eigenvalues --  -10.25235 -10.25128 -10.25083 -10.25033 -10.25009
 Alpha  occ. eigenvalues --  -10.24633 -10.24471 -10.24380 -10.24366 -10.24081
 Alpha  occ. eigenvalues --  -10.23975 -10.23963 -10.23653 -10.23649 -10.23519
 Alpha  occ. eigenvalues --  -10.23480 -10.23464 -10.23365 -10.23360 -10.23320
 Alpha  occ. eigenvalues --  -10.23132 -10.22727 -10.22647 -10.22544 -10.22402
 Alpha  occ. eigenvalues --  -10.22017  -3.14983  -3.13785  -1.87836  -1.87351
 Alpha  occ. eigenvalues --   -1.87197  -1.86593  -1.86175  -1.86042  -1.10443
 Alpha  occ. eigenvalues --   -1.09657  -1.06076  -1.04803  -1.04762  -1.03916
 Alpha  occ. eigenvalues --   -1.02276  -1.00780  -1.00206  -1.00140  -0.99275
 Alpha  occ. eigenvalues --   -0.98839  -0.98720  -0.98492  -0.97782  -0.97320
 Alpha  occ. eigenvalues --   -0.88288  -0.86818  -0.83821  -0.83792  -0.83398
 Alpha  occ. eigenvalues --   -0.82700  -0.82692  -0.82274  -0.82256  -0.82246
 Alpha  occ. eigenvalues --   -0.81817  -0.81251  -0.81015  -0.80566  -0.79728
 Alpha  occ. eigenvalues --   -0.78913  -0.78635  -0.77896  -0.77340  -0.76873
 Alpha  occ. eigenvalues --   -0.76719  -0.76485  -0.75839  -0.75402  -0.75100
 Alpha  occ. eigenvalues --   -0.74825  -0.73212  -0.72534  -0.71942  -0.71855
 Alpha  occ. eigenvalues --   -0.71317  -0.70882  -0.70798  -0.70029  -0.69548
 Alpha  occ. eigenvalues --   -0.69545  -0.67947  -0.67153  -0.66885  -0.66114
 Alpha  occ. eigenvalues --   -0.64339  -0.63998  -0.63674  -0.63432  -0.62632
 Alpha  occ. eigenvalues --   -0.62558  -0.61783  -0.61661  -0.60567  -0.60341
 Alpha  occ. eigenvalues --   -0.60072  -0.59837  -0.59478  -0.59435  -0.59255
 Alpha  occ. eigenvalues --   -0.58339  -0.57250  -0.56353  -0.55544  -0.55066
 Alpha  occ. eigenvalues --   -0.54522  -0.53920  -0.53811  -0.53717  -0.53521
 Alpha  occ. eigenvalues --   -0.52837  -0.52630  -0.52577  -0.52378  -0.52127
 Alpha  occ. eigenvalues --   -0.50953  -0.50840  -0.50668  -0.50106  -0.49872
 Alpha  occ. eigenvalues --   -0.49628  -0.49379  -0.49177  -0.48931  -0.48729
 Alpha  occ. eigenvalues --   -0.48241  -0.48216  -0.48002  -0.47816  -0.47305
 Alpha  occ. eigenvalues --   -0.47177  -0.47041  -0.46916  -0.46888  -0.46832
 Alpha  occ. eigenvalues --   -0.46733  -0.46528  -0.46364  -0.46151  -0.46115
 Alpha  occ. eigenvalues --   -0.45864  -0.45826  -0.45245  -0.45018  -0.44981
 Alpha  occ. eigenvalues --   -0.44845  -0.44735  -0.44550  -0.44258  -0.44089
 Alpha  occ. eigenvalues --   -0.44002  -0.43930  -0.43731  -0.43722  -0.43683
 Alpha  occ. eigenvalues --   -0.43411  -0.43154  -0.43047  -0.42960  -0.42725
 Alpha  occ. eigenvalues --   -0.42662  -0.42391  -0.42216  -0.41855  -0.41608
 Alpha  occ. eigenvalues --   -0.41527  -0.41494  -0.41430  -0.41346  -0.41343
 Alpha  occ. eigenvalues --   -0.41244  -0.40845  -0.40693  -0.40539  -0.40526
 Alpha  occ. eigenvalues --   -0.40255  -0.40243  -0.40101  -0.40050  -0.39803
 Alpha  occ. eigenvalues --   -0.39670  -0.39502  -0.39312  -0.39277  -0.38877
 Alpha  occ. eigenvalues --   -0.38714  -0.38712  -0.38619  -0.38463  -0.38276
 Alpha  occ. eigenvalues --   -0.38114  -0.37982  -0.37937  -0.37799  -0.37750
 Alpha  occ. eigenvalues --   -0.37685  -0.37213  -0.37063  -0.37046  -0.36891
 Alpha  occ. eigenvalues --   -0.36810  -0.36763  -0.36688  -0.36423  -0.36389
 Alpha  occ. eigenvalues --   -0.36090  -0.35922  -0.35889  -0.35637  -0.35416
 Alpha  occ. eigenvalues --   -0.35216  -0.34660  -0.34487  -0.34156  -0.33468
 Alpha  occ. eigenvalues --   -0.33275  -0.33186  -0.33183  -0.32976  -0.32433
 Alpha  occ. eigenvalues --   -0.32255  -0.32071  -0.31505  -0.31379  -0.31162
 Alpha  occ. eigenvalues --   -0.30701  -0.30116  -0.29820  -0.29580  -0.29567
 Alpha  occ. eigenvalues --   -0.29052  -0.28730  -0.27867  -0.27682  -0.27450
 Alpha  occ. eigenvalues --   -0.26427  -0.26355  -0.26136  -0.25932  -0.25526
 Alpha  occ. eigenvalues --   -0.25508  -0.25121  -0.25100  -0.21516  -0.20673
 Alpha  occ. eigenvalues --   -0.19222  -0.18275
 Alpha virt. eigenvalues --   -0.11658  -0.10444  -0.05774  -0.05226  -0.04413
 Alpha virt. eigenvalues --   -0.03930  -0.02110  -0.01867  -0.00435  -0.00220
 Alpha virt. eigenvalues --   -0.00058   0.00471   0.00945   0.01366   0.01664

 Mulliken charges:
               1
     1  Mg  12.000000
     2  C    6.000000
     3  C    6.000000
     4  C    6.000000
     5  C    6.000000
     6  N    7.000000
     7  C    6.000000
     8  C    6.000000
     9  C    6.000000
    10  C    6.000000
    11  C    6.000000
    12  C    6.000000
    13  C    6.000000
    14  H    1.000000
    15  N    7.000000
    16  C    6.000000
    17  C    6.000000
    18  C    6.000000
    19  C    6.000000
    20  C    6.000000
    21  C    6.000000
    22  O    8.000000
    23  C    6.000000
    24  N    7.000000
    25  C    6.000000
    26  C    6.000000
    27  C    6.000000
    28  C    6.000000
    29  C    6.000000
    30  C    6.000000
    31  C    6.000000
    32  N    7.000000
    33  C    6.000000
    34  C    6.000000
    35  C    6.000000
    36  C    6.000000
    37  C    6.000000
    38  C    6.000000
    39  O    8.000000
    40  C    6.000000
    41  C    6.000000
    42  O    8.000000
    43  O    8.000000
    44  C    6.000000
    45  H    1.000000
    46  H    1.000000
    47  H    1.000000
    48  H    1.000000
    49  H    1.000000
    50  H    1.000000
    51  H    1.000000
    52  H    1.000000
    53  H    1.000000
    54  H    1.000000
    55  H    1.000000
    56  H    1.000000
    57  H    1.000000
    58  H    1.000000
    59  H    1.000000
    60  H    1.000000
    61  H    1.000000
    62  H    1.000000
    63  H    1.000000
    64  H    1.000000
    65  H    1.000000
    66  H    1.000000
    67  H    1.000000
    68  H    1.000000
    69  H    1.000000
    70  H    1.000000
    71  H    1.000000
    72  H    1.000000
    73  H    1.000000
    74  H    1.000000
    75  H    1.000000
    76  H    1.000000
    77  H    1.000000
    78  H    1.000000
    79  H    1.000000
    80  Mg  12.000000
    81  C    6.000000
    82  C    6.000000
    83  C    6.000000
    84  C    6.000000
    85  N    7.000000
    86  C    6.000000
    87  C    6.000000
    88  C    6.000000
    89  C    6.000000
    90  C    6.000000
    91  C    6.000000
    92  C    6.000000
    93  H    1.000000
    94  N    7.000000
    95  C    6.000000
    96  C    6.000000
    97  C    6.000000
    98  C    6.000000
    99  C    6.000000
   100  C    6.000000
   101  O    8.000000
   102  C    6.000000
   103  N    7.000000
   104  C    6.000000
   105  C    6.000000
   106  C    6.000000
   107  C    6.000000
   108  C    6.000000
   109  C    6.000000
   110  C    6.000000
   111  N    7.000000
   112  C    6.000000
   113  C    6.000000
   114  C    6.000000
   115  C    6.000000
   116  C    6.000000
   117  C    6.000000
   118  O    8.000000
   119  C    6.000000
   120  C    6.000000
   121  O    8.000000
   122  O    8.000000
   123  C    6.000000
   124  H    1.000000
   125  H    1.000000
   126  H    1.000000
   127  H    1.000000
   128  H    1.000000
   129  H    1.000000
   130  H    1.000000
   131  H    1.000000
   132  H    1.000000
   133  H    1.000000
   134  H    1.000000
   135  H    1.000000
   136  H    1.000000
   137  H    1.000000
   138  H    1.000000
   139  H    1.000000
   140  H    1.000000
   141  H    1.000000
   142  H    1.000000
   143  H    1.000000
   144  H    1.000000
   145  H    1.000000
   146  H    1.000000
   147  H    1.000000
   148  H    1.000000
   149  H    1.000000
   150  H    1.000000
   151  H    1.000000
   152  H    1.000000
   153  H    1.000000
   154  H    1.000000
   155  H    1.000000
   156  H    1.000000
   157  H    1.000000
   158  H    1.000000
 Sum of Mulliken charges = 624.00000

 Dipole moment (field-independent basis, Debye):
    X=              0.0000    Y=             -0.0000    Z=             -0.0000  Tot=              0.0000
 Quadrupole moment (field-independent basis, Debye-Ang):
   XX=              0.0000   YY=             -0.0000   ZZ=              0.0000
   XY=             -0.0000   XZ=              0.0000   YZ=             -0.0000

 Normal termination of Gaussian 16 at Wed Oct 13 21:11:30 2021.
