 Gaussian 16, Revision A.03,
 Gaussian 16:  ES64L-G16RevA.03 25-Dec-2016

 --------------------------------------------------------
 #p PBE1PBE/Def2SVP td=(nstates=5) density=(transition=1)
 --------------------------------------------------------

 --------------------------------
 TDDFT excited states in gaussian
 --------------------------------
 Symbolic Z-matrix:
 Charge =  0 Multiplicity = 1

                         Standard orientation:
 ---------------------------------------------------------------------
 Center     Atomic      Atomic             Coordinates (Angstroms)
 Number     Number       Type             X           Y           Z
 ---------------------------------------------------------------------
      1         12           0      -25.192229   -0.516837   -0.066967
      2          6           0      -22.952720    2.107213   -0.445563
      3          6           0      -27.093689    1.379497    1.973250
      4          6           0      -27.181279   -3.174926    0.360956
      5          6           0      -23.069177   -2.456422   -2.065126
      6          7           0      -24.987084    1.549782    0.620407
      7          6           0      -24.091188    2.449547    0.291705
      8          6           0      -24.495527    3.817000    1.012852
      9          6           0      -25.219158    3.224052    2.203327
     10          6           0      -25.868762    1.956449    1.562606
     11          6           0      -24.228982    2.972276    3.360855
     12          6           0      -25.228178    4.792572   -0.005351
     13          6           0      -25.232024    6.265903    0.413757
     14          1           0      -24.776674    6.629108    1.816584
     15          7           0      -26.969876   -0.796364    0.857903
     16          6           0      -27.643374    0.167096    1.605085
     17          6           0      -29.000190   -0.373904    1.917375
     18          6           0      -29.022330   -1.771369    1.496515
     19          6           0      -27.648424   -1.943754    0.954208
     20          6           0      -30.065201    0.439837    2.613656
     21          6           0      -30.187093   -2.865292    1.526944
     22          8           0      -30.072204   -4.002579    1.057621
     23          6           0      -31.496127   -2.439256    2.158238
     24          7           0      -25.083552   -2.502220   -0.639940
     25          6           0      -26.004353   -3.413779   -0.338397
     26          6           0      -25.617903   -4.846133   -0.820401
     27          6           0      -24.460949   -4.505819   -1.770759
     28          6           0      -24.197353   -3.050389   -1.543764
     29          6           0      -25.246150   -5.836277    0.318505
     30          6           0      -24.564273   -4.974823   -3.290032
     31          6           0      -24.904860   -3.937585   -4.309038
     32          7           0      -23.282965   -0.347560   -0.900733
     33          6           0      -22.585265   -1.165820   -1.723883
     34          6           0      -21.344111   -0.615803   -2.138558
     35          6           0      -21.434475    0.725987   -1.651181
     36          6           0      -22.613993    0.779474   -0.944218
     37          6           0      -20.158517   -1.155177   -2.895961
     38          6           0      -20.821534    2.018690   -1.576157
     39          8           0      -19.776337    2.447506   -2.015434
     40          6           0      -21.825596    3.028072   -0.933606
     41          6           0      -21.155908    3.772470    0.137147
     42          8           0      -20.694471    3.224174    1.126502
     43          8           0      -20.935150    5.140305   -0.166285
     44          6           0      -20.161916    5.904820    0.824896
     45          1           0      -27.644948    2.001779    2.679724
     46          1           0      -27.827586   -4.032481    0.555414
     47          1           0      -22.408892   -3.106239   -2.642642
     48          1           0      -23.596885    4.365933    1.291060
     49          1           0      -26.061162    3.817392    2.558926
     50          1           0      -24.564980    3.691657    4.108407
     51          1           0      -23.191700    3.164989    3.083830
     52          1           0      -24.457112    1.974841    3.735946
     53          1           0      -26.269341    4.492742   -0.127750
     54          1           0      -24.636979    4.736058   -0.919646
     55          1           0      -26.248915    6.627545    0.264416
     56          1           0      -24.609908    6.797789   -0.305667
     57          1           0      -30.003545    1.493882    2.340537
     58          1           0      -30.100811    0.385110    3.701215
     59          1           0      -31.038504    0.117069    2.244360
     60          1           0      -31.192203   -2.045378    3.127790
     61          1           0      -32.190004   -3.254838    2.359793
     62          1           0      -32.004509   -1.726372    1.508843
     63          1           0      -26.437222   -5.317056   -1.363365
     64          1           0      -23.573491   -4.935453   -1.307512
     65          1           0      -24.367158   -6.368092   -0.046512
     66          1           0      -26.014673   -6.541814    0.630419
     67          1           0      -25.050770   -5.250073    1.216483
     68          1           0      -25.228974   -5.837436   -3.338040
     69          1           0      -23.579476   -5.299180   -3.625513
     70          1           0      -24.021767   -3.792101   -4.931648
     71          1           0      -25.029704   -2.919881   -3.937131
     72          1           0      -25.715341   -4.213979   -4.983537
     73          1           0      -20.250464   -2.220909   -3.108339
     74          1           0      -19.245769   -0.876714   -2.368425
     75          1           0      -20.029443   -0.796141   -3.917234
     76          1           0      -22.204778    3.742291   -1.664025
     77          1           0      -20.148879    6.983031    0.667459
     78          1           0      -19.158256    5.490792    0.724464
     79          1           0      -20.559027    5.603197    1.793423
     80         12           0       24.601656   -0.801012    0.141970
     81          6           0       24.173123    2.423763   -0.989004
     82          6           0       24.970011    0.515601    3.443353
     83          6           0       25.373778   -3.792638    1.245000
     84          6           0       24.402482   -2.017433   -3.120573
     85          7           0       24.553084    1.253436    1.031061
     86          6           0       24.331362    2.402515    0.386055
     87          6           0       24.255498    3.562818    1.431337
     88          6           0       24.657861    2.888998    2.822495
     89          6           0       24.793516    1.413483    2.399557
     90          6           0       25.999340    3.277409    3.413860
     91          6           0       22.924869    4.330158    1.447725
     92          6           0       23.148762    5.830160    1.355203
     93          1           0       22.131285    6.820881    1.939437
     94          7           0       25.022194   -1.529841    2.095003
     95          6           0       25.079529   -0.885928    3.297350
     96          6           0       25.321289   -1.760080    4.356746
     97          6           0       25.573626   -3.042251    3.755333
     98          6           0       25.311069   -2.838394    2.288683
     99          6           0       25.361030   -1.339367    5.818695
    100          6           0       26.047259   -4.329447    4.410426
    101          8           0       26.369085   -5.284495    3.677172
    102          6           0       26.248327   -4.437024    5.866910
    103          7           0       24.807956   -2.587282   -0.808135
    104          6           0       25.081035   -3.762496   -0.138748
    105          6           0       25.204889   -5.029665   -1.063919
    106          6           0       24.603863   -4.426069   -2.404486
    107          6           0       24.619125   -2.914142   -2.114030
    108          6           0       26.594990   -5.737249   -1.313668
    109          6           0       23.254117   -5.050304   -2.984027
    110          6           0       21.989134   -4.619263   -2.289959
    111          7           0       24.484506   -0.031803   -1.690671
    112          6           0       24.411561   -0.596382   -2.949864
    113          6           0       24.262397    0.369471   -3.960238
    114          6           0       24.129199    1.548014   -3.217071
    115          6           0       24.265022    1.275601   -1.824580
    116          6           0       24.127913    0.007658   -5.377967
    117          6           0       24.025771    2.939183   -3.437076
    118          8           0       24.036473    3.534227   -4.516536
    119          6           0       24.018237    3.628892   -1.974468
    120          6           0       25.108694    4.584820   -1.894949
    121          8           0       26.286256    4.334101   -1.776270
    122          8           0       24.656755    5.818173   -2.085754
    123          6           0       25.593605    6.897687   -2.168053
    124          1           0       25.132329    0.931778    4.439370
    125          1           0       25.618616   -4.834548    1.460147
    126          1           0       24.348470   -2.439929   -4.126123
    127          1           0       25.085267    4.180085    1.088482
    128          1           0       23.919016    3.250758    3.538448
    129          1           0       26.519601    4.070385    2.875793
    130          1           0       26.682618    2.429061    3.385282
    131          1           0       25.892181    3.461681    4.483240
    132          1           0       22.284748    4.123644    2.305630
    133          1           0       22.338244    3.987173    0.595796
    134          1           0       23.119634    6.068874    0.291445
    135          1           0       24.118981    6.015811    1.815589
    136          1           0       24.970573   -0.331328    5.958718
    137          1           0       26.402519   -1.247740    6.127709
    138          1           0       24.915958   -2.100390    6.458587
    139          1           0       26.926449   -5.257237    6.105188
    140          1           0       25.282225   -4.698120    6.299966
    141          1           0       26.653557   -3.506444    6.263552
    142          1           0       24.473767   -5.798742   -0.812725
    143          1           0       25.280640   -4.667078   -3.223287
    144          1           0       27.346270   -5.203515   -0.732934
    145          1           0       26.927623   -5.509257   -2.327107
    146          1           0       26.668916   -6.810743   -1.137361
    147          1           0       23.322248   -6.123332   -2.806622
    148          1           0       23.144523   -4.948007   -4.062995
    149          1           0       21.201337   -4.622944   -3.042452
    150          1           0       21.945186   -3.687145   -1.728038
    151          1           0       21.790455   -5.368893   -1.523991
    152          1           0       23.660640   -0.943012   -5.633585
    153          1           0       25.006689    0.173293   -6.000031
    154          1           0       23.471113    0.803468   -5.728334
    155          1           0       23.067020    4.148023   -1.858633
    156          1           0       25.810969    7.333647   -1.192297
    157          1           0       25.115845    7.684806   -2.751105
    158          1           0       26.527909    6.544666   -2.604840
 ---------------------------------------------------------------------

 SCF Done:  E(RPBE1PBE) =  -4067.40120786     A.U. after   16 cycles

 Excitation energies and oscillator strengths:

 Excited State   1:      Singlet-A      1.8680 eV  663.72 nm  f=0.3866  <S**2>=0.000
     309 -> 315       -0.16528
     311 -> 313        0.69237
     311 <- 313       -0.11099
 This state for optimization and/or second-order correction.
 Total Energy, E(TD-HF/TD-DFT) =  -4067.33255952
 Copying the excited state density for this state as the 1-particle RhoCI density.

 Excited State   2:      Singlet-A      1.8723 eV  662.21 nm  f=0.3919  <S**2>=0.000
     310 -> 316       -0.17544
     312 -> 314        0.69228
     312 <- 314       -0.10644

 Excited State   3:      Singlet-A      1.9688 eV  629.75 nm  f=0.0000  <S**2>=0.000
     312 -> 313        0.70711

 Excited State   4:      Singlet-A      2.0432 eV  606.82 nm  f=0.0000  <S**2>=0.000
     311 -> 314        0.70711

 Excited State   5:      Singlet-A      2.2175 eV  559.13 nm  f=0.1399  <S**2>=0.000
     310 -> 314        0.66471
     312 -> 316        0.23653

 The electronic state is 1-A.
 Alpha  occ. eigenvalues --  -46.91191 -46.91085 -19.25396 -19.24638 -19.20501
 Alpha  occ. eigenvalues --  -19.19740 -19.18892 -19.18783 -19.18402 -19.18354
 Alpha  occ. eigenvalues --  -14.41821 -14.41659 -14.41397 -14.41110 -14.39651
 Alpha  occ. eigenvalues --  -14.39315 -14.38654 -14.38442 -10.35933 -10.35202
 Alpha  occ. eigenvalues --  -10.34205 -10.31923 -10.31678 -10.31443 -10.29203
 Alpha  occ. eigenvalues --  -10.28902 -10.28892 -10.28883 -10.28550 -10.28413
 Alpha  occ. eigenvalues --  -10.28391 -10.28367 -10.28344 -10.28331 -10.28167
 Alpha  occ. eigenvalues --  -10.27923 -10.27827 -10.27666 -10.26970 -10.26863
 Alpha  occ. eigenvalues --  -10.26780 -10.26773 -10.26492 -10.26374 -10.26160
 Alpha  occ. eigenvalues --  -10.26115 -10.26051 -10.25966 -10.25931 -10.25883
 Alpha  occ. eigenvalues --  -10.25860 -10.25775 -10.25772 -10.25481 -10.25460
 Alpha  occ. eigenvalues --  -10.25394 -10.25384 -10.25335 -10.25264 -10.25180
 Alpha  occ. eigenvalues --  -10.25056 -10.25039 -10.24975 -10.24810 -10.24790
 Alpha  occ. eigenvalues --  -10.24711 -10.24647 -10.24432 -10.24290 -10.24142
 Alpha  occ. eigenvalues --  -10.24044 -10.23900 -10.23809 -10.23769 -10.23641
 Alpha  occ. eigenvalues --  -10.23505 -10.23445 -10.23292 -10.23236 -10.23206
 Alpha  occ. eigenvalues --  -10.23093 -10.23030 -10.22432 -10.22363 -10.22203
 Alpha  occ. eigenvalues --  -10.22024  -3.13530  -3.13443  -1.86385  -1.86284
 Alpha  occ. eigenvalues --   -1.85869  -1.85836  -1.85803  -1.85671  -1.12673
 Alpha  occ. eigenvalues --   -1.09276  -1.05026  -1.04535  -1.03632  -1.03145
 Alpha  occ. eigenvalues --   -1.02551  -1.01622  -1.00388  -0.99449  -0.99268
 Alpha  occ. eigenvalues --   -0.98804  -0.98350  -0.97916  -0.97727  -0.97192
 Alpha  occ. eigenvalues --   -0.86615  -0.86427  -0.83647  -0.83562  -0.83007
 Alpha  occ. eigenvalues --   -0.82823  -0.82599  -0.82530  -0.81928  -0.81873
 Alpha  occ. eigenvalues --   -0.81594  -0.81293  -0.81051  -0.80764  -0.78846
 Alpha  occ. eigenvalues --   -0.78534  -0.78110  -0.78036  -0.77211  -0.77028
 Alpha  occ. eigenvalues --   -0.76599  -0.76505  -0.75538  -0.75350  -0.74956
 Alpha  occ. eigenvalues --   -0.74462  -0.72759  -0.72585  -0.71645  -0.71621
 Alpha  occ. eigenvalues --   -0.71205  -0.71032  -0.70254  -0.70151  -0.69610
 Alpha  occ. eigenvalues --   -0.69442  -0.67905  -0.67354  -0.65869  -0.65637
 Alpha  occ. eigenvalues --   -0.63984  -0.63707  -0.63288  -0.63162  -0.62377
 Alpha  occ. eigenvalues --   -0.62150  -0.61452  -0.60898  -0.59835  -0.59600
 Alpha  occ. eigenvalues --   -0.59411  -0.59182  -0.59127  -0.58876  -0.58787
 Alpha  occ. eigenvalues --   -0.58427  -0.56881  -0.55909  -0.55071  -0.54927
 Alpha  occ. eigenvalues --   -0.54574  -0.54225  -0.53757  -0.53564  -0.53143
 Alpha  occ. eigenvalues --   -0.52815  -0.52710  -0.52562  -0.52191  -0.52114
 Alpha  occ. eigenvalues --   -0.51114  -0.50591  -0.50410  -0.50249  -0.50024
 Alpha  occ. eigenvalues --   -0.49647  -0.49339  -0.49147  -0.48905  -0.48439
 Alpha  occ. eigenvalues --   -0.48227  -0.48100  -0.47781  -0.47741  -0.47471
 Alpha  occ. eigenvalues --   -0.47291  -0.47148  -0.46937  -0.46901  -0.46780
 Alpha  occ. eigenvalues --   -0.46649  -0.46624  -0.46456  -0.46367  -0.45857
 Alpha  occ. eigenvalues --   -0.45857  -0.45208  -0.45105  -0.45054  -0.44911
 Alpha  occ. eigenvalues --   -0.44774  -0.44500  -0.44402  -0.44271  -0.44106
 Alpha  occ. eigenvalues --   -0.44058  -0.43888  -0.43884  -0.43729  -0.43613
 Alpha  occ. eigenvalues --   -0.43529  -0.43494  -0.43239  -0.43110  -0.43062
 Alpha  occ. eigenvalues --   -0.42805  -0.42428  -0.42350  -0.42016  -0.41988
 Alpha  occ. eigenvalues --   -0.41680  -0.41615  -0.41271  -0.41225  -0.41148
 Alpha  occ. eigenvalues --   -0.41102  -0.40785  -0.40766  -0.40528  -0.40492
 Alpha  occ. eigenvalues --   -0.40218  -0.40191  -0.39859  -0.39686  -0.39685
 Alpha  occ. eigenvalues --   -0.39449  -0.39298  -0.39196  -0.39148  -0.38841
 Alpha  occ. eigenvalues --   -0.38655  -0.38555  -0.38391  -0.38354  -0.38268
 Alpha  occ. eigenvalues --   -0.38085  -0.38052  -0.37947  -0.37791  -0.37510
 Alpha  occ. eigenvalues --   -0.37418  -0.37365  -0.36990  -0.36851  -0.36680
 Alpha  occ. eigenvalues --   -0.36322  -0.36303  -0.36276  -0.36090  -0.35926
 Alpha  occ. eigenvalues --   -0.35925  -0.35843  -0.35828  -0.35517  -0.35378
 Alpha  occ. eigenvalues --   -0.34994  -0.34886  -0.34124  -0.34116  -0.33796
 Alpha  occ. eigenvalues --   -0.33183  -0.33103  -0.33060  -0.32723  -0.32568
 Alpha  occ. eigenvalues --   -0.32187  -0.31712  -0.31606  -0.31327  -0.31235
 Alpha  occ. eigenvalues --   -0.31148  -0.30578  -0.29705  -0.29424  -0.29041
 Alpha  occ. eigenvalues --   -0.28852  -0.28586  -0.28449  -0.27090  -0.26859
 Alpha  occ. eigenvalues --   -0.26633  -0.26010  -0.25845  -0.25481  -0.25479
 Alpha  occ. eigenvalues --   -0.25414  -0.25262  -0.25253  -0.21077  -0.20848
 Alpha  occ. eigenvalues --   -0.19076  -0.18982
 Alpha virt. eigenvalues --   -0.11481  -0.11304  -0.05017  -0.04813  -0.04206
 Alpha virt. eigenvalues --   -0.03696  -0.02039  -0.01889   0.00117   0.00268
 Alpha virt. eigenvalues --    0.00865   0.01259   0.01396   0.01787   0.02024

 Mulliken charges:
               1
     1  Mg  12.000069
     2  C    5.998869
     3  C    6.000499
     4  C    6.001013
     5  C    5.999777
     6  N    6.999382
     7  C    6.001635
     8  C    5.999957
     9  C    6.000136
    10  C    5.998576
    11  C    5.999810
    12  C    5.999867
    13  C    5.999944
    14  H    1.000148
    15  N    7.000369
    16  C    5.998019
    17  C    5.998937
    18  C    5.998982
    19  C    5.998637
    20  C    6.000195
    21  C    5.999198
    22  O    7.998629
    23  C    6.000237
    24  N    7.000304
    25  C    5.998470
    26  C    6.000385
    27  C    5.999613
    28  C    6.001445
    29  C    6.000064
    30  C    5.999978
    31  C    5.999906
    32  N    7.000063
    33  C    6.001464
    34  C    6.001691
    35  C    6.000171
    36  C    6.001206
    37  C    5.999822
    38  C    6.000716
    39  O    8.001470
    40  C    6.000066
    41  C    6.000404
    42  O    8.000100
    43  O    8.000159
    44  C    5.999897
    45  H    0.999445
    46  H    0.999773
    47  H    1.000570
    48  H    0.999857
    49  H    1.000118
    50  H    0.999871
    51  H    0.999333
    52  H    1.000125
    53  H    1.000553
    54  H    0.999662
    55  H    1.000200
    56  H    0.999880
    57  H    0.999231
    58  H    0.998952
    59  H    0.999280
    60  H    0.999759
    61  H    0.999283
    62  H    0.999596
    63  H    1.000097
    64  H    1.000060
    65  H    0.999471
    66  H    1.000155
    67  H    1.000070
    68  H    1.000493
    69  H    0.999974
    70  H    0.999922
    71  H    0.999926
    72  H    1.000464
    73  H    1.000828
    74  H    1.000823
    75  H    1.001069
    76  H    1.000367
    77  H    1.000251
    78  H    0.999993
    79  H    1.000270
    80  Mg  11.997603
    81  C    6.015574
    82  C    5.988439
    83  C    5.978121
    84  C    6.004546
    85  N    7.007763
    86  C    5.973638
    87  C    6.007342
    88  C    5.985005
    89  C    6.028848
    90  C    5.997223
    91  C    6.001028
    92  C    6.001251
    93  H    0.995627
    94  N    6.995068
    95  C    6.036203
    96  C    6.016836
    97  C    6.016539
    98  C    6.033645
    99  C    5.997908
   100  C    6.013539
   101  O    8.031107
   102  C    5.994686
   103  N    6.998268
   104  C    6.037969
   105  C    5.985198
   106  C    6.009711
   107  C    5.973353
   108  C    6.000599
   109  C    6.005010
   110  C    6.002818
   111  N    7.001270
   112  C    5.966983
   113  C    5.972532
   114  C    5.998314
   115  C    5.967814
   116  C    6.003479
   117  C    5.983110
   118  O    7.969216
   119  C    5.996673
   120  C    5.996039
   121  O    7.992701
   122  O    7.998808
   123  C    6.002537
   124  H    1.009993
   125  H    1.005257
   126  H    0.988777
   127  H    1.002334
   128  H    1.007322
   129  H    1.014142
   130  H    0.996476
   131  H    1.001972
   132  H    0.991905
   133  H    1.006552
   134  H    1.006030
   135  H    0.995358
   136  H    1.015904
   137  H    1.017680
   138  H    1.014490
   139  H    1.014462
   140  H    1.010703
   141  H    1.005381
   142  H    1.003016
   143  H    0.997752
   144  H    0.996237
   145  H    1.010653
   146  H    1.000637
   147  H    0.989577
   148  H    1.001944
   149  H    1.000133
   150  H    1.000194
   151  H    0.989646
   152  H    0.981440
   153  H    0.978480
   154  H    0.986645
   155  H    0.991186
   156  H    0.992638
   157  H    0.996757
   158  H    0.998386
 Sum of Mulliken charges = 624.00000

 Dipole moment (field-independent basis, Debye):
    X=              2.2463    Y=             -4.0978    Z=              9.3444  Tot=             10.4477
 Quadrupole moment (field-independent basis, Debye-Ang):
   XX=             66.1645   YY=              3.7310   ZZ=              4.4057
   XY=           -107.3310   XZ=            245.6773   YZ=             -7.8776

 Normal termination of Gaussian 16 at Fri Oct 15 19:25:31 2021.
