 Gaussian 16, Revision A.03,
 Gaussian 16:  ES64L-G16RevA.03 25-Dec-2016

 --------------------------------------------------------
 #p PBE1PBE/Def2SVP td=(nstates=5) density=(transition=1)
 --------------------------------------------------------

 --------------------------------
 TDDFT excited states in gaussian
 --------------------------------
 Symbolic Z-matrix:
 Charge =  0 Multiplicity = 1

                         Standard orientation:
 ---------------------------------------------------------------------
 Center     Atomic      Atomic             Coordinates (Angstroms)
 Number     Number       Type             X           Y           Z
 ---------------------------------------------------------------------
      1         12           0      -11.786728    0.783841   -0.119858
      2          6           0      -10.016851   -2.024416   -1.144731
      3          6           0      -12.984440   -1.240968    2.577767
      4          6           0      -13.117278    3.462066    1.244705
      5          6           0       -9.924612    2.699150   -2.404993
      6          7           0      -11.420288   -1.337906    0.673377
      7          6           0      -10.712983   -2.301581   -0.009870
      8          6           0      -10.739143   -3.622257    0.764338
      9          6           0      -11.906540   -3.380784    1.760884
     10          6           0      -12.109888   -1.889112    1.717654
     11          6           0      -13.278228   -4.121755    1.509470
     12          6           0       -9.402757   -3.944466    1.453007
     13          6           0       -9.308760   -5.285183    2.074934
     14          1           0       -7.863038   -5.867072    2.312401
     15          7           0      -12.905399    1.099843    1.691715
     16          6           0      -13.311345    0.145842    2.637859
     17          6           0      -14.076583    0.820228    3.649153
     18          6           0      -14.012526    2.231070    3.349926
     19          6           0      -13.331216    2.311954    2.011774
     20          6           0      -14.664013    0.092689    4.889923
     21          6           0      -14.635406    3.298297    4.255487
     22          8           0      -15.346570    3.005581    5.202363
     23          6           0      -14.372825    4.726994    3.966757
     24          7           0      -11.708870    2.769844   -0.683407
     25          6           0      -12.389111    3.673643    0.029962
     26          6           0      -12.039255    5.129859   -0.480711
     27          6           0      -10.968681    4.941363   -1.623315
     28          6           0      -10.798000    3.326747   -1.546997
     29          6           0      -13.221299    6.060268   -0.859874
     30          6           0       -9.660369    5.673702   -1.255892
     31          6           0       -8.836359    6.176264   -2.447585
     32          7           0      -10.261674    0.483660   -1.531823
     33          6           0       -9.697072    1.307830   -2.464613
     34          6           0       -8.862908    0.494836   -3.357745
     35          6           0       -9.040516   -0.794074   -2.931665
     36          6           0       -9.824864   -0.771056   -1.800774
     37          6           0       -8.099796    0.999071   -4.586876
     38          6           0       -8.641502   -2.149388   -3.165211
     39          8           0       -7.951066   -2.654668   -4.015723
     40          6           0       -9.272975   -3.009005   -2.019635
     41          6           0      -10.239260   -3.951853   -2.647151
     42          8           0      -11.102810   -3.687344   -3.436940
     43          8           0      -10.076962   -5.216490   -2.055305
     44          6           0      -10.993942   -6.229479   -2.494557
     45          1           0      -13.369499   -1.959835    3.303362
     46          1           0      -13.510486    4.428932    1.567087
     47          1           0       -9.382247    3.253188   -3.174140
     48          1           0      -11.061108   -4.378045    0.049223
     49          1           0      -11.684403   -3.572663    2.810034
     50          1           0      -13.499094   -4.594463    2.466242
     51          1           0      -13.410840   -4.640251    0.559524
     52          1           0      -14.034525   -3.341689    1.423467
     53          1           0       -9.151252   -3.318611    2.309680
     54          1           0       -8.583097   -3.818901    0.745467
     55          1           0       -9.874459   -5.964221    1.436975
     56          1           0       -9.845570   -5.270999    3.023317
     57          1           0      -13.936486    0.459492    5.614683
     58          1           0      -14.532330   -0.989191    4.916504
     59          1           0      -15.679933    0.247620    5.253715
     60          1           0      -13.291148    4.786664    3.846341
     61          1           0      -14.639831    5.310006    4.848327
     62          1           0      -14.939323    4.907428    3.052848
     63          1           0      -11.573527    5.628824    0.369601
     64          1           0      -11.301256    5.222724   -2.621975
     65          1           0      -13.323590    6.810335   -0.074987
     66          1           0      -14.103484    5.445356   -1.034901
     67          1           0      -12.962780    6.640328   -1.745739
     68          1           0       -9.093638    4.950964   -0.669444
     69          1           0       -9.793333    6.496492   -0.553155
     70          1           0       -8.754325    7.245800   -2.251012
     71          1           0       -9.255211    5.933101   -3.424156
     72          1           0       -7.824672    5.772696   -2.404325
     73          1           0       -7.082476    0.629292   -4.710684
     74          1           0       -8.137194    2.079144   -4.442981
     75          1           0       -8.771704    0.857949   -5.433618
     76          1           0       -8.447014   -3.541156   -1.547567
     77          1           0      -10.412366   -6.929827   -3.094113
     78          1           0      -11.882012   -5.940883   -3.057338
     79          1           0      -11.380559   -6.722844   -1.603217
     80         12           0       11.747858    0.351476    0.323463
     81          6           0        8.899681   -1.619002   -0.323070
     82          6           0       11.661364    1.450467   -2.888302
     83          6           0       14.550660    2.132319    0.965991
     84          6           0       12.011517   -1.166405    3.435546
     85          7           0       10.516618   -0.102972   -1.409122
     86          6           0        9.335859   -0.850591   -1.415445
     87          6           0        8.645363   -0.678222   -2.734944
     88          6           0        9.776482   -0.123395   -3.633001
     89          6           0       10.732893    0.458523   -2.560324
     90          6           0       10.550556   -1.140752   -4.529430
     91          6           0        7.362358    0.235432   -2.725473
     92          6           0        6.182964   -0.346099   -3.437973
     93          1           0        5.410469    0.600340   -4.375785
     94          7           0       12.836380    1.660458   -0.762095
     95          6           0       12.596251    2.077394   -2.081963
     96          6           0       13.536634    3.056431   -2.457622
     97          6           0       14.434748    3.303646   -1.315430
     98          6           0       13.961871    2.381983   -0.322218
     99          6           0       13.695745    3.638996   -3.831531
    100          6           0       15.710879    4.234483   -1.131252
    101          8           0       16.289991    4.290869   -0.072409
    102          6           0       16.176318    5.156416   -2.249275
    103          7           0       13.151555    0.379127    1.934155
    104          6           0       14.233639    1.199851    1.931543
    105          6           0       15.093173    0.985206    3.267765
    106          6           0       14.107525    0.144954    4.192204
    107          6           0       13.001305   -0.258227    3.126687
    108          6           0       16.467419    0.280603    3.097176
    109          6           0       13.515503    0.949883    5.403504
    110          6           0       13.734862    0.244029    6.675253
    111          7           0       10.722814   -1.126433    1.347016
    112          6           0       10.882228   -1.565484    2.660484
    113          6           0        9.852015   -2.513568    2.986762
    114          6           0        9.078834   -2.582807    1.845811
    115          6           0        9.594725   -1.740289    0.912222
    116          6           0        9.720695   -3.151471    4.394380
    117          6           0        7.929336   -3.227985    1.238417
    118          8           0        7.262229   -4.135971    1.683169
    119          6           0        7.776901   -2.626662   -0.246047
    120          6           0        7.877563   -3.728321   -1.220767
    121          8           0        8.865636   -4.501827   -1.323237
    122          8           0        6.718312   -3.774580   -1.938275
    123          6           0        6.509470   -5.044254   -2.683479
    124          1           0       11.595608    1.725844   -3.942922
    125          1           0       15.465472    2.656391    1.249869
    126          1           0       12.149130   -1.684851    4.386190
    127          1           0        8.376118   -1.616804   -3.220884
    128          1           0        9.441502    0.644983   -4.329981
    129          1           0        9.935570   -1.962883   -4.897812
    130          1           0       11.386463   -1.512158   -3.936061
    131          1           0       11.079119   -0.714617   -5.381767
    132          1           0        7.688335    1.181143   -3.158032
    133          1           0        7.071240    0.507518   -1.710498
    134          1           0        5.581113   -0.688584   -2.596053
    135          1           0        6.514592   -1.145083   -4.100981
    136          1           0       13.358892    4.669080   -3.950026
    137          1           0       13.056965    3.094165   -4.525503
    138          1           0       14.686176    3.630847   -4.285802
    139          1           0       16.961549    5.771914   -1.812039
    140          1           0       15.340970    5.686878   -2.707271
    141          1           0       16.458868    4.564228   -3.120158
    142          1           0       15.383870    1.951442    3.680376
    143          1           0       14.638819   -0.742199    4.540066
    144          1           0       16.707016   -0.081674    2.096911
    145          1           0       16.584669   -0.590114    3.742797
    146          1           0       17.227165    1.006214    3.388866
    147          1           0       12.435033    1.024003    5.274735
    148          1           0       13.945207    1.941583    5.543373
    149          1           0       14.594724    0.690754    7.175121
    150          1           0       13.827283   -0.841462    6.670875
    151          1           0       12.846542    0.342186    7.299332
    152          1           0       10.303025   -2.563269    5.104013
    153          1           0        9.932690   -4.221373    4.370587
    154          1           0        8.674038   -3.000090    4.655734
    155          1           0        6.827877   -2.105123   -0.372907
    156          1           0        5.511038   -5.066364   -3.119910
    157          1           0        6.490248   -5.818526   -1.916207
    158          1           0        7.342610   -5.139197   -3.380434
 ---------------------------------------------------------------------

 SCF Done:  E(RPBE1PBE) =  -4067.40048718     A.U. after   16 cycles

 Excitation energies and oscillator strengths:

 Excited State   1:      Singlet-A      1.8993 eV  652.77 nm  f=0.4259  <S**2>=0.000
     310 -> 316        0.17361
     312 -> 314        0.68804
     312 <- 314       -0.10836
 This state for optimization and/or second-order correction.
 Total Energy, E(TD-HF/TD-DFT) =  -4067.33068769
 Copying the excited state density for this state as the 1-particle RhoCI density.

 Excited State   2:      Singlet-A      1.9036 eV  651.33 nm  f=0.3306  <S**2>=0.000
     309 -> 315       -0.16925
     311 -> 313        0.68962
     311 <- 313       -0.10584

 Excited State   3:      Singlet-A      1.9093 eV  649.37 nm  f=0.0000  <S**2>=0.000
     312 -> 313        0.70710

 Excited State   4:      Singlet-A      1.9919 eV  622.44 nm  f=0.0000  <S**2>=0.000
     311 -> 314        0.70710

 Excited State   5:      Singlet-A      2.2136 eV  560.09 nm  f=0.1488  <S**2>=0.000
     310 -> 314        0.66238
     312 -> 316       -0.22956

 The electronic state is 1-A.
 Alpha  occ. eigenvalues --  -46.93033 -46.90584 -19.26249 -19.25658 -19.20735
 Alpha  occ. eigenvalues --  -19.19962 -19.19726 -19.19332 -19.18948 -19.18704
 Alpha  occ. eigenvalues --  -14.42217 -14.41782 -14.41464 -14.41038 -14.39724
 Alpha  occ. eigenvalues --  -14.38926 -14.38891 -14.38291 -10.36565 -10.36396
 Alpha  occ. eigenvalues --  -10.33367 -10.32259 -10.31799 -10.31481 -10.29888
 Alpha  occ. eigenvalues --  -10.29309 -10.29061 -10.28922 -10.28845 -10.28599
 Alpha  occ. eigenvalues --  -10.28528 -10.28482 -10.28440 -10.28276 -10.28245
 Alpha  occ. eigenvalues --  -10.28156 -10.28140 -10.27390 -10.27294 -10.26989
 Alpha  occ. eigenvalues --  -10.26892 -10.26395 -10.26322 -10.26152 -10.26078
 Alpha  occ. eigenvalues --  -10.26070 -10.26032 -10.25981 -10.25891 -10.25813
 Alpha  occ. eigenvalues --  -10.25743 -10.25732 -10.25695 -10.25538 -10.25502
 Alpha  occ. eigenvalues --  -10.25483 -10.25470 -10.25461 -10.25454 -10.25419
 Alpha  occ. eigenvalues --  -10.25298 -10.25248 -10.25232 -10.25175 -10.24676
 Alpha  occ. eigenvalues --  -10.24496 -10.24419 -10.24220 -10.24059 -10.24045
 Alpha  occ. eigenvalues --  -10.23968 -10.23961 -10.23932 -10.23912 -10.23731
 Alpha  occ. eigenvalues --  -10.23724 -10.23663 -10.23478 -10.23423 -10.23341
 Alpha  occ. eigenvalues --  -10.23243 -10.23131 -10.22789 -10.22162 -10.22087
 Alpha  occ. eigenvalues --  -10.21927  -3.15037  -3.12886  -1.87883  -1.87415
 Alpha  occ. eigenvalues --   -1.87246  -1.85734  -1.85249  -1.85136  -1.11412
 Alpha  occ. eigenvalues --   -1.10470  -1.06329  -1.05275  -1.05143  -1.04661
 Alpha  occ. eigenvalues --   -1.03711  -1.01076  -0.99486  -0.99287  -0.98433
 Alpha  occ. eigenvalues --   -0.98286  -0.98086  -0.97448  -0.97177  -0.95957
 Alpha  occ. eigenvalues --   -0.87751  -0.86956  -0.83637  -0.83476  -0.83415
 Alpha  occ. eigenvalues --   -0.83108  -0.82915  -0.82446  -0.82278  -0.81345
 Alpha  occ. eigenvalues --   -0.80871  -0.80629  -0.80197  -0.80187  -0.79409
 Alpha  occ. eigenvalues --   -0.78514  -0.78354  -0.78095  -0.77320  -0.77149
 Alpha  occ. eigenvalues --   -0.76765  -0.76198  -0.75676  -0.75472  -0.75224
 Alpha  occ. eigenvalues --   -0.74972  -0.72456  -0.72090  -0.71703  -0.71602
 Alpha  occ. eigenvalues --   -0.71260  -0.71071  -0.70539  -0.70013  -0.69830
 Alpha  occ. eigenvalues --   -0.69183  -0.67782  -0.67331  -0.66481  -0.65365
 Alpha  occ. eigenvalues --   -0.63771  -0.63422  -0.63018  -0.62464  -0.62298
 Alpha  occ. eigenvalues --   -0.61925  -0.61044  -0.60867  -0.60498  -0.60107
 Alpha  occ. eigenvalues --   -0.59911  -0.59580  -0.59420  -0.59109  -0.59058
 Alpha  occ. eigenvalues --   -0.58565  -0.57305  -0.56496  -0.54802  -0.54701
 Alpha  occ. eigenvalues --   -0.54581  -0.54544  -0.53862  -0.53819  -0.53330
 Alpha  occ. eigenvalues --   -0.53107  -0.52691  -0.52380  -0.52241  -0.52060
 Alpha  occ. eigenvalues --   -0.51102  -0.50662  -0.50403  -0.50238  -0.49992
 Alpha  occ. eigenvalues --   -0.49931  -0.49482  -0.49430  -0.48954  -0.48603
 Alpha  occ. eigenvalues --   -0.48391  -0.48143  -0.48029  -0.47942  -0.47819
 Alpha  occ. eigenvalues --   -0.47520  -0.47324  -0.47268  -0.47137  -0.46561
 Alpha  occ. eigenvalues --   -0.46422  -0.46404  -0.46317  -0.46125  -0.45835
 Alpha  occ. eigenvalues --   -0.45739  -0.45462  -0.45431  -0.45326  -0.44979
 Alpha  occ. eigenvalues --   -0.44965  -0.44874  -0.44633  -0.44519  -0.44324
 Alpha  occ. eigenvalues --   -0.44010  -0.43974  -0.43963  -0.43762  -0.43536
 Alpha  occ. eigenvalues --   -0.43355  -0.43319  -0.42865  -0.42767  -0.42623
 Alpha  occ. eigenvalues --   -0.42379  -0.42242  -0.42026  -0.41921  -0.41912
 Alpha  occ. eigenvalues --   -0.41769  -0.41402  -0.41304  -0.41136  -0.41125
 Alpha  occ. eigenvalues --   -0.41100  -0.40858  -0.40770  -0.40563  -0.40541
 Alpha  occ. eigenvalues --   -0.40463  -0.40132  -0.40068  -0.39859  -0.39818
 Alpha  occ. eigenvalues --   -0.39466  -0.39414  -0.39355  -0.39195  -0.39107
 Alpha  occ. eigenvalues --   -0.39035  -0.38649  -0.38387  -0.38237  -0.38188
 Alpha  occ. eigenvalues --   -0.38146  -0.38023  -0.37827  -0.37796  -0.37632
 Alpha  occ. eigenvalues --   -0.37591  -0.37427  -0.37252  -0.37161  -0.37002
 Alpha  occ. eigenvalues --   -0.36820  -0.36727  -0.36684  -0.36677  -0.36397
 Alpha  occ. eigenvalues --   -0.36080  -0.35822  -0.35471  -0.35322  -0.35215
 Alpha  occ. eigenvalues --   -0.34854  -0.34749  -0.34631  -0.34055  -0.33739
 Alpha  occ. eigenvalues --   -0.33736  -0.33320  -0.33040  -0.32815  -0.32793
 Alpha  occ. eigenvalues --   -0.32681  -0.31932  -0.31692  -0.31506  -0.31350
 Alpha  occ. eigenvalues --   -0.31134  -0.31024  -0.30144  -0.29566  -0.29456
 Alpha  occ. eigenvalues --   -0.29252  -0.29090  -0.28539  -0.27391  -0.26906
 Alpha  occ. eigenvalues --   -0.26451  -0.26026  -0.25856  -0.25800  -0.25601
 Alpha  occ. eigenvalues --   -0.25599  -0.25120  -0.25114  -0.21553  -0.20893
 Alpha  occ. eigenvalues --   -0.19271  -0.19088
 Alpha virt. eigenvalues --   -0.11507  -0.11381  -0.05477  -0.04805  -0.03517
 Alpha virt. eigenvalues --   -0.03315  -0.01720  -0.01654  -0.00733  -0.00133
 Alpha virt. eigenvalues --    0.00318   0.00678   0.00706   0.01501   0.01838

 Mulliken charges:
               1
     1  Mg  12.000160
     2  C    5.998280
     3  C    6.001312
     4  C    6.002380
     5  C    5.998375
     6  N    6.999598
     7  C    6.002992
     8  C    5.999176
     9  C    6.000614
    10  C    5.996989
    11  C    6.000171
    12  C    5.999635
    13  C    5.999690
    14  H    1.000965
    15  N    7.000830
    16  C    5.995406
    17  C    5.998587
    18  C    5.998229
    19  C    5.996267
    20  C    6.000227
    21  C    5.998831
    22  O    7.997665
    23  C    6.000121
    24  N    6.999720
    25  C    5.996251
    26  C    6.000882
    27  C    5.999117
    28  C    6.003384
    29  C    6.000193
    30  C    5.999617
    31  C    5.999850
    32  N    7.000033
    33  C    6.004084
    34  C    6.003178
    35  C    6.000132
    36  C    6.003368
    37  C    5.999902
    38  C    6.001701
    39  O    8.003003
    40  C    6.000307
    41  C    6.000406
    42  O    8.000139
    43  O    8.000465
    44  C    5.999705
    45  H    0.998833
    46  H    0.999131
    47  H    1.000688
    48  H    0.999880
    49  H    1.000232
    50  H    0.999746
    51  H    0.998449
    52  H    1.000260
    53  H    1.001096
    54  H    0.999355
    55  H    0.999802
    56  H    1.000700
    57  H    0.998583
    58  H    0.998273
    59  H    0.998188
    60  H    0.999148
    61  H    0.998594
    62  H    0.998972
    63  H    1.000133
    64  H    1.000005
    65  H    1.000077
    66  H    1.000082
    67  H    0.998818
    68  H    1.000291
    69  H    1.001007
    70  H    1.000337
    71  H    0.999656
    72  H    0.999818
    73  H    1.001912
    74  H    1.001569
    75  H    1.001782
    76  H    1.001242
    77  H    1.000335
    78  H    1.000220
    79  H    1.000849
    80  Mg  12.000073
    81  C    6.027096
    82  C    6.005195
    83  C    5.973644
    84  C    5.997450
    85  N    7.016343
    86  C    5.964868
    87  C    6.011689
    88  C    5.993720
    89  C    6.021603
    90  C    5.997186
    91  C    6.003076
    92  C    6.001630
    93  H    0.993472
    94  N    6.997847
    95  C    6.027082
    96  C    6.022229
    97  C    6.015935
    98  C    6.028624
    99  C    5.994632
   100  C    6.012805
   101  O    8.025895
   102  C    5.998202
   103  N    6.987827
   104  C    6.032116
   105  C    5.993261
   106  C    6.006566
   107  C    5.979008
   108  C    5.999869
   109  C    6.003302
   110  C    6.000987
   111  N    6.998495
   112  C    5.972300
   113  C    5.965683
   114  C    6.003871
   115  C    5.968865
   116  C    5.999723
   117  C    5.983857
   118  O    7.975081
   119  C    5.995745
   120  C    5.995918
   121  O    7.996982
   122  O    7.997841
   123  C    6.000423
   124  H    1.015285
   125  H    1.003755
   126  H    0.987420
   127  H    0.998326
   128  H    1.001165
   129  H    1.014387
   130  H    1.002407
   131  H    0.998456
   132  H    0.987345
   133  H    1.003142
   134  H    1.004626
   135  H    0.998439
   136  H    1.021093
   137  H    1.015612
   138  H    1.018876
   139  H    1.013075
   140  H    1.004428
   141  H    1.005904
   142  H    0.997755
   143  H    0.997823
   144  H    0.996430
   145  H    1.008342
   146  H    0.998346
   147  H    1.002568
   148  H    0.988652
   149  H    0.993296
   150  H    1.001952
   151  H    0.999855
   152  H    0.985307
   153  H    0.980803
   154  H    0.983284
   155  H    0.992324
   156  H    0.995810
   157  H    1.000997
   158  H    0.994698
 Sum of Mulliken charges = 624.00000

 Dipole moment (field-independent basis, Debye):
    X=              5.6559    Y=              6.2978    Z=             -6.8272  Tot=             10.8749
 Quadrupole moment (field-independent basis, Debye-Ang):
   XX=             99.7577   YY=              4.0813   ZZ=             -4.7413
   XY=             82.0731   XZ=            -61.9800   YZ=             -1.5528

 Normal termination of Gaussian 16 at Fri Oct 15 15:12:36 2021.
