 Gaussian 16, Revision A.03,
 Gaussian 16:  ES64L-G16RevA.03 25-Dec-2016

 --------------------------------------------------------
 #p PBE1PBE/Def2SVP td=(nstates=5) density=(transition=1)
 --------------------------------------------------------

 --------------------------------
 TDDFT excited states in gaussian
 --------------------------------
 Symbolic Z-matrix:
 Charge =  0 Multiplicity = 1

                         Standard orientation:
 ---------------------------------------------------------------------
 Center     Atomic      Atomic             Coordinates (Angstroms)
 Number     Number       Type             X           Y           Z
 ---------------------------------------------------------------------
      1         12           0       24.606041   -0.824302    0.089716
      2          6           0       26.019977    2.264198   -0.457605
      3          6           0       22.923766    0.545872    2.837653
      4          6           0       23.246986   -3.841774    0.754713
      5          6           0       26.547542   -2.169298   -2.347252
      6          7           0       24.713597    1.151546    1.224798
      7          6           0       25.196122    2.326157    0.634273
      8          6           0       24.672870    3.589403    1.346053
      9          6           0       23.771695    2.941875    2.461060
     10          6           0       23.730029    1.456700    2.172087
     11          6           0       24.258852    3.242797    3.872820
     12          6           0       23.903141    4.680823    0.521202
     13          6           0       24.628165    6.123360    0.344818
     14          1           0       23.770136    7.250526    0.927724
     15          7           0       23.380590   -1.572915    1.608526
     16          6           0       22.690797   -0.813937    2.567735
     17          6           0       21.666401   -1.614650    3.246303
     18          6           0       21.770748   -3.007598    2.704773
     19          6           0       22.786275   -2.869652    1.585793
     20          6           0       20.755767   -1.056927    4.317869
     21          6           0       21.072785   -4.235089    3.058620
     22          8           0       21.403614   -5.305653    2.527847
     23          6           0       19.982685   -4.293792    4.114342
     24          7           0       24.939876   -2.667060   -0.627836
     25          6           0       24.163217   -3.796102   -0.308057
     26          6           0       24.430413   -5.068737   -1.209197
     27          6           0       25.554626   -4.451858   -2.191099
     28          6           0       25.672342   -2.992592   -1.695990
     29          6           0       24.927112   -6.367205   -0.401412
     30          6           0       25.133978   -4.563554   -3.696902
     31          6           0       26.198380   -4.875927   -4.701608
     32          7           0       26.102547   -0.093985   -1.100012
     33          6           0       26.786615   -0.768631   -2.115312
     34          6           0       27.581857    0.131742   -2.878158
     35          6           0       27.224987    1.404503   -2.297025
     36          6           0       26.396775    1.161754   -1.193892
     37          6           0       28.444856   -0.086905   -4.049243
     38          6           0       27.541323    2.798260   -2.322861
     39          8           0       28.232697    3.525056   -3.044921
     40          6           0       26.863115    3.391237   -1.005519
     41          6           0       27.932049    3.894840   -0.102920
     42          8           0       28.402364    3.374603    0.831030
     43          8           0       28.265180    5.205450   -0.436929
     44          6           0       28.816788    5.992818    0.646085
     45          1           0       22.335517    1.001096    3.637184
     46          1           0       22.830726   -4.849086    0.820855
     47          1           0       27.059323   -2.566036   -3.226489
     48          1           0       25.510956    4.081413    1.838475
     49          1           0       22.767871    3.367530    2.466506
     50          1           0       24.584348    2.311679    4.335918
     51          1           0       23.357048    3.609609    4.361535
     52          1           0       25.008390    4.029144    3.959447
     53          1           0       22.936527    4.839302    1.000021
     54          1           0       23.731455    4.353425   -0.504289
     55          1           0       24.636696    6.241082   -0.738918
     56          1           0       25.615141    6.112154    0.806722
     57          1           0       21.369457   -0.927905    5.210265
     58          1           0       19.973836   -1.790417    4.508428
     59          1           0       20.387684   -0.054758    4.097100
     60          1           0       19.894850   -5.347000    4.381846
     61          1           0       19.028228   -3.881248    3.785689
     62          1           0       20.214507   -3.881640    5.096228
     63          1           0       23.559058   -5.269054   -1.831822
     64          1           0       26.517649   -4.962288   -2.165233
     65          1           0       25.688871   -6.870718   -0.997008
     66          1           0       24.201701   -7.168912   -0.268498
     67          1           0       25.324732   -6.129328    0.585406
     68          1           0       24.581061   -3.700238   -4.066770
     69          1           0       24.457657   -5.398365   -3.879698
     70          1           0       26.284676   -3.967923   -5.298205
     71          1           0       26.009700   -5.588975   -5.504149
     72          1           0       27.137316   -5.088933   -4.189555
     73          1           0       28.074538   -0.958443   -4.589745
     74          1           0       29.417493   -0.323827   -3.618198
     75          1           0       28.557247    0.858649   -4.580051
     76          1           0       26.206090    4.220914   -1.265188
     77          1           0       29.843601    5.638034    0.728084
     78          1           0       28.246827    5.711390    1.531403
     79          1           0       28.812522    7.057567    0.411110
     80         12           0      -25.549504   -0.392886   -0.210198
     81          6           0      -24.046169    2.698835   -0.845327
     82          6           0      -25.930594    0.591956    3.074858
     83          6           0      -26.363637   -3.601992    0.620395
     84          6           0      -24.506453   -1.457625   -3.336115
     85          7           0      -25.116738    1.451945    0.883484
     86          6           0      -24.713969    2.622734    0.373244
     87          6           0      -24.865711    3.821731    1.320751
     88          6           0      -25.300123    3.107612    2.657810
     89          6           0      -25.574849    1.572712    2.184804
     90          6           0      -24.320151    3.180365    3.848631
     91          6           0      -25.839982    4.896542    0.838151
     92          6           0      -25.525871    6.296799    1.395549
     93          1           0      -24.341452    6.474568    2.355991
     94          7           0      -26.180698   -1.363018    1.550070
     95          6           0      -26.342403   -0.759800    2.818671
     96          6           0      -26.857836   -1.757691    3.734404
     97          6           0      -26.931562   -3.025562    3.045648
     98          6           0      -26.522793   -2.705090    1.678955
     99          6           0      -27.298199   -1.381659    5.122408
    100          6           0      -27.494713   -4.436108    3.531004
    101          8           0      -27.630682   -5.390756    2.804882
    102          6           0      -27.851853   -4.546477    4.997402
    103          7           0      -25.362547   -2.258944   -1.169956
    104          6           0      -25.798814   -3.445831   -0.658036
    105          6           0      -25.640617   -4.630692   -1.680666
    106          6           0      -25.123412   -3.891635   -2.913737
    107          6           0      -24.986907   -2.457855   -2.437025
    108          6           0      -24.848058   -5.947073   -1.304899
    109          6           0      -26.106618   -4.024920   -4.100267
    110          6           0      -27.326941   -3.080152   -4.168314
    111          7           0      -24.617064    0.433339   -1.894164
    112          6           0      -24.254727   -0.112254   -3.098411
    113          6           0      -23.630136    0.855278   -3.936919
    114          6           0      -23.507107    2.033849   -3.072027
    115          6           0      -24.077891    1.703787   -1.904917
    116          6           0      -23.148061    0.781194   -5.317846
    117          6           0      -22.929631    3.364265   -2.939749
    118          8           0      -22.378885    4.078557   -3.784307
    119          6           0      -23.245761    3.878703   -1.504471
    120          6           0      -22.027689    4.224799   -0.779114
    121          8           0      -21.254848    3.434887   -0.247138
    122          8           0      -21.751034    5.554775   -0.973895
    123          6           0      -20.391163    6.065048   -0.712268
    124          1           0      -25.988115    0.979822    4.094231
    125          1           0      -26.792480   -4.586231    0.819797
    126          1           0      -24.263198   -1.760960   -4.356503
    127          1           0      -23.900336    4.264063    1.565664
    128          1           0      -26.297470    3.388717    2.994118
    129          1           0      -24.984133    3.566659    4.621736
    130          1           0      -23.512573    3.881926    3.640876
    131          1           0      -23.902824    2.195977    4.060923
    132          1           0      -26.874626    4.643949    1.066953
    133          1           0      -25.809555    4.969681   -0.249298
    134          1           0      -26.470155    6.530001    1.887965
    135          1           0      -25.462679    7.045066    0.604190
    136          1           0      -26.953391   -0.357942    5.268500
    137          1           0      -26.846162   -2.069759    5.837066
    138          1           0      -28.378675   -1.445569    5.259674
    139          1           0      -27.026316   -4.625932    5.705452
    140          1           0      -28.543084   -5.382114    5.106941
    141          1           0      -28.400827   -3.619327    5.161720
    142          1           0      -26.679111   -4.943146   -1.787831
    143          1           0      -24.160087   -4.338782   -3.156356
    144          1           0      -24.120151   -6.268299   -2.048993
    145          1           0      -25.565869   -6.763863   -1.236388
    146          1           0      -24.412862   -5.798741   -0.316168
    147          1           0      -26.433881   -5.063812   -4.084841
    148          1           0      -25.484701   -3.899217   -4.987049
    149          1           0      -28.147191   -3.720270   -4.492180
    150          1           0      -27.224357   -2.295253   -4.917301
    151          1           0      -27.530066   -2.540609   -3.243926
    152          1           0      -23.428619    1.709345   -5.814540
    153          1           0      -23.515145   -0.063605   -5.900734
    154          1           0      -22.059773    0.842684   -5.334467
    155          1           0      -23.894231    4.738655   -1.671343
    156          1           0      -19.731038    5.293390   -0.314664
    157          1           0      -20.471636    6.847198    0.043026
    158          1           0      -20.105103    6.402415   -1.707866
 ---------------------------------------------------------------------

 SCF Done:  E(RPBE1PBE) =  -4067.37860448     A.U. after   16 cycles

 Excitation energies and oscillator strengths:

 Excited State   1:      Singlet-A      1.8151 eV  683.07 nm  f=0.3922  <S**2>=0.000
     309 -> 315        0.14966
     311 -> 313        0.69581
     311 <- 313       -0.11535
 This state for optimization and/or second-order correction.
 Total Energy, E(TD-HF/TD-DFT) =  -4067.31190021
 Copying the excited state density for this state as the 1-particle RhoCI density.

 Excited State   2:      Singlet-A      1.8755 eV  661.08 nm  f=0.3926  <S**2>=0.000
     310 -> 316        0.17474
     312 -> 314        0.69088
     312 <- 314       -0.10932

 Excited State   3:      Singlet-A      1.8877 eV  656.79 nm  f=0.0000  <S**2>=0.000
     312 -> 313        0.70711

 Excited State   4:      Singlet-A      2.0441 eV  606.56 nm  f=0.0000  <S**2>=0.000
     311 -> 314        0.70711

 Excited State   5:      Singlet-A      2.1488 eV  577.00 nm  f=0.1392  <S**2>=0.000
     310 -> 314        0.66655
     312 -> 316       -0.21033

 The electronic state is 1-A.
 Alpha  occ. eigenvalues --  -46.91688 -46.91359 -19.24581 -19.22893 -19.20092
 Alpha  occ. eigenvalues --  -19.19803 -19.19233 -19.19026 -19.18885 -19.18447
 Alpha  occ. eigenvalues --  -14.42044 -14.41723 -14.41558 -14.41494 -14.39872
 Alpha  occ. eigenvalues --  -14.39110 -14.38367 -14.37943 -10.35680 -10.35155
 Alpha  occ. eigenvalues --  -10.33289 -10.32311 -10.32228 -10.31551 -10.29427
 Alpha  occ. eigenvalues --  -10.28838 -10.28635 -10.28622 -10.28620 -10.28544
 Alpha  occ. eigenvalues --  -10.28470 -10.28463 -10.28458 -10.28421 -10.28175
 Alpha  occ. eigenvalues --  -10.28002 -10.27890 -10.27836 -10.27538 -10.27334
 Alpha  occ. eigenvalues --  -10.27099 -10.27055 -10.26622 -10.26402 -10.26249
 Alpha  occ. eigenvalues --  -10.26160 -10.26106 -10.26058 -10.26000 -10.25895
 Alpha  occ. eigenvalues --  -10.25803 -10.25693 -10.25615 -10.25538 -10.25522
 Alpha  occ. eigenvalues --  -10.25495 -10.25372 -10.25269 -10.25253 -10.25130
 Alpha  occ. eigenvalues --  -10.25077 -10.24904 -10.24860 -10.24827 -10.24744
 Alpha  occ. eigenvalues --  -10.24608 -10.24407 -10.24367 -10.24197 -10.24163
 Alpha  occ. eigenvalues --  -10.24008 -10.23940 -10.23876 -10.23588 -10.23580
 Alpha  occ. eigenvalues --  -10.23570 -10.23485 -10.23478 -10.23353 -10.23345
 Alpha  occ. eigenvalues --  -10.23318 -10.23272 -10.22900 -10.22813 -10.22584
 Alpha  occ. eigenvalues --  -10.22523  -3.13793  -3.13692  -1.86634  -1.86504
 Alpha  occ. eigenvalues --   -1.86163  -1.86078  -1.86022  -1.85934  -1.11590
 Alpha  occ. eigenvalues --   -1.09874  -1.06281  -1.04077  -1.03679  -1.03065
 Alpha  occ. eigenvalues --   -1.02640  -1.01485  -0.99497  -0.99065  -0.98077
 Alpha  occ. eigenvalues --   -0.97999  -0.97169  -0.96615  -0.95653  -0.95097
 Alpha  occ. eigenvalues --   -0.87086  -0.86494  -0.83475  -0.83462  -0.83069
 Alpha  occ. eigenvalues --   -0.82910  -0.82750  -0.82470  -0.81765  -0.81567
 Alpha  occ. eigenvalues --   -0.81421  -0.80791  -0.80737  -0.80435  -0.78505
 Alpha  occ. eigenvalues --   -0.78465  -0.77824  -0.77713  -0.76662  -0.76611
 Alpha  occ. eigenvalues --   -0.76111  -0.75944  -0.75348  -0.75241  -0.74604
 Alpha  occ. eigenvalues --   -0.74563  -0.72950  -0.72469  -0.71745  -0.71442
 Alpha  occ. eigenvalues --   -0.71160  -0.71011  -0.70236  -0.69620  -0.69580
 Alpha  occ. eigenvalues --   -0.69408  -0.67568  -0.66921  -0.66112  -0.65562
 Alpha  occ. eigenvalues --   -0.64185  -0.63617  -0.63123  -0.62873  -0.62423
 Alpha  occ. eigenvalues --   -0.62143  -0.61940  -0.60477  -0.60121  -0.59800
 Alpha  occ. eigenvalues --   -0.59450  -0.59279  -0.59144  -0.58967  -0.58511
 Alpha  occ. eigenvalues --   -0.58311  -0.56010  -0.55482  -0.54624  -0.54310
 Alpha  occ. eigenvalues --   -0.53996  -0.53690  -0.53625  -0.53612  -0.53153
 Alpha  occ. eigenvalues --   -0.52880  -0.52871  -0.52328  -0.52225  -0.52002
 Alpha  occ. eigenvalues --   -0.51048  -0.50431  -0.50099  -0.50013  -0.49784
 Alpha  occ. eigenvalues --   -0.49714  -0.49216  -0.48519  -0.48311  -0.48276
 Alpha  occ. eigenvalues --   -0.47841  -0.47766  -0.47574  -0.47480  -0.47316
 Alpha  occ. eigenvalues --   -0.47283  -0.46803  -0.46802  -0.46716  -0.46426
 Alpha  occ. eigenvalues --   -0.46410  -0.46279  -0.46209  -0.45979  -0.45827
 Alpha  occ. eigenvalues --   -0.45534  -0.45391  -0.45169  -0.45154  -0.44787
 Alpha  occ. eigenvalues --   -0.44781  -0.44477  -0.44403  -0.44229  -0.44129
 Alpha  occ. eigenvalues --   -0.44119  -0.43963  -0.43686  -0.43631  -0.43477
 Alpha  occ. eigenvalues --   -0.43270  -0.43251  -0.43190  -0.42922  -0.42786
 Alpha  occ. eigenvalues --   -0.42768  -0.42674  -0.42342  -0.41929  -0.41807
 Alpha  occ. eigenvalues --   -0.41653  -0.41546  -0.41450  -0.41169  -0.41019
 Alpha  occ. eigenvalues --   -0.40962  -0.40893  -0.40803  -0.40546  -0.40410
 Alpha  occ. eigenvalues --   -0.40152  -0.40062  -0.40022  -0.39805  -0.39802
 Alpha  occ. eigenvalues --   -0.39452  -0.39425  -0.39083  -0.39054  -0.38661
 Alpha  occ. eigenvalues --   -0.38472  -0.38434  -0.38348  -0.38259  -0.38151
 Alpha  occ. eigenvalues --   -0.38023  -0.37906  -0.37801  -0.37766  -0.37662
 Alpha  occ. eigenvalues --   -0.37484  -0.37269  -0.37242  -0.36869  -0.36812
 Alpha  occ. eigenvalues --   -0.36572  -0.36362  -0.36288  -0.36051  -0.35960
 Alpha  occ. eigenvalues --   -0.35919  -0.35756  -0.35567  -0.35526  -0.35122
 Alpha  occ. eigenvalues --   -0.35094  -0.34845  -0.34840  -0.34009  -0.33704
 Alpha  occ. eigenvalues --   -0.33505  -0.33348  -0.32824  -0.32799  -0.32710
 Alpha  occ. eigenvalues --   -0.32707  -0.32154  -0.31753  -0.31219  -0.31172
 Alpha  occ. eigenvalues --   -0.30629  -0.29840  -0.29671  -0.29572  -0.29184
 Alpha  occ. eigenvalues --   -0.28990  -0.28615  -0.28507  -0.27096  -0.26627
 Alpha  occ. eigenvalues --   -0.26358  -0.26059  -0.25754  -0.25529  -0.25253
 Alpha  occ. eigenvalues --   -0.25207  -0.24813  -0.24408  -0.21291  -0.20525
 Alpha  occ. eigenvalues --   -0.19078  -0.18908
 Alpha virt. eigenvalues --   -0.11706  -0.11302  -0.05791  -0.04893  -0.04260
 Alpha virt. eigenvalues --   -0.03648  -0.02193  -0.01944  -0.00552  -0.00192
 Alpha virt. eigenvalues --    0.00675   0.00815   0.01070   0.01203   0.01686

 Mulliken charges:
               1
     1  Mg  12.002295
     2  C    5.990354
     3  C    6.011076
     4  C    6.015550
     5  C    5.993033
     6  N    6.994634
     7  C    6.024384
     8  C    5.988292
     9  C    6.008606
    10  C    5.974865
    11  C    6.000981
    12  C    5.998949
    13  C    5.996175
    14  H    1.008440
    15  N    7.000926
    16  C    5.965862
    17  C    5.971405
    18  C    5.987338
    19  C    5.971701
    20  C    6.001939
    21  C    5.989038
    22  O    7.970092
    23  C    6.006342
    24  N    7.001395
    25  C    5.967257
    26  C    6.013103
    27  C    5.987540
    28  C    6.031256
    29  C    6.002610
    30  C    5.994540
    31  C    6.000401
    32  N    7.000607
    33  C    6.035412
    34  C    6.026632
    35  C    6.005107
    36  C    6.024614
    37  C    5.999798
    38  C    6.016500
    39  O    8.031829
    40  C    5.999671
    41  C    6.000776
    42  O    8.008155
    43  O    7.999640
    44  C    5.998008
    45  H    0.991764
    46  H    0.993328
    47  H    1.009475
    48  H    1.002559
    49  H    1.000096
    50  H    1.002890
    51  H    1.000050
    52  H    0.987611
    53  H    1.009044
    54  H    0.997362
    55  H    0.997097
    56  H    0.997967
    57  H    0.980449
    58  H    0.986091
    59  H    0.980743
    60  H    0.986527
    61  H    0.990013
    62  H    0.992243
    63  H    0.997581
    64  H    1.003337
    65  H    0.989634
    66  H    1.001750
    67  H    1.001587
    68  H    1.000612
    69  H    1.011128
    70  H    0.995120
    71  H    1.004960
    72  H    1.000101
    73  H    1.017438
    74  H    1.017879
    75  H    1.012689
    76  H    1.011004
    77  H    1.002114
    78  H    1.006075
    79  H    1.004554
    80  Mg  11.999990
    81  C    5.999985
    82  C    5.999985
    83  C    6.000017
    84  C    6.000015
    85  N    6.999983
    86  C    5.999995
    87  C    6.000018
    88  C    5.999991
    89  C    6.000038
    90  C    6.000004
    91  C    6.000003
    92  C    6.000002
    93  H    1.000026
    94  N    7.000010
    95  C    6.000039
    96  C    6.000024
    97  C    6.000025
    98  C    6.000005
    99  C    5.999994
   100  C    6.000016
   101  O    8.000023
   102  C    6.000000
   103  N    7.000022
   104  C    6.000013
   105  C    5.999983
   106  C    6.000014
   107  C    5.999954
   108  C    6.000008
   109  C    6.000006
   110  C    6.000003
   111  N    6.999987
   112  C    5.999973
   113  C    5.999963
   114  C    6.000005
   115  C    6.000002
   116  C    6.000007
   117  C    5.999983
   118  O    7.999967
   119  C    5.999997
   120  C    5.999998
   121  O    8.000025
   122  O    7.999986
   123  C    5.999999
   124  H    1.000019
   125  H    1.000000
   126  H    0.999980
   127  H    1.000013
   128  H    0.999981
   129  H    0.999990
   130  H    1.000027
   131  H    1.000024
   132  H    0.999974
   133  H    0.999993
   134  H    0.999976
   135  H    0.999983
   136  H    1.000018
   137  H    1.000041
   138  H    1.000000
   139  H    1.000037
   140  H    1.000007
   141  H    0.999983
   142  H    0.999981
   143  H    1.000017
   144  H    1.000023
   145  H    0.999990
   146  H    1.000022
   147  H    0.999984
   148  H    1.000003
   149  H    0.999971
   150  H    0.999990
   151  H    0.999994
   152  H    0.999953
   153  H    0.999968
   154  H    0.999993
   155  H    0.999971
   156  H    1.000033
   157  H    0.999989
   158  H    0.999986
 Sum of Mulliken charges = 624.00000

 Dipole moment (field-independent basis, Debye):
    X=              7.0679    Y=              4.0557    Z=             -6.8959  Tot=             10.6751
 Quadrupole moment (field-independent basis, Debye-Ang):
   XX=            347.5274   YY=             -3.5868   ZZ=             -3.5405
   XY=             94.7464   XZ=           -167.6080   YZ=              7.1607

 Normal termination of Gaussian 16 at Fri Oct 15 13:51:18 2021.
