 Gaussian 16, Revision A.03,
 Gaussian 16:  ES64L-G16RevA.03 25-Dec-2016

 --------------------------------------------------------
 #p PBE1PBE/Def2SVP td=(nstates=5) density=(transition=1)
 --------------------------------------------------------

 --------------------------------
 TDDFT excited states in gaussian
 --------------------------------
 Symbolic Z-matrix:
 Charge =  0 Multiplicity = 1

                         Standard orientation:
 ---------------------------------------------------------------------
 Center     Atomic      Atomic             Coordinates (Angstroms)
 Number     Number       Type             X           Y           Z
 ---------------------------------------------------------------------
      1         12           0      -21.347469   -0.873322   -0.238859
      2          6           0      -22.221196    2.536046    0.490078
      3          6           0      -18.139294    0.366770   -1.099477
      4          6           0      -20.326937   -4.091202   -1.133330
      5          6           0      -24.503513   -1.868941    0.217689
      6          7           0      -20.386590    1.335907   -0.476360
      7          6           0      -20.913060    2.487539   -0.007447
      8          6           0      -19.923206    3.677356   -0.277092
      9          6           0      -18.743982    2.913694   -0.979159
     10          6           0      -19.050253    1.411021   -0.783947
     11          6           0      -18.573510    3.331532   -2.481464
     12          6           0      -19.485110    4.402402    0.995169
     13          6           0      -19.466704    5.894461    0.931723
     14          1           0      -19.132376    6.684318    2.205398
     15          7           0      -19.492802   -1.785522   -0.797655
     16          6           0      -18.326213   -1.091677   -1.101435
     17          6           0      -17.301524   -2.060209   -1.437513
     18          6           0      -17.844545   -3.332154   -1.362314
     19          6           0      -19.316142   -3.110682   -1.160475
     20          6           0      -15.927685   -1.714011   -1.935332
     21          6           0      -17.209305   -4.755505   -1.641514
     22          8           0      -17.747594   -5.832260   -1.558102
     23          6           0      -15.718726   -4.845960   -1.886945
     24          7           0      -22.252654   -2.652072   -0.580562
     25          6           0      -21.707113   -3.859167   -0.932265
     26          6           0      -22.787863   -4.926335   -1.223785
     27          6           0      -24.084083   -4.296042   -0.557515
     28          6           0      -23.563835   -2.838897   -0.256310
     29          6           0      -22.912121   -5.271181   -2.742403
     30          6           0      -24.579819   -5.036685    0.721672
     31          6           0      -23.664961   -4.937770    1.940303
     32          7           0      -23.032729    0.050449    0.212233
     33          6           0      -24.322634   -0.500645    0.450422
     34          6           0      -25.270749    0.550059    0.814179
     35          6           0      -24.481760    1.711948    0.889095
     36          6           0      -23.146189    1.382467    0.536651
     37          6           0      -26.689349    0.367665    1.097585
     38          6           0      -24.583647    3.137175    1.185820
     39          8           0      -25.541597    3.781029    1.579858
     40          6           0      -23.127277    3.770400    0.853307
     41          6           0      -22.847995    4.478408    2.181245
     42          8           0      -22.558779    3.973001    3.280811
     43          8           0      -23.025277    5.777606    2.015567
     44          6           0      -22.540532    6.736563    3.089507
     45          1           0      -17.135075    0.750254   -1.290083
     46          1           0      -20.102562   -5.126627   -1.401204
     47          1           0      -25.495968   -2.275214    0.422233
     48          1           0      -20.511272    4.385266   -0.860198
     49          1           0      -17.794789    3.081725   -0.468572
     50          1           0      -17.583965    3.686650   -2.769199
     51          1           0      -19.366754    3.979184   -2.855321
     52          1           0      -18.611935    2.522992   -3.211801
     53          1           0      -18.405724    4.255160    0.954445
     54          1           0      -19.911364    3.973835    1.902891
     55          1           0      -20.319656    6.432726    0.515224
     56          1           0      -18.645630    6.097175    0.243998
     57          1           0      -15.728976   -0.646565   -1.843058
     58          1           0      -15.725934   -1.990660   -2.971327
     59          1           0      -15.100281   -2.163733   -1.386222
     60          1           0      -15.135772   -4.469160   -1.046607
     61          1           0      -15.617566   -4.273356   -2.808949
     62          1           0      -15.578061   -5.889513   -2.168625
     63          1           0      -22.383083   -5.831166   -0.769060
     64          1           0      -24.898487   -4.005211   -1.221407
     65          1           0      -22.568569   -6.279355   -2.973901
     66          1           0      -22.486197   -4.575764   -3.464800
     67          1           0      -23.989445   -5.183269   -2.884078
     68          1           0      -24.944587   -6.015558    0.410146
     69          1           0      -25.500384   -4.548008    1.040369
     70          1           0      -22.701767   -4.456383    1.775074
     71          1           0      -23.458470   -5.967244    2.231899
     72          1           0      -24.026765   -4.311602    2.755037
     73          1           0      -27.231590    1.280704    1.344251
     74          1           0      -26.720899   -0.328470    1.935645
     75          1           0      -27.134664   -0.127247    0.233368
     76          1           0      -23.183990    4.580217    0.125950
     77          1           0      -22.492909    7.714446    2.609857
     78          1           0      -21.523962    6.525019    3.419679
     79          1           0      -23.158647    6.731662    3.988040
     80         12           0       22.170151    0.381684    0.356705
     81          6           0       18.848206    1.519962    0.044331
     82          6           0       21.190483   -1.320638    3.140500
     83          6           0       25.140487   -1.303862    0.224459
     84          6           0       22.740522    1.837019   -2.845902
     85          7           0       20.165130    0.015244    1.399505
     86          6           0       18.980790    0.672207    1.225754
     87          6           0       17.880238    0.148308    2.164476
     88          6           0       18.851525   -0.437144    3.303058
     89          6           0       20.162132   -0.591821    2.572321
     90          6           0       19.011814    0.444460    4.570580
     91          6           0       16.964964   -0.998395    1.539398
     92          6           0       15.567437   -1.211638    2.100248
     93          1           0       15.190853   -2.468300    2.913581
     94          7           0       23.150240   -1.127486    1.533745
     95          6           0       22.600235   -1.564535    2.703660
     96          6           0       23.513857   -2.325257    3.435175
     97          6           0       24.716716   -2.334295    2.633160
     98          6           0       24.394317   -1.601806    1.375993
     99          6           0       23.240232   -2.952856    4.796665
    100          6           0       25.987483   -3.020434    3.080860
    101          8           0       26.018800   -3.602997    4.195469
    102          6           0       27.336534   -2.962375    2.281228
    103          7           0       23.653646    0.324950   -1.101235
    104          6           0       24.834300   -0.440476   -0.901252
    105          6           0       25.883570   -0.034255   -1.898406
    106          6           0       25.090401    0.652761   -3.031169
    107          6           0       23.776055    1.044130   -2.294843
    108          6           0       27.010533    0.935819   -1.477336
    109          6           0       24.761660   -0.357338   -4.252527
    110          6           0       25.818200   -0.565972   -5.326974
    111          7           0       21.058132    1.618406   -1.010224
    112          6           0       21.422166    2.131243   -2.246225
    113          6           0       20.373794    2.798202   -2.851576
    114          6           0       19.307430    2.639721   -1.949931
    115          6           0       19.776927    1.891102   -0.857495
    116          6           0       20.443996    3.500094   -4.171012
    117          6           0       18.020290    3.017392   -1.687138
    118          8           0       17.298492    3.800701   -2.272142
    119          6           0       17.599616    2.097711   -0.521530
    120          6           0       16.657106    1.105521   -1.134730
    121          8           0       16.940654    0.388070   -2.042992
    122          8           0       15.397557    1.206135   -0.541219
    123          6           0       14.425129    0.405443   -1.200195
    124          1           0       20.980145   -1.709622    4.139190
    125          1           0       26.176028   -1.651692    0.230130
    126          1           0       23.032118    2.370715   -3.752625
    127          1           0       17.325206    0.952768    2.645899
    128          1           0       18.400527   -1.370450    3.639021
    129          1           0       18.315731   -0.021127    5.268855
    130          1           0       18.692815    1.472982    4.402233
    131          1           0       20.020924    0.381926    4.978202
    132          1           0       17.436746   -1.972618    1.667857
    133          1           0       16.953170   -0.828286    0.462598
    134          1           0       14.923378   -1.159636    1.221220
    135          1           0       15.330672   -0.340126    2.710373
    136          1           0       24.036793   -2.999929    5.539970
    137          1           0       22.878798   -3.919405    4.446371
    138          1           0       22.500495   -2.361154    5.335946
    139          1           0       27.677974   -1.929303    2.221658
    140          1           0       27.054710   -3.399799    1.323652
    141          1           0       28.128240   -3.627987    2.624867
    142          1           0       26.301088   -0.959276   -2.294718
    143          1           0       25.609436    1.524247   -3.430355
    144          1           0       26.979426    1.916380   -1.952020
    145          1           0       27.951341    0.407417   -1.321758
    146          1           0       26.762609    1.185081   -0.445712
    147          1           0       23.874783    0.128399   -4.658980
    148          1           0       24.494061   -1.345161   -3.876955
    149          1           0       25.996214   -1.633985   -5.449580
    150          1           0       26.743992   -0.079053   -5.019255
    151          1           0       25.477003   -0.201041   -6.296089
    152          1           0       19.586769    3.145931   -4.742845
    153          1           0       21.324614    3.219905   -4.750352
    154          1           0       20.369336    4.583828   -4.079660
    155          1           0       17.081627    2.707800    0.217654
    156          1           0       13.915893    0.999417   -1.958633
    157          1           0       13.586365    0.126664   -0.561205
    158          1           0       14.861472   -0.471150   -1.675988
 ---------------------------------------------------------------------

 SCF Done:  E(RPBE1PBE) =  -4067.33848162     A.U. after   16 cycles

 Excitation energies and oscillator strengths:

 Excited State   1:      Singlet-A      1.7188 eV  721.36 nm  f=0.0000  <S**2>=0.000
     312 -> 313        0.70711
 This state for optimization and/or second-order correction.
 Total Energy, E(TD-HF/TD-DFT) =  -4067.27531865
 Copying the excited state density for this state as the 1-particle RhoCI density.

 Excited State   2:      Singlet-A      1.8203 eV  681.13 nm  f=0.3640  <S**2>=0.000
     310 -> 316        0.17697
     312 -> 314        0.69231
     312 <- 314       -0.10909

 Excited State   3:      Singlet-A      1.8621 eV  665.84 nm  f=0.3817  <S**2>=0.000
     309 -> 315       -0.18180
     311 -> 313        0.68863
     311 <- 313       -0.10551

 Excited State   4:      Singlet-A      2.1541 eV  575.57 nm  f=0.1181  <S**2>=0.000
     309 -> 313        0.65689
     311 -> 315        0.24321

 Excited State   5:      Singlet-A      2.2287 eV  556.31 nm  f=0.0000  <S**2>=0.000
     311 -> 314        0.70710

 The electronic state is 1-A.
 Alpha  occ. eigenvalues --  -46.93715 -46.91705 -19.26039 -19.25571 -19.21106
 Alpha  occ. eigenvalues --  -19.19646 -19.19621 -19.18380 -19.18264 -19.18180
 Alpha  occ. eigenvalues --  -14.42523 -14.42359 -14.41955 -14.41105 -14.39723
 Alpha  occ. eigenvalues --  -14.39463 -14.39408 -14.38856 -10.36704 -10.35506
 Alpha  occ. eigenvalues --  -10.32678 -10.32599 -10.32248 -10.30483 -10.30132
 Alpha  occ. eigenvalues --  -10.30120 -10.29473 -10.29419 -10.29227 -10.29080
 Alpha  occ. eigenvalues --  -10.28976 -10.28813 -10.28673 -10.28558 -10.28380
 Alpha  occ. eigenvalues --  -10.28280 -10.28227 -10.27942 -10.27826 -10.27709
 Alpha  occ. eigenvalues --  -10.27669 -10.27072 -10.26660 -10.26609 -10.26544
 Alpha  occ. eigenvalues --  -10.26405 -10.26294 -10.26236 -10.26228 -10.26206
 Alpha  occ. eigenvalues --  -10.26194 -10.25989 -10.25979 -10.25941 -10.25859
 Alpha  occ. eigenvalues --  -10.25852 -10.25836 -10.25719 -10.25683 -10.25628
 Alpha  occ. eigenvalues --  -10.25519 -10.25482 -10.25274 -10.25235 -10.25164
 Alpha  occ. eigenvalues --  -10.25037 -10.24950 -10.24911 -10.24484 -10.24258
 Alpha  occ. eigenvalues --  -10.24205 -10.24193 -10.24077 -10.24010 -10.23685
 Alpha  occ. eigenvalues --  -10.23682 -10.23648 -10.23576 -10.23564 -10.23462
 Alpha  occ. eigenvalues --  -10.23303 -10.23206 -10.23123 -10.22954 -10.22813
 Alpha  occ. eigenvalues --  -10.21896  -3.15595  -3.13972  -1.88432  -1.87961
 Alpha  occ. eigenvalues --   -1.87812  -1.86798  -1.86363  -1.86201  -1.12384
 Alpha  occ. eigenvalues --   -1.10728  -1.06137  -1.04849  -1.04816  -1.04315
 Alpha  occ. eigenvalues --   -1.02077  -1.00354  -1.00092  -0.99366  -0.98619
 Alpha  occ. eigenvalues --   -0.98378  -0.97730  -0.96854  -0.96545  -0.96368
 Alpha  occ. eigenvalues --   -0.88741  -0.85207  -0.83475  -0.83244  -0.83045
 Alpha  occ. eigenvalues --   -0.83011  -0.83007  -0.82278  -0.81950  -0.81699
 Alpha  occ. eigenvalues --   -0.81443  -0.81229  -0.80746  -0.80238  -0.78672
 Alpha  occ. eigenvalues --   -0.78379  -0.77939  -0.77851  -0.77191  -0.76627
 Alpha  occ. eigenvalues --   -0.76175  -0.75646  -0.75322  -0.75032  -0.74605
 Alpha  occ. eigenvalues --   -0.74488  -0.72416  -0.72413  -0.71722  -0.71603
 Alpha  occ. eigenvalues --   -0.71238  -0.71237  -0.70298  -0.70266  -0.70066
 Alpha  occ. eigenvalues --   -0.69472  -0.68090  -0.67046  -0.66714  -0.66075
 Alpha  occ. eigenvalues --   -0.64399  -0.63934  -0.63154  -0.62935  -0.62814
 Alpha  occ. eigenvalues --   -0.61955  -0.61664  -0.60704  -0.60645  -0.59879
 Alpha  occ. eigenvalues --   -0.59815  -0.59612  -0.59305  -0.59127  -0.58791
 Alpha  occ. eigenvalues --   -0.58641  -0.57377  -0.56389  -0.55044  -0.54742
 Alpha  occ. eigenvalues --   -0.54162  -0.54102  -0.53913  -0.53796  -0.53575
 Alpha  occ. eigenvalues --   -0.53472  -0.52732  -0.52380  -0.51955  -0.51146
 Alpha  occ. eigenvalues --   -0.50634  -0.50266  -0.50211  -0.49986  -0.49880
 Alpha  occ. eigenvalues --   -0.49681  -0.49624  -0.49144  -0.48496  -0.48466
 Alpha  occ. eigenvalues --   -0.48179  -0.47829  -0.47799  -0.47726  -0.47520
 Alpha  occ. eigenvalues --   -0.47358  -0.47251  -0.47244  -0.46951  -0.46703
 Alpha  occ. eigenvalues --   -0.46631  -0.46447  -0.46192  -0.46074  -0.45804
 Alpha  occ. eigenvalues --   -0.45564  -0.45496  -0.45452  -0.45169  -0.44736
 Alpha  occ. eigenvalues --   -0.44707  -0.44497  -0.44378  -0.44361  -0.44196
 Alpha  occ. eigenvalues --   -0.44006  -0.43868  -0.43836  -0.43656  -0.43566
 Alpha  occ. eigenvalues --   -0.43553  -0.43210  -0.43116  -0.43064  -0.42735
 Alpha  occ. eigenvalues --   -0.42669  -0.42230  -0.42144  -0.42040  -0.41908
 Alpha  occ. eigenvalues --   -0.41722  -0.41492  -0.41342  -0.41301  -0.41147
 Alpha  occ. eigenvalues --   -0.41104  -0.41054  -0.40907  -0.40810  -0.40562
 Alpha  occ. eigenvalues --   -0.40559  -0.40288  -0.40081  -0.39893  -0.39863
 Alpha  occ. eigenvalues --   -0.39692  -0.39521  -0.39428  -0.39215  -0.38993
 Alpha  occ. eigenvalues --   -0.38810  -0.38677  -0.38647  -0.38407  -0.38241
 Alpha  occ. eigenvalues --   -0.38181  -0.38021  -0.37929  -0.37865  -0.37800
 Alpha  occ. eigenvalues --   -0.37761  -0.37435  -0.37318  -0.37219  -0.37104
 Alpha  occ. eigenvalues --   -0.36962  -0.36722  -0.36421  -0.36224  -0.36223
 Alpha  occ. eigenvalues --   -0.36024  -0.35858  -0.35723  -0.35402  -0.35259
 Alpha  occ. eigenvalues --   -0.35235  -0.35133  -0.34535  -0.34380  -0.34016
 Alpha  occ. eigenvalues --   -0.33557  -0.33506  -0.33050  -0.32843  -0.32649
 Alpha  occ. eigenvalues --   -0.32521  -0.32102  -0.31931  -0.31716  -0.31627
 Alpha  occ. eigenvalues --   -0.31073  -0.30654  -0.30409  -0.30272  -0.29103
 Alpha  occ. eigenvalues --   -0.29033  -0.28665  -0.27623  -0.27103  -0.26910
 Alpha  occ. eigenvalues --   -0.26074  -0.25837  -0.25718  -0.25675  -0.25516
 Alpha  occ. eigenvalues --   -0.25360  -0.25254  -0.24639  -0.21327  -0.21035
 Alpha  occ. eigenvalues --   -0.19648  -0.18631
 Alpha virt. eigenvalues --   -0.12009  -0.11151  -0.06001  -0.05490  -0.04292
 Alpha virt. eigenvalues --   -0.03587  -0.02050  -0.01879  -0.01414   0.00085
 Alpha virt. eigenvalues --    0.00606   0.00732   0.00868   0.01228   0.01365

 Mulliken charges:
               1
     1  Mg  12.000000
     2  C    6.000000
     3  C    6.000000
     4  C    6.000000
     5  C    6.000000
     6  N    7.000000
     7  C    6.000000
     8  C    6.000000
     9  C    6.000000
    10  C    6.000000
    11  C    6.000000
    12  C    6.000000
    13  C    6.000000
    14  H    1.000000
    15  N    7.000000
    16  C    6.000000
    17  C    6.000000
    18  C    6.000000
    19  C    6.000000
    20  C    6.000000
    21  C    6.000000
    22  O    8.000000
    23  C    6.000000
    24  N    7.000000
    25  C    6.000000
    26  C    6.000000
    27  C    6.000000
    28  C    6.000000
    29  C    6.000000
    30  C    6.000000
    31  C    6.000000
    32  N    7.000000
    33  C    6.000000
    34  C    6.000000
    35  C    6.000000
    36  C    6.000000
    37  C    6.000000
    38  C    6.000000
    39  O    8.000000
    40  C    6.000000
    41  C    6.000000
    42  O    8.000000
    43  O    8.000000
    44  C    6.000000
    45  H    1.000000
    46  H    1.000000
    47  H    1.000000
    48  H    1.000000
    49  H    1.000000
    50  H    1.000000
    51  H    1.000000
    52  H    1.000000
    53  H    1.000000
    54  H    1.000000
    55  H    1.000000
    56  H    1.000000
    57  H    1.000000
    58  H    1.000000
    59  H    1.000000
    60  H    1.000000
    61  H    1.000000
    62  H    1.000000
    63  H    1.000000
    64  H    1.000000
    65  H    1.000000
    66  H    1.000000
    67  H    1.000000
    68  H    1.000000
    69  H    1.000000
    70  H    1.000000
    71  H    1.000000
    72  H    1.000000
    73  H    1.000000
    74  H    1.000000
    75  H    1.000000
    76  H    1.000000
    77  H    1.000000
    78  H    1.000000
    79  H    1.000000
    80  Mg  12.000000
    81  C    6.000000
    82  C    6.000000
    83  C    6.000000
    84  C    6.000000
    85  N    7.000000
    86  C    6.000000
    87  C    6.000000
    88  C    6.000000
    89  C    6.000000
    90  C    6.000000
    91  C    6.000000
    92  C    6.000000
    93  H    1.000000
    94  N    7.000000
    95  C    6.000000
    96  C    6.000000
    97  C    6.000000
    98  C    6.000000
    99  C    6.000000
   100  C    6.000000
   101  O    8.000000
   102  C    6.000000
   103  N    7.000000
   104  C    6.000000
   105  C    6.000000
   106  C    6.000000
   107  C    6.000000
   108  C    6.000000
   109  C    6.000000
   110  C    6.000000
   111  N    7.000000
   112  C    6.000000
   113  C    6.000000
   114  C    6.000000
   115  C    6.000000
   116  C    6.000000
   117  C    6.000000
   118  O    8.000000
   119  C    6.000000
   120  C    6.000000
   121  O    8.000000
   122  O    8.000000
   123  C    6.000000
   124  H    1.000000
   125  H    1.000000
   126  H    1.000000
   127  H    1.000000
   128  H    1.000000
   129  H    1.000000
   130  H    1.000000
   131  H    1.000000
   132  H    1.000000
   133  H    1.000000
   134  H    1.000000
   135  H    1.000000
   136  H    1.000000
   137  H    1.000000
   138  H    1.000000
   139  H    1.000000
   140  H    1.000000
   141  H    1.000000
   142  H    1.000000
   143  H    1.000000
   144  H    1.000000
   145  H    1.000000
   146  H    1.000000
   147  H    1.000000
   148  H    1.000000
   149  H    1.000000
   150  H    1.000000
   151  H    1.000000
   152  H    1.000000
   153  H    1.000000
   154  H    1.000000
   155  H    1.000000
   156  H    1.000000
   157  H    1.000000
   158  H    1.000000
 Sum of Mulliken charges = 624.00000

 Dipole moment (field-independent basis, Debye):
    X=              0.0000    Y=             -0.0000    Z=              0.0000  Tot=              0.0000
 Quadrupole moment (field-independent basis, Debye-Ang):
   XX=              0.0000   YY=             -0.0000   ZZ=              0.0000
   XY=             -0.0000   XZ=              0.0000   YZ=              0.0000

 Normal termination of Gaussian 16 at Thu Oct 14 15:04:00 2021.
