 Gaussian 16, Revision A.03,
 Gaussian 16:  ES64L-G16RevA.03 25-Dec-2016

 --------------------------------------------------------
 #p PBE1PBE/Def2SVP td=(nstates=5) density=(transition=1)
 --------------------------------------------------------

 --------------------------------
 TDDFT excited states in gaussian
 --------------------------------
 Symbolic Z-matrix:
 Charge =  0 Multiplicity = 1

                         Standard orientation:
 ---------------------------------------------------------------------
 Center     Atomic      Atomic             Coordinates (Angstroms)
 Number     Number       Type             X           Y           Z
 ---------------------------------------------------------------------
      1         12           0       12.706423   -0.717298   -0.338812
      2          6           0       14.837091    1.936062   -0.116134
      3          6           0       10.002045    1.529299    0.052420
      4          6           0       10.592933   -3.314606   -0.319287
      5          6           0       15.406814   -2.794434   -0.777183
      6          7           0       12.445488    1.410744    0.246789
      7          6           0       13.500052    2.328666    0.160907
      8          6           0       13.021650    3.788246    0.403212
      9          6           0       11.495354    3.528204    0.508067
     10          6           0       11.276592    2.037772    0.320760
     11          6           0       10.644120    4.058175    1.739549
     12          6           0       13.386281    4.857704   -0.718329
     13          6           0       12.825217    6.265467   -0.382331
     14          1           0       13.907765    7.265199    0.026904
     15          7           0       10.534645   -0.858105   -0.201937
     16          6           0        9.650051    0.195492   -0.286525
     17          6           0        8.321060   -0.395537   -0.182261
     18          6           0        8.509102   -1.811543   -0.283803
     19          6           0        9.914594   -2.069762   -0.297108
     20          6           0        7.113942    0.456439   -0.094963
     21          6           0        7.326696   -2.839689   -0.210207
     22          8           0        7.487739   -4.070578   -0.084082
     23          6           0        5.902342   -2.349087   -0.214233
     24          7           0       12.948378   -2.652274   -0.483442
     25          6           0       11.895441   -3.609005   -0.441369
     26          6           0       12.442977   -5.009514   -0.284305
     27          6           0       13.830170   -4.818210   -0.894458
     28          6           0       14.096905   -3.324611   -0.773094
     29          6           0       12.492657   -5.483285    1.207112
     30          6           0       13.881105   -5.190455   -2.393165
     31          6           0       14.119784   -6.628753   -2.767084
     32          7           0       14.762619   -0.581713   -0.403586
     33          6           0       15.729515   -1.452535   -0.735065
     34          6           0       17.000140   -0.791132   -0.691461
     35          6           0       16.721329    0.541583   -0.474764
     36          6           0       15.326768    0.634810   -0.346484
     37          6           0       18.282187   -1.499773   -0.958147
     38          6           0       17.319134    1.801494   -0.345145
     39          8           0       18.478170    2.159595   -0.427467
     40          6           0       16.089588    2.796564   -0.101025
     41          6           0       16.328547    3.511266    1.181678
     42          8           0       16.327109    3.037773    2.291896
     43          8           0       16.410405    4.831549    0.991861
     44          6           0       16.600576    5.678048    2.232239
     45          1           0        9.222793    2.293413    0.019828
     46          1           0        9.915579   -4.170947   -0.321250
     47          1           0       16.299758   -3.366273   -1.036793
     48          1           0       13.408783    4.122203    1.365919
     49          1           0       10.993710    3.963244   -0.356856
     50          1           0        9.634516    4.403852    1.515910
     51          1           0       11.248639    4.737541    2.340745
     52          1           0       10.460486    3.164306    2.335534
     53          1           0       12.995954    4.407052   -1.630005
     54          1           0       14.471755    4.900824   -0.806758
     55          1           0       12.007842    6.178662    0.333536
     56          1           0       12.402834    6.656879   -1.307332
     57          1           0        6.693284    0.338466    0.903835
     58          1           0        6.498630    0.186328   -0.953191
     59          1           0        7.366204    1.503472   -0.263467
     60          1           0        5.218216   -3.197646   -0.219597
     61          1           0        5.788564   -1.890739   -1.197573
     62          1           0        5.620881   -1.637589    0.561631
     63          1           0       11.839396   -5.732587   -0.833599
     64          1           0       14.613710   -5.363117   -0.368318
     65          1           0       13.301661   -4.993586    1.747757
     66          1           0       12.601354   -6.567061    1.256303
     67          1           0       11.523938   -5.213316    1.626141
     68          1           0       14.594327   -4.589127   -2.955491
     69          1           0       12.957234   -4.873053   -2.876917
     70          1           0       13.254446   -6.945747   -3.348454
     71          1           0       14.022817   -7.147964   -1.813481
     72          1           0       15.084387   -6.821569   -3.236901
     73          1           0       18.585609   -1.356588   -1.994497
     74          1           0       18.376589   -2.538872   -0.641274
     75          1           0       19.025698   -0.968426   -0.363788
     76          1           0       16.060002    3.510352   -0.924590
     77          1           0       15.833096    5.374110    2.944405
     78          1           0       16.452537    6.743260    2.052811
     79          1           0       17.600189    5.478972    2.619185
     80         12           0      -13.041691   -0.626803    0.326134
     81          6           0      -13.587244    2.507313   -1.191069
     82          6           0      -11.775873    1.100263    3.038988
     83          6           0      -12.344584   -3.590599    1.870331
     84          6           0      -13.975701   -2.177230   -2.501068
     85          7           0      -12.748381    1.585871    0.880120
     86          6           0      -13.165402    2.706693    0.172269
     87          6           0      -13.075387    3.945059    1.041241
     88          6           0      -12.159392    3.491507    2.235558
     89          6           0      -12.250420    1.993961    2.046329
     90          6           0      -10.699817    4.093803    2.247185
     91          6           0      -14.437915    4.408764    1.577571
     92          6           0      -14.625654    5.926718    1.672130
     93          1           0      -13.808885    6.709602    2.737518
     94          7           0      -12.269686   -1.178185    2.215480
     95          6           0      -11.791155   -0.287935    3.114900
     96          6           0      -11.217740   -1.007382    4.205537
     97          6           0      -11.469657   -2.410160    4.016366
     98          6           0      -11.991247   -2.437031    2.661265
     99          6           0      -10.535687   -0.313178    5.351605
    100          6           0      -11.144694   -3.630540    4.877930
    101          8           0      -11.600353   -4.764369    4.610806
    102          6           0      -10.188835   -3.567174    6.063840
    103          7           0      -13.230380   -2.576532   -0.199192
    104          6           0      -12.817564   -3.667864    0.559213
    105          6           0      -13.007102   -4.915654   -0.240735
    106          6           0      -13.600178   -4.547825   -1.648295
    107          6           0      -13.663721   -3.022562   -1.467401
    108          6           0      -11.773992   -5.868243   -0.263641
    109          6           0      -14.983197   -5.155298   -1.968276
    110          6           0      -14.908493   -6.449692   -2.800993
    111          7           0      -13.606740   -0.039830   -1.475846
    112          6           0      -14.043642   -0.766497   -2.582548
    113          6           0      -14.513978    0.119364   -3.711184
    114          6           0      -14.294952    1.392166   -3.159695
    115          6           0      -13.809965    1.256776   -1.819211
    116          6           0      -15.060156   -0.328724   -5.054575
    117          6           0      -14.427014    2.804509   -3.484066
    118          8           0      -14.792003    3.365413   -4.518096
    119          6           0      -14.074834    3.566530   -2.136588
    120          6           0      -13.017889    4.617015   -2.530461
    121          8           0      -12.098548    4.459511   -3.307111
    122          8           0      -13.383512    5.842665   -1.977168
    123          6           0      -12.443859    6.917155   -2.298052
    124          1           0      -11.457314    1.677507    3.909265
    125          1           0      -12.169529   -4.591369    2.270102
    126          1           0      -14.143942   -2.751044   -3.414410
    127          1           0      -12.596421    4.800186    0.564955
    128          1           0      -12.531517    3.763698    3.223286
    129          1           0      -10.497370    4.850726    1.488890
    130          1           0       -9.881062    3.391391    2.092959
    131          1           0      -10.507073    4.618033    3.183220
    132          1           0      -14.636563    3.995009    2.565962
    133          1           0      -15.242162    4.088473    0.914923
    134          1           0      -15.675342    6.201044    1.776091
    135          1           0      -14.391074    6.413321    0.725631
    136          1           0       -9.863645    0.367476    4.828734
    137          1           0       -9.907949   -0.915067    6.008541
    138          1           0      -11.194846    0.280177    5.984865
    139          1           0       -9.255166   -3.078762    5.784395
    140          1           0      -10.060864   -4.622301    6.305127
    141          1           0      -10.616966   -2.989667    6.883155
    142          1           0      -13.670894   -5.557167    0.339667
    143          1           0      -12.936560   -4.733282   -2.493861
    144          1           0      -10.966973   -5.377547    0.280886
    145          1           0      -11.458031   -6.008180   -1.297068
    146          1           0      -12.125669   -6.764436    0.248591
    147          1           0      -15.594800   -4.359674   -2.393168
    148          1           0      -15.468627   -5.513795   -1.060301
    149          1           0      -13.937082   -6.923759   -2.659196
    150          1           0      -14.960168   -6.337522   -3.884134
    151          1           0      -15.662407   -7.138071   -2.417941
    152          1           0      -16.057938   -0.730599   -4.877544
    153          1           0      -14.496891   -1.117250   -5.553242
    154          1           0      -15.106943    0.571632   -5.666961
    155          1           0      -14.908114    4.070985   -1.647797
    156          1           0      -11.626073    7.037574   -1.586901
    157          1           0      -13.074331    7.804959   -2.345123
    158          1           0      -11.889319    6.876462   -3.235551
 ---------------------------------------------------------------------

 SCF Done:  E(RPBE1PBE) =  -4067.43029922     A.U. after   16 cycles

 Excitation energies and oscillator strengths:

 Excited State   1:      Singlet-A      1.8105 eV  684.81 nm  f=0.3859  <S**2>=0.000
     309 -> 316       -0.15506
     311 -> 313        0.69899
     311 <- 313       -0.12499
 This state for optimization and/or second-order correction.
 Total Energy, E(TD-HF/TD-DFT) =  -4067.36376482
 Copying the excited state density for this state as the 1-particle RhoCI density.

 Excited State   2:      Singlet-A      1.8229 eV  680.13 nm  f=0.0000  <S**2>=0.000
     312 -> 313        0.70710

 Excited State   3:      Singlet-A      1.8492 eV  670.46 nm  f=0.3563  <S**2>=0.000
     310 -> 315       -0.18090
     312 -> 314        0.69087
     312 <- 314       -0.10439

 Excited State   4:      Singlet-A      1.9535 eV  634.67 nm  f=0.0000  <S**2>=0.000
     311 -> 314        0.70710

 Excited State   5:      Singlet-A      2.2266 eV  556.84 nm  f=0.0948  <S**2>=0.000
     310 -> 314        0.64898
     312 -> 315        0.27348

 The electronic state is 1-A.
 Alpha  occ. eigenvalues --  -46.91120 -46.90925 -19.26467 -19.25517 -19.20675
 Alpha  occ. eigenvalues --  -19.19499 -19.19417 -19.19373 -19.18909 -19.18907
 Alpha  occ. eigenvalues --  -14.42168 -14.42081 -14.41391 -14.41011 -14.39642
 Alpha  occ. eigenvalues --  -14.39114 -14.38619 -14.38482 -10.36765 -10.35475
 Alpha  occ. eigenvalues --  -10.32935 -10.32503 -10.32326 -10.31975 -10.29786
 Alpha  occ. eigenvalues --  -10.29501 -10.29349 -10.29050 -10.28773 -10.28509
 Alpha  occ. eigenvalues --  -10.28412 -10.28394 -10.28270 -10.28239 -10.28208
 Alpha  occ. eigenvalues --  -10.27864 -10.27356 -10.27176 -10.27125 -10.27121
 Alpha  occ. eigenvalues --  -10.26996 -10.26673 -10.26654 -10.26587 -10.26548
 Alpha  occ. eigenvalues --  -10.26509 -10.26453 -10.26414 -10.26232 -10.26214
 Alpha  occ. eigenvalues --  -10.26206 -10.26180 -10.25799 -10.25632 -10.25629
 Alpha  occ. eigenvalues --  -10.25625 -10.25622 -10.25240 -10.25160 -10.25097
 Alpha  occ. eigenvalues --  -10.25078 -10.25030 -10.24982 -10.24963 -10.24569
 Alpha  occ. eigenvalues --  -10.24551 -10.24362 -10.24300 -10.24111 -10.24088
 Alpha  occ. eigenvalues --  -10.24059 -10.24036 -10.23981 -10.23828 -10.23785
 Alpha  occ. eigenvalues --  -10.23644 -10.23554 -10.23537 -10.23298 -10.23276
 Alpha  occ. eigenvalues --  -10.23220 -10.23215 -10.23203 -10.23065 -10.22578
 Alpha  occ. eigenvalues --  -10.22535  -3.13476  -3.13279  -1.86317  -1.86124
 Alpha  occ. eigenvalues --   -1.85828  -1.85745  -1.85672  -1.85500  -1.11642
 Alpha  occ. eigenvalues --   -1.11108  -1.05092  -1.04054  -1.03580  -1.03119
 Alpha  occ. eigenvalues --   -1.03055  -1.01919  -1.00076  -0.99307  -0.98546
 Alpha  occ. eigenvalues --   -0.98288  -0.97858  -0.97757  -0.96745  -0.96142
 Alpha  occ. eigenvalues --   -0.87635  -0.86987  -0.83731  -0.83408  -0.83360
 Alpha  occ. eigenvalues --   -0.83147  -0.82957  -0.82629  -0.82216  -0.81868
 Alpha  occ. eigenvalues --   -0.81515  -0.81266  -0.80920  -0.80546  -0.78693
 Alpha  occ. eigenvalues --   -0.78662  -0.78289  -0.77936  -0.76827  -0.76628
 Alpha  occ. eigenvalues --   -0.75886  -0.75845  -0.75526  -0.75304  -0.74933
 Alpha  occ. eigenvalues --   -0.74438  -0.72765  -0.72745  -0.71883  -0.71836
 Alpha  occ. eigenvalues --   -0.71619  -0.71543  -0.70516  -0.70495  -0.69613
 Alpha  occ. eigenvalues --   -0.69456  -0.67662  -0.67206  -0.66284  -0.66124
 Alpha  occ. eigenvalues --   -0.63894  -0.63757  -0.63342  -0.63302  -0.62693
 Alpha  occ. eigenvalues --   -0.62688  -0.61718  -0.60584  -0.60262  -0.60230
 Alpha  occ. eigenvalues --   -0.59970  -0.59423  -0.59215  -0.59052  -0.58824
 Alpha  occ. eigenvalues --   -0.58722  -0.57203  -0.56648  -0.54948  -0.54833
 Alpha  occ. eigenvalues --   -0.54670  -0.54604  -0.53735  -0.53562  -0.53522
 Alpha  occ. eigenvalues --   -0.53207  -0.52919  -0.52431  -0.52330  -0.52086
 Alpha  occ. eigenvalues --   -0.51170  -0.50670  -0.50481  -0.50060  -0.49778
 Alpha  occ. eigenvalues --   -0.49686  -0.49257  -0.49117  -0.48847  -0.48433
 Alpha  occ. eigenvalues --   -0.48139  -0.48041  -0.48007  -0.47739  -0.47535
 Alpha  occ. eigenvalues --   -0.47422  -0.47302  -0.47197  -0.46826  -0.46742
 Alpha  occ. eigenvalues --   -0.46476  -0.46334  -0.46305  -0.46247  -0.45919
 Alpha  occ. eigenvalues --   -0.45858  -0.45179  -0.45034  -0.44910  -0.44678
 Alpha  occ. eigenvalues --   -0.44616  -0.44611  -0.44470  -0.44442  -0.44295
 Alpha  occ. eigenvalues --   -0.44047  -0.43847  -0.43736  -0.43601  -0.43562
 Alpha  occ. eigenvalues --   -0.43433  -0.43195  -0.42990  -0.42839  -0.42766
 Alpha  occ. eigenvalues --   -0.42756  -0.42391  -0.42240  -0.42170  -0.42152
 Alpha  occ. eigenvalues --   -0.41864  -0.41625  -0.41551  -0.41430  -0.41352
 Alpha  occ. eigenvalues --   -0.41294  -0.41145  -0.41034  -0.40870  -0.40682
 Alpha  occ. eigenvalues --   -0.40583  -0.40300  -0.40206  -0.39969  -0.39780
 Alpha  occ. eigenvalues --   -0.39459  -0.39452  -0.39348  -0.39238  -0.39068
 Alpha  occ. eigenvalues --   -0.39018  -0.38592  -0.38582  -0.38449  -0.38370
 Alpha  occ. eigenvalues --   -0.38342  -0.38235  -0.38018  -0.37980  -0.37728
 Alpha  occ. eigenvalues --   -0.37525  -0.37216  -0.36903  -0.36807  -0.36732
 Alpha  occ. eigenvalues --   -0.36604  -0.36567  -0.36455  -0.36380  -0.36119
 Alpha  occ. eigenvalues --   -0.36011  -0.35935  -0.35807  -0.35609  -0.35493
 Alpha  occ. eigenvalues --   -0.35350  -0.35233  -0.34942  -0.34761  -0.34704
 Alpha  occ. eigenvalues --   -0.33742  -0.33382  -0.33376  -0.33002  -0.32982
 Alpha  occ. eigenvalues --   -0.32495  -0.32282  -0.32002  -0.31916  -0.31723
 Alpha  occ. eigenvalues --   -0.31699  -0.31521  -0.30397  -0.29916  -0.29516
 Alpha  occ. eigenvalues --   -0.29134  -0.28494  -0.28489  -0.27086  -0.26750
 Alpha  occ. eigenvalues --   -0.26368  -0.26222  -0.26102  -0.26010  -0.25843
 Alpha  occ. eigenvalues --   -0.25577  -0.25435  -0.24834  -0.21487  -0.20906
 Alpha  occ. eigenvalues --   -0.18807  -0.18747
 Alpha virt. eigenvalues --   -0.11537  -0.11109  -0.05294  -0.05131  -0.04275
 Alpha virt. eigenvalues --   -0.03858  -0.02680  -0.02090   0.00172   0.00244
 Alpha virt. eigenvalues --    0.00469   0.00974   0.01288   0.01346   0.01598

 Mulliken charges:
               1
     1  Mg  11.998549
     2  C    5.975191
     3  C    5.995407
     4  C    6.029620
     5  C    6.013511
     6  N    6.988173
     7  C    6.038911
     8  C    5.985312
     9  C    6.006719
    10  C    5.975315
    11  C    6.004204
    12  C    5.997187
    13  C    6.002410
    14  H    0.995930
    15  N    7.006044
    16  C    5.963747
    17  C    5.976388
    18  C    5.992429
    19  C    5.955159
    20  C    6.004747
    21  C    5.987510
    22  O    7.974929
    23  C    6.005559
    24  N    7.017866
    25  C    5.961534
    26  C    6.007932
    27  C    5.994673
    28  C    6.020913
    29  C    6.001069
    30  C    5.992642
    31  C    5.999395
    32  N    6.996237
    33  C    6.022549
    34  C    6.034959
    35  C    5.998720
    36  C    6.031578
    37  C    5.995946
    38  C    6.015340
    39  O    8.026310
    40  C    6.002816
    41  C    6.001800
    42  O    8.003871
    43  O    8.001688
    44  C    5.999120
    45  H    0.983697
    46  H    0.995708
    47  H    1.013945
    48  H    1.001860
    49  H    0.998873
    50  H    0.999760
    51  H    0.985465
    52  H    1.001582
    53  H    1.005207
    54  H    0.992620
    55  H    1.006928
    56  H    1.002280
    57  H    0.981690
    58  H    0.982813
    59  H    0.984831
    60  H    0.986361
    61  H    0.994343
    62  H    0.994499
    63  H    1.001570
    64  H    1.001205
    65  H    0.987925
    66  H    0.994487
    67  H    1.007438
    68  H    0.995344
    69  H    1.015147
    70  H    1.007185
    71  H    1.004568
    72  H    0.999463
    73  H    1.021997
    74  H    1.017610
    75  H    1.015882
    76  H    1.007624
    77  H    1.005011
    78  H    1.004965
    79  H    1.000206
    80  Mg  12.000121
    81  C    6.000845
    82  C    5.999824
    83  C    5.999263
    84  C    6.000287
    85  N    7.000225
    86  C    5.998725
    87  C    6.000393
    88  C    5.999556
    89  C    6.001259
    90  C    5.999801
    91  C    6.000201
    92  C    6.000103
    93  H    0.999634
    94  N    6.999848
    95  C    6.001262
    96  C    6.001062
    97  C    6.000422
    98  C    6.001334
    99  C    5.999772
   100  C    6.000476
   101  O    8.000876
   102  C    5.999828
   103  N    6.999741
   104  C    6.001341
   105  C    5.999601
   106  C    6.000450
   107  C    5.998851
   108  C    5.999915
   109  C    6.000205
   110  C    6.000010
   111  N    6.999979
   112  C    5.998803
   113  C    5.998729
   114  C    6.000107
   115  C    5.998815
   116  C    6.000007
   117  C    5.999319
   118  O    7.998661
   119  C    5.999885
   120  C    5.999807
   121  O    8.000078
   122  O    7.999819
   123  C    6.000089
   124  H    1.000418
   125  H    1.000233
   126  H    0.999525
   127  H    1.000018
   128  H    0.999902
   129  H    1.000591
   130  H    1.000427
   131  H    1.000084
   132  H    0.999451
   133  H    1.000108
   134  H    0.999734
   135  H    1.000134
   136  H    1.000970
   137  H    1.000793
   138  H    1.000588
   139  H    1.000732
   140  H    1.000469
   141  H    1.000088
   142  H    0.999865
   143  H    1.000064
   144  H    1.000169
   145  H    1.000505
   146  H    0.999897
   147  H    1.000077
   148  H    0.999466
   149  H    0.999900
   150  H    0.999975
   151  H    0.999620
   152  H    0.999071
   153  H    0.999331
   154  H    0.999455
   155  H    0.999497
   156  H    0.999912
   157  H    0.999614
   158  H    0.999991
 Sum of Mulliken charges = 624.00000

 Dipole moment (field-independent basis, Debye):
    X=             10.5915    Y=             -0.0999    Z=             -0.4740  Tot=             10.6025
 Quadrupole moment (field-independent basis, Debye-Ang):
   XX=            257.0196   YY=              2.0205   ZZ=              1.3574
   XY=             -4.4607   XZ=            -19.4852   YZ=              1.8898

 Normal termination of Gaussian 16 at Fri Oct 15 05:41:22 2021.
