 Gaussian 16, Revision A.03,
 Gaussian 16:  ES64L-G16RevA.03 25-Dec-2016

 --------------------------------------------------------
 #p PBE1PBE/Def2SVP td=(nstates=5) density=(transition=1)
 --------------------------------------------------------

 --------------------------------
 TDDFT excited states in gaussian
 --------------------------------
 Symbolic Z-matrix:
 Charge =  0 Multiplicity = 1

                         Standard orientation:
 ---------------------------------------------------------------------
 Center     Atomic      Atomic             Coordinates (Angstroms)
 Number     Number       Type             X           Y           Z
 ---------------------------------------------------------------------
      1         12           0      -29.655501    0.378492   -0.591699
      2          6           0      -29.141235   -2.151662    1.741336
      3          6           0      -29.234072    2.702560    1.810910
      4          6           0      -30.610989    2.726902   -2.827208
      5          6           0      -30.550761   -2.052729   -2.867103
      6          7           0      -29.243542    0.243517    1.581646
      7          6           0      -28.866978   -0.887073    2.260998
      8          6           0      -28.453419   -0.545611    3.641970
      9          6           0      -28.513850    0.982533    3.749170
     10          6           0      -29.010163    1.401535    2.298634
     11          6           0      -29.307570    1.610558    4.884292
     12          6           0      -26.993312   -1.181532    4.002237
     13          6           0      -26.921134   -2.205808    5.158917
     14          1           0      -25.766256   -2.196426    6.130035
     15          7           0      -29.774113    2.430576   -0.558244
     16          6           0      -29.573462    3.236612    0.552291
     17          6           0      -29.814928    4.590233    0.206972
     18          6           0      -30.227032    4.631215   -1.152620
     19          6           0      -30.197907    3.227526   -1.576222
     20          6           0      -29.481817    5.705848    1.273218
     21          6           0      -30.667690    5.886742   -1.903182
     22          8           0      -31.101563    5.913699   -3.064836
     23          6           0      -30.511906    7.199962   -1.271747
     24          7           0      -30.706671    0.397465   -2.503358
     25          6           0      -30.878958    1.456115   -3.267573
     26          6           0      -31.604626    1.080146   -4.579128
     27          6           0      -31.080625   -0.405959   -4.687502
     28          6           0      -30.719548   -0.728158   -3.240898
     29          6           0      -33.175128    1.121082   -4.669205
     30          6           0      -29.850211   -0.673320   -5.680491
     31          6           0      -28.586775    0.043472   -5.431478
     32          7           0      -29.889749   -1.756467   -0.642571
     33          6           0      -30.260007   -2.634432   -1.680108
     34          6           0      -30.226757   -3.978051   -1.197040
     35          6           0      -29.867529   -3.859047    0.130749
     36          6           0      -29.568030   -2.481724    0.391298
     37          6           0      -30.751709   -5.149419   -1.871587
     38          6           0      -29.461841   -4.588589    1.238271
     39          8           0      -29.430147   -5.804278    1.455375
     40          6           0      -29.061052   -3.552540    2.384978
     41          6           0      -30.129505   -3.675152    3.420561
     42          8           0      -31.330097   -3.509411    3.367191
     43          8           0      -29.493874   -4.067792    4.525944
     44          6           0      -30.345553   -4.240016    5.748186
     45          1           0      -28.858745    3.349924    2.606178
     46          1           0      -30.759207    3.524780   -3.556914
     47          1           0      -30.773046   -2.813656   -3.617845
     48          1           0      -29.208438   -1.005545    4.278340
     49          1           0      -27.498501    1.370419    3.828066
     50          1           0      -30.229350    1.748348    4.320333
     51          1           0      -28.872590    2.506486    5.327601
     52          1           0      -29.554101    1.017556    5.764594
     53          1           0      -26.297096   -0.366267    4.196793
     54          1           0      -26.571832   -1.790102    3.201780
     55          1           0      -26.827654   -3.183684    4.685675
     56          1           0      -27.858211   -2.266685    5.710746
     57          1           0      -30.358119    6.343450    1.388539
     58          1           0      -28.734402    6.231187    0.678542
     59          1           0      -29.256356    5.397087    2.294019
     60          1           0      -31.046396    7.244537   -0.323847
     61          1           0      -31.125459    7.880357   -1.861794
     62          1           0      -29.488839    7.573178   -1.218796
     63          1           0      -31.092198    1.575090   -5.404203
     64          1           0      -31.940487   -0.949626   -5.078139
     65          1           0      -33.709238    0.764189   -3.789426
     66          1           0      -33.370950    0.509599   -5.550760
     67          1           0      -33.524863    2.138976   -4.843499
     68          1           0      -30.072859   -0.426778   -6.718926
     69          1           0      -29.452135   -1.679782   -5.551698
     70          1           0      -28.118692   -0.550152   -4.647483
     71          1           0      -28.618680    1.070487   -5.066444
     72          1           0      -27.850164    0.092151   -6.232763
     73          1           0      -31.819558   -5.111559   -1.652984
     74          1           0      -30.353380   -6.104856   -1.531379
     75          1           0      -30.512485   -5.181277   -2.935099
     76          1           0      -28.046886   -3.692086    2.759425
     77          1           0      -30.100834   -3.377832    6.368956
     78          1           0      -30.119684   -5.195396    6.221283
     79          1           0      -31.427089   -4.199207    5.615874
     80         12           0       30.292811   -0.663368    0.350393
     81          6           0       28.210559    2.226046    0.147397
     82          6           0       28.008344   -2.188338   -1.511773
     83          6           0       32.568436   -3.054116   -0.375800
     84          6           0       32.841996    1.568676    1.454855
     85          7           0       28.354130   -0.108004   -0.440007
     86          6           0       27.627575    1.098591   -0.343776
     87          6           0       26.238959    1.037055   -1.054628
     88          6           0       26.207786   -0.443867   -1.527810
     89          6           0       27.570593   -0.997740   -1.060965
     90          6           0       24.948802   -1.092909   -0.929127
     91          6           0       25.974745    2.054796   -2.246784
     92          6           0       24.898307    3.110286   -2.021516
     93          1           0       23.746089    3.179070   -3.044517
     94          7           0       30.293312   -2.398333   -0.677269
     95          6           0       29.202578   -2.862807   -1.411998
     96          6           0       29.453833   -4.156894   -1.903790
     97          6           0       30.714255   -4.538199   -1.482189
     98          6           0       31.270782   -3.365104   -0.839153
     99          6           0       28.510441   -5.091349   -2.748591
    100          6           0       31.292361   -5.908276   -1.748601
    101          8           0       30.681324   -6.812690   -2.235249
    102          6           0       32.783842   -6.147234   -1.198994
    103          7           0       32.415067   -0.724858    0.441876
    104          6           0       33.106051   -1.859974    0.116125
    105          6           0       34.646355   -1.507075    0.217274
    106          6           0       34.759697   -0.133614    0.899609
    107          6           0       33.242913    0.294287    0.929003
    108          6           0       35.509457   -2.597770    0.785099
    109          6           0       35.534729    0.819108   -0.002110
    110          6           0       36.200845    2.000613    0.651582
    111          7           0       30.451931    1.422480    0.971776
    112          6           0       31.531900    2.149959    1.411839
    113          6           0       31.132222    3.468936    1.744501
    114          6           0       29.780846    3.594710    1.344276
    115          6           0       29.475064    2.329188    0.768665
    116          6           0       31.981814    4.567924    2.243673
    117          6           0       28.584464    4.434935    1.199012
    118          8           0       28.405944    5.597517    1.586381
    119          6           0       27.492362    3.588707    0.438840
    120          6           0       26.415412    3.286865    1.343681
    121          8           0       26.544536    2.417415    2.237749
    122          8           0       25.396012    4.115916    1.044793
    123          6           0       24.078568    3.889931    1.699994
    124          1           0       27.260915   -2.733826   -2.092243
    125          1           0       33.261064   -3.876491   -0.567245
    126          1           0       33.549770    2.264836    1.908967
    127          1           0       25.445401    1.195581   -0.324464
    128          1           0       26.183310   -0.554236   -2.611507
    129          1           0       25.022247   -2.161769   -1.127642
    130          1           0       23.996598   -0.741562   -1.326346
    131          1           0       24.882222   -0.951737    0.150225
    132          1           0       25.550762    1.428921   -3.032063
    133          1           0       26.914432    2.499588   -2.574454
    134          1           0       25.399898    4.077330   -1.971449
    135          1           0       24.408605    2.922487   -1.065342
    136          1           0       29.091441   -5.377083   -3.625696
    137          1           0       27.604508   -4.576007   -3.067289
    138          1           0       28.090250   -5.946753   -2.219670
    139          1           0       32.992162   -7.203080   -1.369291
    140          1           0       32.705213   -5.858813   -0.150520
    141          1           0       33.360038   -5.450117   -1.807299
    142          1           0       34.945356   -1.409828   -0.826990
    143          1           0       35.218390   -0.111173    1.888093
    144          1           0       36.360226   -2.134871    1.284372
    145          1           0       35.817701   -3.206065   -0.065465
    146          1           0       34.980988   -3.305337    1.422916
    147          1           0       34.937449    1.208870   -0.826904
    148          1           0       36.309930    0.306651   -0.571768
    149          1           0       36.213596    1.932837    1.739246
    150          1           0       35.647958    2.894665    0.362615
    151          1           0       37.178549    2.186889    0.207283
    152          1           0       32.831238    4.193046    2.815557
    153          1           0       31.332290    5.171829    2.877793
    154          1           0       32.353982    5.072583    1.351801
    155          1           0       27.166236    4.011731   -0.511326
    156          1           0       23.729471    4.920345    1.781277
    157          1           0       24.140621    3.363766    2.652115
    158          1           0       23.353623    3.466308    1.004123
 ---------------------------------------------------------------------

 SCF Done:  E(RPBE1PBE) =  -4067.35325218     A.U. after   16 cycles

 Excitation energies and oscillator strengths:

 Excited State   1:      Singlet-A      1.8587 eV  667.05 nm  f=0.3367  <S**2>=0.000
     310 -> 316        0.16380
     311 -> 313        0.69245
     311 <- 313       -0.10763
 This state for optimization and/or second-order correction.
 Total Energy, E(TD-HF/TD-DFT) =  -4067.28494602
 Copying the excited state density for this state as the 1-particle RhoCI density.

 Excited State   2:      Singlet-A      1.9626 eV  631.73 nm  f=0.0000  <S**2>=0.000
     312 -> 313        0.70711

 Excited State   3:      Singlet-A      2.0755 eV  597.36 nm  f=0.0000  <S**2>=0.000
     311 -> 314        0.70711

 Excited State   4:      Singlet-A      2.1770 eV  569.52 nm  f=0.1430  <S**2>=0.000
     310 -> 313        0.66024
     311 -> 316       -0.23474

 Excited State   5:      Singlet-A      2.5873 eV  479.20 nm  f=0.0000  <S**2>=0.000
     309 -> 313        0.70711

 The electronic state is 1-A.
 Alpha  occ. eigenvalues --  -46.92748 -46.91953 -19.27175 -19.25700 -19.19948
 Alpha  occ. eigenvalues --  -19.19739 -19.19319 -19.19156 -19.18920 -19.18486
 Alpha  occ. eigenvalues --  -14.41981 -14.41787 -14.41653 -14.41237 -14.39399
 Alpha  occ. eigenvalues --  -14.39107 -14.38629 -14.38258 -10.36524 -10.35621
 Alpha  occ. eigenvalues --  -10.32715 -10.32519 -10.32227 -10.31293 -10.30083
 Alpha  occ. eigenvalues --  -10.29493 -10.29258 -10.29227 -10.28947 -10.28927
 Alpha  occ. eigenvalues --  -10.28514 -10.28456 -10.28383 -10.28028 -10.27986
 Alpha  occ. eigenvalues --  -10.27849 -10.27530 -10.27050 -10.26813 -10.26695
 Alpha  occ. eigenvalues --  -10.26641 -10.26535 -10.26451 -10.26387 -10.26368
 Alpha  occ. eigenvalues --  -10.26189 -10.25943 -10.25878 -10.25827 -10.25823
 Alpha  occ. eigenvalues --  -10.25693 -10.25677 -10.25658 -10.25642 -10.25640
 Alpha  occ. eigenvalues --  -10.25554 -10.25406 -10.25357 -10.25280 -10.25147
 Alpha  occ. eigenvalues --  -10.25085 -10.25051 -10.25044 -10.25036 -10.24925
 Alpha  occ. eigenvalues --  -10.24742 -10.24556 -10.24359 -10.24027 -10.23996
 Alpha  occ. eigenvalues --  -10.23981 -10.23857 -10.23762 -10.23600 -10.23568
 Alpha  occ. eigenvalues --  -10.23455 -10.23448 -10.23418 -10.23391 -10.23277
 Alpha  occ. eigenvalues --  -10.23048 -10.22900 -10.22846 -10.22662 -10.22356
 Alpha  occ. eigenvalues --  -10.22137  -3.14742  -3.14125  -1.87585  -1.87094
 Alpha  occ. eigenvalues --   -1.86981  -1.86941  -1.86479  -1.86375  -1.11794
 Alpha  occ. eigenvalues --   -1.11437  -1.06617  -1.03871  -1.03561  -1.03312
 Alpha  occ. eigenvalues --   -1.02213  -1.02186  -1.00049  -0.98944  -0.98691
 Alpha  occ. eigenvalues --   -0.98075  -0.97883  -0.97495  -0.97333  -0.96391
 Alpha  occ. eigenvalues --   -0.86643  -0.86574  -0.83983  -0.83580  -0.83535
 Alpha  occ. eigenvalues --   -0.83057  -0.82987  -0.82710  -0.82283  -0.81960
 Alpha  occ. eigenvalues --   -0.81657  -0.81176  -0.81037  -0.80844  -0.79064
 Alpha  occ. eigenvalues --   -0.78960  -0.78587  -0.78556  -0.77546  -0.77383
 Alpha  occ. eigenvalues --   -0.76262  -0.76171  -0.75854  -0.75513  -0.75101
 Alpha  occ. eigenvalues --   -0.74527  -0.73098  -0.72103  -0.71993  -0.71727
 Alpha  occ. eigenvalues --   -0.71665  -0.70922  -0.70583  -0.70315  -0.69712
 Alpha  occ. eigenvalues --   -0.69452  -0.67939  -0.67275  -0.66183  -0.66159
 Alpha  occ. eigenvalues --   -0.63794  -0.63558  -0.63492  -0.63042  -0.62236
 Alpha  occ. eigenvalues --   -0.62183  -0.61635  -0.61593  -0.60290  -0.60086
 Alpha  occ. eigenvalues --   -0.60012  -0.59930  -0.59530  -0.59345  -0.59165
 Alpha  occ. eigenvalues --   -0.58505  -0.56864  -0.56637  -0.55028  -0.54661
 Alpha  occ. eigenvalues --   -0.54506  -0.54239  -0.53920  -0.53899  -0.53275
 Alpha  occ. eigenvalues --   -0.53042  -0.52840  -0.52838  -0.52393  -0.51838
 Alpha  occ. eigenvalues --   -0.51056  -0.50951  -0.50576  -0.50270  -0.50116
 Alpha  occ. eigenvalues --   -0.49638  -0.49591  -0.49366  -0.49297  -0.49210
 Alpha  occ. eigenvalues --   -0.48905  -0.48448  -0.47920  -0.47833  -0.47769
 Alpha  occ. eigenvalues --   -0.47466  -0.47456  -0.47299  -0.46947  -0.46756
 Alpha  occ. eigenvalues --   -0.46750  -0.46506  -0.46263  -0.46119  -0.45867
 Alpha  occ. eigenvalues --   -0.45855  -0.45702  -0.45194  -0.45056  -0.45006
 Alpha  occ. eigenvalues --   -0.44828  -0.44501  -0.44435  -0.44366  -0.44336
 Alpha  occ. eigenvalues --   -0.44139  -0.43848  -0.43769  -0.43614  -0.43584
 Alpha  occ. eigenvalues --   -0.43171  -0.43079  -0.42994  -0.42956  -0.42738
 Alpha  occ. eigenvalues --   -0.42706  -0.42219  -0.42012  -0.41995  -0.41790
 Alpha  occ. eigenvalues --   -0.41676  -0.41548  -0.41415  -0.41132  -0.41017
 Alpha  occ. eigenvalues --   -0.40995  -0.40792  -0.40770  -0.40543  -0.40327
 Alpha  occ. eigenvalues --   -0.40093  -0.40056  -0.39919  -0.39579  -0.39512
 Alpha  occ. eigenvalues --   -0.39425  -0.39153  -0.39114  -0.39023  -0.38895
 Alpha  occ. eigenvalues --   -0.38869  -0.38552  -0.38401  -0.38328  -0.38196
 Alpha  occ. eigenvalues --   -0.38132  -0.38061  -0.37911  -0.37776  -0.37676
 Alpha  occ. eigenvalues --   -0.37385  -0.37314  -0.37174  -0.37043  -0.36966
 Alpha  occ. eigenvalues --   -0.36826  -0.36733  -0.36601  -0.36537  -0.36449
 Alpha  occ. eigenvalues --   -0.35968  -0.35811  -0.35597  -0.35542  -0.35205
 Alpha  occ. eigenvalues --   -0.35113  -0.35105  -0.34392  -0.34090  -0.33896
 Alpha  occ. eigenvalues --   -0.33398  -0.33181  -0.33074  -0.33061  -0.32703
 Alpha  occ. eigenvalues --   -0.32631  -0.32217  -0.32055  -0.31780  -0.31388
 Alpha  occ. eigenvalues --   -0.31192  -0.31076  -0.29697  -0.29430  -0.29215
 Alpha  occ. eigenvalues --   -0.29120  -0.28999  -0.28596  -0.27400  -0.27125
 Alpha  occ. eigenvalues --   -0.26191  -0.26162  -0.25811  -0.25787  -0.25744
 Alpha  occ. eigenvalues --   -0.25527  -0.25253  -0.24761  -0.21181  -0.20986
 Alpha  occ. eigenvalues --   -0.19093  -0.18885
 Alpha virt. eigenvalues --   -0.11454  -0.11246  -0.05260  -0.05180  -0.03934
 Alpha virt. eigenvalues --   -0.03726  -0.02143  -0.01691  -0.00619  -0.00527
 Alpha virt. eigenvalues --   -0.00006   0.00549   0.01017   0.01378   0.01910

 Mulliken charges:
               1
     1  Mg  11.996890
     2  C    5.969968
     3  C    5.997261
     4  C    6.029737
     5  C    6.017216
     6  N    6.979268
     7  C    6.032242
     8  C    5.989707
     9  C    6.004423
    10  C    5.977894
    11  C    6.002327
    12  C    5.998456
    13  C    5.999931
    14  H    1.002732
    15  N    7.006020
    16  C    5.967535
    17  C    5.981248
    18  C    5.986928
    19  C    5.966415
    20  C    5.999469
    21  C    5.988026
    22  O    7.972044
    23  C    6.007764
    24  N    7.022734
    25  C    5.962505
    26  C    6.008881
    27  C    5.991112
    28  C    6.019240
    29  C    5.998892
    30  C    5.991141
    31  C    6.000892
    32  N    6.996272
    33  C    6.025670
    34  C    6.029258
    35  C    6.004609
    36  C    6.027546
    37  C    5.997061
    38  C    6.011878
    39  O    8.033287
    40  C    6.001589
    41  C    6.004077
    42  O    8.002085
    43  O    8.001241
    44  C    5.998233
    45  H    0.985606
    46  H    0.999438
    47  H    1.014795
    48  H    0.998469
    49  H    0.996942
    50  H    1.000605
    51  H    0.998315
    52  H    0.987043
    53  H    1.006289
    54  H    0.995021
    55  H    0.994264
    56  H    1.000008
    57  H    0.983925
    58  H    0.986009
    59  H    0.986656
    60  H    0.995265
    61  H    0.987109
    62  H    0.991766
    63  H    1.002199
    64  H    1.004917
    65  H    0.996679
    66  H    0.993977
    67  H    1.006359
    68  H    1.010222
    69  H    0.996845
    70  H    0.993998
    71  H    1.015246
    72  H    1.004680
    73  H    1.019154
    74  H    1.014991
    75  H    1.015015
    76  H    1.006849
    77  H    1.006435
    78  H    1.001401
    79  H    1.001803
    80  Mg  11.999992
    81  C    5.999651
    82  C    6.000099
    83  C    6.000338
    84  C    5.999827
    85  N    6.999746
    86  C    6.000492
    87  C    5.999832
    88  C    6.000214
    89  C    5.999483
    90  C    6.000052
    91  C    5.999958
    92  C    5.999957
    93  H    1.000116
    94  N    7.000037
    95  C    5.999426
    96  C    5.999613
    97  C    5.999820
    98  C    5.999463
    99  C    6.000076
   100  C    5.999858
   101  O    7.999701
   102  C    5.999965
   103  N    7.000064
   104  C    5.999556
   105  C    6.000049
   106  C    5.999893
   107  C    6.000545
   108  C    6.000008
   109  C    5.999886
   110  C    5.999985
   111  N    7.000046
   112  C    6.000556
   113  C    6.000458
   114  C    6.000116
   115  C    6.000445
   116  C    5.999923
   117  C    6.000296
   118  O    8.000506
   119  C    6.000028
   120  C    6.000044
   121  O    8.000088
   122  O    8.000016
   123  C    5.999966
   124  H    0.999772
   125  H    0.999883
   126  H    1.000159
   127  H    1.000024
   128  H    0.999952
   129  H    1.000078
   130  H    0.999817
   131  H    0.999841
   132  H    1.000135
   133  H    0.999967
   134  H    0.999934
   135  H    0.999985
   136  H    0.999745
   137  H    0.999718
   138  H    0.999687
   139  H    0.999803
   140  H    0.999884
   141  H    0.999873
   142  H    1.000002
   143  H    1.000051
   144  H    0.999870
   145  H    1.000066
   146  H    1.000033
   147  H    1.000036
   148  H    1.000197
   149  H    1.000000
   150  H    0.999919
   151  H    1.000091
   152  H    1.000287
   153  H    1.000245
   154  H    1.000353
   155  H    1.000184
   156  H    1.000052
   157  H    1.000050
   158  H    1.000115
 Sum of Mulliken charges = 624.00000

 Dipole moment (field-independent basis, Debye):
    X=             -0.3810    Y=             -9.5915    Z=             -1.8385  Tot=              9.7736
 Quadrupole moment (field-independent basis, Debye-Ang):
   XX=             24.9775   YY=             -6.3611   ZZ=              3.5484
   XY=            297.8852   XZ=             58.3843   YZ=              3.2253

 Normal termination of Gaussian 16 at Thu Oct 14 04:00:33 2021.
