 Gaussian 16, Revision A.03,
 Gaussian 16:  ES64L-G16RevA.03 25-Dec-2016

 ---------------------------------------------------
 #p PBE1PBE/Def2SVP td=(nstates=5) density=(current)
 ---------------------------------------------------

 --------------------------------
 TDDFT excited states in gaussian
 --------------------------------
 Symbolic Z-matrix:
 Charge =  0 Multiplicity = 1

                         Standard orientation:
 ---------------------------------------------------------------------
 Center     Atomic      Atomic             Coordinates (Angstroms)
 Number     Number       Type             X           Y           Z
 ---------------------------------------------------------------------
      1         12           0       -0.772797   -0.008693   -0.552231
      2          6           0        2.796740    0.246665    0.259447
      3          6           0       -0.297677   -3.422794   -0.239414
      4          6           0       -3.933533   -0.232550   -0.192365
      5          6           0       -0.801403    3.577332   -0.325558
      6          7           0        1.125488   -1.422807    0.119761
      7          6           0        2.440902   -1.105807    0.379485
      8          6           0        3.212919   -2.404465    0.815660
      9          6           0        2.297282   -3.561971    0.380924
     10          6           0        0.969578   -2.772081    0.069236
     11          6           0        2.711509   -4.422087   -0.884580
     12          6           0        3.613846   -2.420561    2.330548
     13          6           0        4.975287   -2.993899    2.660051
     14          1           0        5.005861   -4.447325    3.228542
     15          7           0       -1.962984   -1.581080   -0.383828
     16          6           0       -1.629795   -2.908290   -0.378610
     17          6           0       -2.862002   -3.737539   -0.279585
     18          6           0       -3.919935   -2.792261   -0.240988
     19          6           0       -3.287584   -1.475476   -0.228703
     20          6           0       -2.944043   -5.267934   -0.157621
     21          6           0       -5.409902   -3.038797    0.012684
     22          8           0       -5.779692   -4.207040    0.093749
     23          6           0       -6.387411   -2.029535    0.126938
     24          7           0       -2.153251    1.511997   -0.022360
     25          6           0       -3.460536    1.108610   -0.208891
     26          6           0       -4.376290    2.393145   -0.182939
     27          6           0       -3.363614    3.562754    0.088963
     28          6           0       -2.021614    2.849627   -0.203257
     29          6           0       -5.255989    2.618872   -1.443178
     30          6           0       -3.395213    4.290456    1.493163
     31          6           0       -4.476618    5.358963    1.730046
     32          7           0        0.639615    1.657009   -0.177460
     33          6           0        0.478956    3.026128   -0.252809
     34          6           0        1.741840    3.720607   -0.184739
     35          6           0        2.695707    2.651414    0.003262
     36          6           0        2.018574    1.383640    0.065491
     37          6           0        1.885315    5.211124   -0.212122
     38          6           0        4.047144    2.398122    0.235149
     39          8           0        4.976444    3.155038    0.481401
     40          6           0        4.175763    0.877491    0.539861
     41          6           0        5.194143    0.376342   -0.457398
     42          8           0        6.161171   -0.323886   -0.147353
     43          8           0        4.879393    0.630366   -1.852899
     44          6           0        5.690992   -0.175727   -2.763418
     45          1           0       -0.163196   -4.505833   -0.219187
     46          1           0       -5.020902   -0.153933   -0.254773
     47          1           0       -0.961950    4.656704   -0.363789
     48          1           0        4.071613   -2.532441    0.155049
     49          1           0        2.049994   -4.218445    1.215178
     50          1           0        3.053079   -5.370551   -0.470574
     51          1           0        3.561212   -3.977594   -1.401969
     52          1           0        1.941012   -4.540810   -1.646311
     53          1           0        2.994105   -3.061320    2.958325
     54          1           0        3.625890   -1.406130    2.729733
     55          1           0        5.474561   -2.271650    3.305973
     56          1           0        5.547048   -3.032857    1.732319
     57          1           0       -3.774789   -5.641578   -0.756836
     58          1           0       -3.047736   -5.437692    0.914012
     59          1           0       -2.051817   -5.741144   -0.565370
     60          1           0       -6.483327   -1.542598   -0.844046
     61          1           0       -6.225476   -1.324444    0.942304
     62          1           0       -7.246742   -2.616181    0.453545
     63          1           0       -5.087857    2.407461    0.641952
     64          1           0       -3.425967    4.329026   -0.683342
     65          1           0       -4.975866    3.605822   -1.811625
     66          1           0       -6.300831    2.617808   -1.134254
     67          1           0       -4.986618    1.784818   -2.092326
     68          1           0       -2.412027    4.758185    1.554329
     69          1           0       -3.584066    3.578642    2.297022
     70          1           0       -4.942239    5.393678    0.744695
     71          1           0       -4.033331    6.346481    1.865863
     72          1           0       -5.216871    5.154218    2.503105
     73          1           0        1.276035    5.572335    0.615332
     74          1           0        1.436127    5.675302   -1.089931
     75          1           0        2.889084    5.546060    0.049623
     76          1           0        4.603099    0.791825    1.538749
     77          1           0        4.972786   -0.163527   -3.584130
     78          1           0        6.009702   -1.114285   -2.310000
     79          1           0        6.523339    0.457506   -3.070776
 ---------------------------------------------------------------------

 SCF Done:  E(RPBE1PBE) =  -2033.63838279     A.U. after   15 cycles

 Excitation energies and oscillator strengths:

 Excited State   1:      Singlet-A      1.8703 eV  662.91 nm  f=0.3413  <S**2>=0.000
     155 ->158         0.19145
     156 ->157         0.68648
 This state for optimization and/or second-order correction.
 Total Energy, E(TD-HF/TD-DFT) =  -2033.56965071
 Copying the excited state density for this state as the 1-particle RhoCI density.

 Excited State   2:      Singlet-A      2.2322 eV  555.44 nm  f=0.0728  <S**2>=0.000
     154 ->157         0.10198
     155 ->157         0.63199
     156 ->158        -0.29408

 Excited State   3:      Singlet-A      2.7519 eV  450.53 nm  f=0.0024  <S**2>=0.000
     153 ->157        -0.30180
     153 ->159        -0.11372
     154 ->157         0.60458
     156 ->158         0.10697

 Excited State   4:      Singlet-A      2.9365 eV  422.22 nm  f=0.0005  <S**2>=0.000
     153 ->157         0.60411
     154 ->157         0.30553
     156 ->158         0.13564

 Excited State   5:      Singlet-A      3.1590 eV  392.48 nm  f=0.0000  <S**2>=0.000
     152 ->157         0.66463
     152 ->159        -0.16261

 The electronic state is 1-A.
 Alpha  occ. eigenvalues --  -46.94143 -19.24383 -19.20338 -19.18936 -19.18187
 Alpha  occ. eigenvalues --  -14.42085 -14.41642 -14.40330 -14.38915 -10.36465
 Alpha  occ. eigenvalues --  -10.31978 -10.30708 -10.29932 -10.29563 -10.29471
 Alpha  occ. eigenvalues --  -10.29080 -10.28873 -10.28792 -10.28007 -10.27250
 Alpha  occ. eigenvalues --  -10.27155 -10.27136 -10.26683 -10.26666 -10.26653
 Alpha  occ. eigenvalues --  -10.26201 -10.26127 -10.26009 -10.25972 -10.25970
 Alpha  occ. eigenvalues --  -10.25823 -10.25075 -10.25054 -10.24659 -10.24531
 Alpha  occ. eigenvalues --  -10.24438 -10.24415 -10.24105 -10.23961 -10.23756
 Alpha  occ. eigenvalues --  -10.23516 -10.23308 -10.23087  -3.16135  -1.88917
 Alpha  occ. eigenvalues --   -1.88561  -1.88322  -1.08675  -1.05111  -1.03802
 Alpha  occ. eigenvalues --   -1.01187  -0.99571  -0.98011  -0.97902  -0.95846
 Alpha  occ. eigenvalues --   -0.87320  -0.83259  -0.83205  -0.82779  -0.81276
 Alpha  occ. eigenvalues --   -0.81128  -0.80354  -0.79241  -0.78127  -0.77934
 Alpha  occ. eigenvalues --   -0.76841  -0.75537  -0.74242  -0.72522  -0.71675
 Alpha  occ. eigenvalues --   -0.71324  -0.70143  -0.69618  -0.67347  -0.66390
 Alpha  occ. eigenvalues --   -0.63510  -0.63049  -0.62163  -0.61388  -0.60019
 Alpha  occ. eigenvalues --   -0.59843  -0.59481  -0.58613  -0.56409  -0.54890
 Alpha  occ. eigenvalues --   -0.54435  -0.53783  -0.53521  -0.51858  -0.51554
 Alpha  occ. eigenvalues --   -0.51223  -0.50281  -0.49362  -0.48741  -0.48432
 Alpha  occ. eigenvalues --   -0.48306  -0.48125  -0.47857  -0.47476  -0.47125
 Alpha  occ. eigenvalues --   -0.46606  -0.46417  -0.45919  -0.45601  -0.45248
 Alpha  occ. eigenvalues --   -0.44521  -0.44502  -0.44066  -0.43878  -0.43629
 Alpha  occ. eigenvalues --   -0.43310  -0.43043  -0.42855  -0.42639  -0.42413
 Alpha  occ. eigenvalues --   -0.41876  -0.41469  -0.41146  -0.40917  -0.40612
 Alpha  occ. eigenvalues --   -0.40166  -0.39755  -0.39501  -0.39280  -0.39155
 Alpha  occ. eigenvalues --   -0.38944  -0.38735  -0.38488  -0.38056  -0.37417
 Alpha  occ. eigenvalues --   -0.37367  -0.37153  -0.36852  -0.36744  -0.36373
 Alpha  occ. eigenvalues --   -0.36174  -0.35190  -0.35069  -0.34848  -0.34268
 Alpha  occ. eigenvalues --   -0.33810  -0.32888  -0.32566  -0.32171  -0.31356
 Alpha  occ. eigenvalues --   -0.30264  -0.29677  -0.29233  -0.28418  -0.27116
 Alpha  occ. eigenvalues --   -0.26662  -0.26083  -0.25173  -0.24442  -0.21389
 Alpha  occ. eigenvalues --   -0.19116
 Alpha virt. eigenvalues --   -0.11339  -0.06117  -0.04382  -0.02427  -0.02160
 Alpha virt. eigenvalues --    0.00086   0.00132   0.01371   0.02869   0.03784
 Alpha virt. eigenvalues --    0.04677   0.05007   0.05827   0.06118   0.06718

 Mulliken charges:
               1
     1  Mg   0.960703
     2  C   -0.044632
     3  C   -0.058657
     4  C   -0.081762
     5  C   -0.089315
     6  N   -0.327228
     7  C    0.020076
     8  C   -0.011922
     9  C   -0.145353
    10  C    0.020935
    11  C    0.005840
    12  C    0.004206
    13  C   -0.142269
    14  H    0.031583
    15  N   -0.532485
    16  C    0.174621
    17  C   -0.203469
    18  C   -0.055423
    19  C    0.219145
    20  C    0.084847
    21  C    0.016375
    22  O   -0.254894
    23  C    0.007909
    24  N   -0.419609
    25  C    0.064770
    26  C   -0.148715
    27  C   -0.122084
    28  C    0.071990
    29  C    0.026706
    30  C   -0.017583
    31  C   -0.059852
    32  N   -0.456721
    33  C    0.166804
    34  C   -0.155985
    35  C   -0.030558
    36  C    0.187706
    37  C    0.084970
    38  C    0.088504
    39  O   -0.229349
    40  C   -0.136823
    41  C    0.306866
    42  O   -0.262387
    43  O   -0.416220
    44  C    0.124885
    45  H    0.003370
    46  H   -0.010628
    47  H    0.003556
    48  H    0.056069
    49  H    0.056763
    50  H    0.054565
    51  H    0.042558
    52  H    0.057705
    53  H    0.057660
    54  H    0.054383
    55  H    0.062799
    56  H    0.059136
    57  H    0.070196
    58  H    0.070797
    59  H    0.033692
    60  H    0.078268
    61  H    0.066151
    62  H    0.054378
    63  H    0.048756
    64  H    0.036180
    65  H    0.044081
    66  H    0.048341
    67  H    0.051046
    68  H    0.040261
    69  H    0.046512
    70  H    0.025767
    71  H    0.046426
    72  H    0.056245
    73  H    0.040845
    74  H    0.052999
    75  H    0.066789
    76  H    0.075756
    77  H    0.053709
    78  H    0.072073
    79  H    0.056652
 Sum of Mulliken charges =  -0.00000

 Dipole moment (field-independent basis, Debye):
    X=             -4.7935    Y=              0.7395    Z=             -1.8605  Tot=              5.1948
 Quadrupole moment (field-independent basis, Debye-Ang):
   XX=           -289.2388   YY=           -250.9217   ZZ=           -248.8658
   XY=            -46.7459   XZ=             -7.7709   YZ=              1.3461

 Normal termination of Gaussian 16 at Wed Oct 13 18:15:23 2021.
