 Gaussian 16, Revision A.03,
 Gaussian 16:  ES64L-G16RevA.03 25-Dec-2016

 --------------------------------------------------------
 #p PBE1PBE/Def2SVP td=(nstates=5) density=(transition=1)
 --------------------------------------------------------

 --------------------------------
 TDDFT excited states in gaussian
 --------------------------------
 Symbolic Z-matrix:
 Charge =  0 Multiplicity = 1

                         Standard orientation:
 ---------------------------------------------------------------------
 Center     Atomic      Atomic             Coordinates (Angstroms)
 Number     Number       Type             X           Y           Z
 ---------------------------------------------------------------------
      1         12           0       18.596015   -0.126099    0.272633
      2          6           0       15.495707   -1.640766   -0.393753
      3          6           0       19.258935   -0.167578   -3.100935
      4          6           0       21.095151    1.947706    0.904458
      5          6           0       17.673915    0.091170    3.696136
      6          7           0       17.400957   -0.587025   -1.527112
      7          6           0       16.128979   -1.213463   -1.579561
      8          6           0       15.821412   -1.773447   -2.906907
      9          6           0       17.107541   -1.368267   -3.748633
     10          6           0       18.011279   -0.690934   -2.730519
     11          6           0       17.703556   -2.561244   -4.534503
     12          6           0       14.633309   -1.161987   -3.584738
     13          6           0       14.425760    0.347081   -3.387761
     14          1           0       13.849299    1.255672   -4.542466
     15          7           0       20.044971    0.768249   -0.918201
     16          6           0       20.196616    0.513552   -2.231896
     17          6           0       21.411686    1.146019   -2.680843
     18          6           0       22.014339    1.709875   -1.529356
     19          6           0       21.075818    1.473222   -0.420652
     20          6           0       21.901182    1.209255   -4.102694
     21          6           0       23.365558    2.423035   -1.489130
     22          8           0       24.030234    2.564331   -2.496952
     23          6           0       23.994000    3.120119   -0.318974
     24          7           0       19.143341    1.078787    1.973730
     25          6           0       20.282266    1.838693    2.001101
     26          6           0       20.654423    2.260299    3.460635
     27          6           0       19.357514    1.895774    4.244716
     28          6           0       18.689428    0.954330    3.266683
     29          6           0       21.883102    1.541474    4.068379
     30          6           0       18.300935    3.081963    4.447211
     31          6           0       17.730608    3.247131    5.809229
     32          7           0       17.055403   -0.712184    1.444665
     33          6           0       16.933634   -0.718824    2.778961
     34          6           0       15.869332   -1.707102    3.197822
     35          6           0       15.331512   -2.115066    1.935776
     36          6           0       15.987462   -1.372642    0.913422
     37          6           0       15.416281   -2.145646    4.582990
     38          6           0       14.251714   -2.858681    1.353725
     39          8           0       13.363798   -3.512898    1.877319
     40          6           0       14.344315   -2.595593   -0.203482
     41          6           0       13.109052   -1.809758   -0.591694
     42          8           0       12.837674   -0.692699   -0.297548
     43          8           0       12.372146   -2.583044   -1.463315
     44          6           0       11.302239   -1.846737   -2.144106
     45          1           0       19.546636   -0.361610   -4.136144
     46          1           0       22.008364    2.484885    1.165920
     47          1           0       17.531904    0.080693    4.778796
     48          1           0       15.654819   -2.843425   -2.782474
     49          1           0       16.982755   -0.537608   -4.443205
     50          1           0       17.825279   -2.106512   -5.517773
     51          1           0       16.965489   -3.362773   -4.502290
     52          1           0       18.688947   -2.859180   -4.175702
     53          1           0       13.708917   -1.724014   -3.448976
     54          1           0       14.645697   -1.226782   -4.672963
     55          1           0       15.400629    0.722547   -3.074863
     56          1           0       13.788814    0.372907   -2.503429
     57          1           0       22.225264    2.218007   -4.360748
     58          1           0       21.135898    0.821133   -4.774746
     59          1           0       22.763218    0.541832   -4.113448
     60          1           0       23.470449    4.007929    0.034231
     61          1           0       24.896860    3.522451   -0.778647
     62          1           0       24.375693    2.432438    0.436440
     63          1           0       20.866202    3.329416    3.451873
     64          1           0       19.550929    1.392126    5.192185
     65          1           0       21.540512    0.892704    4.874299
     66          1           0       22.704946    2.232405    4.255517
     67          1           0       22.299929    0.874704    3.314394
     68          1           0       17.488711    3.010253    3.724217
     69          1           0       18.867177    3.977472    4.190645
     70          1           0       17.881111    4.246856    6.216133
     71          1           0       18.101243    2.516217    6.528275
     72          1           0       16.647928    3.123969    5.811590
     73          1           0       14.354888   -1.906303    4.648490
     74          1           0       16.106632   -1.715249    5.309484
     75          1           0       15.463431   -3.234488    4.571366
     76          1           0       14.431854   -3.519428   -0.774854
     77          1           0       11.534446   -0.791336   -2.285953
     78          1           0       10.450940   -1.962071   -1.473147
     79          1           0       11.052733   -2.437641   -3.024983
     80         12           0      -18.366196    0.587257    0.106842
     81          6           0      -15.492392   -1.496166   -0.162743
     82          6           0      -20.117084   -2.125949    1.288153
     83          6           0      -20.941743    2.653812    0.228440
     84          6           0      -16.566009    3.186730   -1.602365
     85          7           0      -17.876026   -1.658361    0.469865
     86          6           0      -16.599227   -2.179637    0.368044
     87          6           0      -16.693903   -3.661840    0.868221
     88          6           0      -18.235736   -3.893028    1.311270
     89          6           0      -18.772629   -2.493933    0.992572
     90          6           0      -18.963394   -5.079636    0.645719
     91          6           0      -15.612407   -4.136716    1.924464
     92          6           0      -14.769006   -5.307384    1.510384
     93          1           0      -15.231678   -6.372406    0.551498
     94          7           0      -20.321039    0.321199    0.828152
     95          6           0      -20.828336   -0.866356    1.252601
     96          6           0      -22.128763   -0.567454    1.794911
     97          6           0      -22.428168    0.758528    1.414450
     98          6           0      -21.220058    1.350752    0.753328
     99          6           0      -22.959076   -1.678178    2.459994
    100          6           0      -23.755352    1.448457    1.508040
    101          8           0      -23.935205    2.592962    1.028448
    102          6           0      -24.900864    0.740658    2.131148
    103          7           0      -18.671800    2.643333   -0.678851
    104          6           0      -19.773468    3.257479   -0.420424
    105          6           0      -19.867823    4.814411   -0.861139
    106          6           0      -18.461398    4.955182   -1.463057
    107          6           0      -17.864430    3.584749   -1.255873
    108          6           0      -21.056228    5.004430   -1.873425
    109          6           0      -17.547165    6.085105   -0.871678
    110          6           0      -16.981893    5.845480    0.548453
    111          7           0      -16.539073    0.755734   -0.795508
    112          6           0      -15.983099    1.872197   -1.463355
    113          6           0      -14.592205    1.544090   -1.804653
    114          6           0      -14.358412    0.240055   -1.305961
    115          6           0      -15.566597   -0.186361   -0.657753
    116          6           0      -13.591956    2.492065   -2.531601
    117          6           0      -13.380387   -0.708269   -1.202607
    118          8           0      -12.243109   -0.758357   -1.624839
    119          6           0      -14.004299   -1.887295   -0.404916
    120          6           0      -13.830587   -3.100012   -1.170597
    121          8           0      -14.619348   -3.511976   -2.028685
    122          8           0      -12.540165   -3.604065   -0.969130
    123          6           0      -12.184464   -4.742603   -1.851907
    124          1           0      -20.833328   -2.938792    1.427793
    125          1           0      -21.842075    3.263607    0.127583
    126          1           0      -15.972926    3.943038   -2.120640
    127          1           0      -16.380744   -4.152041   -0.052684
    128          1           0      -18.260907   -4.150094    2.369291
    129          1           0      -19.367568   -5.755835    1.400132
    130          1           0      -18.391362   -5.665970   -0.073173
    131          1           0      -19.778573   -4.608487    0.096532
    132          1           0      -16.095046   -4.367252    2.874411
    133          1           0      -14.929215   -3.294169    2.031812
    134          1           0      -14.717229   -5.967595    2.376875
    135          1           0      -13.801984   -4.922726    1.188272
    136          1           0      -22.349109   -2.539785    2.732397
    137          1           0      -23.753024   -1.996177    1.785474
    138          1           0      -23.371565   -1.208942    3.352596
    139          1           0      -24.596840    0.480186    3.144983
    140          1           0      -25.119836   -0.194412    1.614167
    141          1           0      -25.804530    1.345999    2.072564
    142          1           0      -19.986956    5.465681    0.005097
    143          1           0      -18.534288    5.001521   -2.549871
    144          1           0      -21.178703    4.069376   -2.419958
    145          1           0      -20.767034    5.769496   -2.594804
    146          1           0      -22.030974    5.283228   -1.472290
    147          1           0      -18.029916    7.053727   -0.997475
    148          1           0      -16.702655    6.206356   -1.549338
    149          1           0      -17.604434    5.272233    1.234610
    150          1           0      -16.688227    6.810859    0.962200
    151          1           0      -16.042581    5.316204    0.389018
    152          1           0      -12.629790    2.569744   -2.025234
    153          1           0      -13.991896    3.490682   -2.703773
    154          1           0      -13.220118    1.993000   -3.426813
    155          1           0      -13.381120   -1.897739    0.488706
    156          1           0      -12.078436   -4.408768   -2.883780
    157          1           0      -12.930595   -5.535522   -1.888686
    158          1           0      -11.336468   -5.240437   -1.381312
 ---------------------------------------------------------------------

 SCF Done:  E(RPBE1PBE) =  -4067.36644168     A.U. after   16 cycles

 Excitation energies and oscillator strengths:

 Excited State   1:      Singlet-A      1.8293 eV  677.75 nm  f=0.3760  <S**2>=0.000
     309 -> 315        0.16657
     312 -> 313        0.69529
     312 <- 313       -0.11480
 This state for optimization and/or second-order correction.
 Total Energy, E(TD-HF/TD-DFT) =  -4067.29921436
 Copying the excited state density for this state as the 1-particle RhoCI density.

 Excited State   2:      Singlet-A      1.8677 eV  663.85 nm  f=0.3535  <S**2>=0.000
     310 -> 316        0.18704
     311 -> 314        0.68765

 Excited State   3:      Singlet-A      1.9728 eV  628.47 nm  f=0.0000  <S**2>=0.000
     311 -> 313        0.70710

 Excited State   4:      Singlet-A      1.9783 eV  626.74 nm  f=0.0000  <S**2>=0.000
     312 -> 314        0.70710

 Excited State   5:      Singlet-A      2.2068 eV  561.82 nm  f=0.1033  <S**2>=0.000
     310 -> 314        0.65388
     311 -> 316       -0.25872

 The electronic state is 1-A.
 Alpha  occ. eigenvalues --  -46.93181 -46.91934 -19.25217 -19.24981 -19.20551
 Alpha  occ. eigenvalues --  -19.19576 -19.19327 -19.18676 -19.18398 -19.18111
 Alpha  occ. eigenvalues --  -14.42040 -14.41853 -14.41410 -14.41382 -14.39511
 Alpha  occ. eigenvalues --  -14.39276 -14.39220 -14.39091 -10.36200 -10.35658
 Alpha  occ. eigenvalues --  -10.32104 -10.31866 -10.31701 -10.30662 -10.29411
 Alpha  occ. eigenvalues --  -10.29148 -10.28996 -10.28967 -10.28783 -10.28617
 Alpha  occ. eigenvalues --  -10.28587 -10.28460 -10.28409 -10.28323 -10.28207
 Alpha  occ. eigenvalues --  -10.28147 -10.28057 -10.28050 -10.28038 -10.27557
 Alpha  occ. eigenvalues --  -10.27044 -10.26735 -10.26598 -10.26554 -10.26460
 Alpha  occ. eigenvalues --  -10.26303 -10.26146 -10.26115 -10.26105 -10.26084
 Alpha  occ. eigenvalues --  -10.25975 -10.25954 -10.25908 -10.25901 -10.25758
 Alpha  occ. eigenvalues --  -10.25609 -10.25483 -10.25450 -10.25323 -10.25287
 Alpha  occ. eigenvalues --  -10.25285 -10.25114 -10.25032 -10.24993 -10.24916
 Alpha  occ. eigenvalues --  -10.24864 -10.24691 -10.24539 -10.24417 -10.24197
 Alpha  occ. eigenvalues --  -10.24094 -10.24051 -10.24029 -10.24018 -10.23936
 Alpha  occ. eigenvalues --  -10.23741 -10.23653 -10.23560 -10.23391 -10.23368
 Alpha  occ. eigenvalues --  -10.23317 -10.22887 -10.22866 -10.22772 -10.22756
 Alpha  occ. eigenvalues --  -10.21993  -3.15104  -3.14155  -1.87958  -1.87512
 Alpha  occ. eigenvalues --   -1.87283  -1.86957  -1.86535  -1.86396  -1.11953
 Alpha  occ. eigenvalues --   -1.09142  -1.05092  -1.04669  -1.04295  -1.03739
 Alpha  occ. eigenvalues --   -1.02848  -1.01178  -1.00721  -0.99182  -0.98652
 Alpha  occ. eigenvalues --   -0.98167  -0.97882  -0.97576  -0.97230  -0.96580
 Alpha  occ. eigenvalues --   -0.87505  -0.86849  -0.84110  -0.84045  -0.83711
 Alpha  occ. eigenvalues --   -0.82670  -0.82364  -0.82024  -0.81812  -0.81381
 Alpha  occ. eigenvalues --   -0.81092  -0.80606  -0.80078  -0.79915  -0.78977
 Alpha  occ. eigenvalues --   -0.78538  -0.78431  -0.77678  -0.76962  -0.76822
 Alpha  occ. eigenvalues --   -0.76198  -0.75861  -0.75122  -0.75016  -0.74775
 Alpha  occ. eigenvalues --   -0.74377  -0.72422  -0.72262  -0.71868  -0.71765
 Alpha  occ. eigenvalues --   -0.71099  -0.70765  -0.70320  -0.70080  -0.69476
 Alpha  occ. eigenvalues --   -0.69302  -0.67138  -0.67057  -0.66059  -0.65974
 Alpha  occ. eigenvalues --   -0.64772  -0.63905  -0.63523  -0.63256  -0.63001
 Alpha  occ. eigenvalues --   -0.62247  -0.61494  -0.61205  -0.60264  -0.59776
 Alpha  occ. eigenvalues --   -0.59589  -0.59411  -0.59101  -0.59027  -0.58868
 Alpha  occ. eigenvalues --   -0.58765  -0.56616  -0.56073  -0.54579  -0.54486
 Alpha  occ. eigenvalues --   -0.54104  -0.54045  -0.53490  -0.53368  -0.53246
 Alpha  occ. eigenvalues --   -0.52694  -0.52657  -0.52436  -0.52111  -0.51978
 Alpha  occ. eigenvalues --   -0.51081  -0.50816  -0.50543  -0.50498  -0.49933
 Alpha  occ. eigenvalues --   -0.49850  -0.49631  -0.49419  -0.49163  -0.48651
 Alpha  occ. eigenvalues --   -0.48148  -0.47628  -0.47578  -0.47538  -0.47535
 Alpha  occ. eigenvalues --   -0.47292  -0.47186  -0.46855  -0.46741  -0.46593
 Alpha  occ. eigenvalues --   -0.46580  -0.46228  -0.46092  -0.45908  -0.45807
 Alpha  occ. eigenvalues --   -0.45744  -0.45500  -0.45490  -0.44814  -0.44589
 Alpha  occ. eigenvalues --   -0.44444  -0.44193  -0.44091  -0.43960  -0.43906
 Alpha  occ. eigenvalues --   -0.43824  -0.43748  -0.43506  -0.43491  -0.43391
 Alpha  occ. eigenvalues --   -0.43330  -0.43198  -0.43170  -0.43039  -0.42638
 Alpha  occ. eigenvalues --   -0.42477  -0.42196  -0.42168  -0.41994  -0.41854
 Alpha  occ. eigenvalues --   -0.41776  -0.41571  -0.41425  -0.41417  -0.41308
 Alpha  occ. eigenvalues --   -0.41213  -0.41068  -0.40877  -0.40664  -0.40588
 Alpha  occ. eigenvalues --   -0.40566  -0.40267  -0.40216  -0.39937  -0.39777
 Alpha  occ. eigenvalues --   -0.39456  -0.39449  -0.39135  -0.39097  -0.38809
 Alpha  occ. eigenvalues --   -0.38664  -0.38638  -0.38458  -0.38382  -0.38045
 Alpha  occ. eigenvalues --   -0.38001  -0.37973  -0.37626  -0.37623  -0.37373
 Alpha  occ. eigenvalues --   -0.37341  -0.37188  -0.37137  -0.37010  -0.36971
 Alpha  occ. eigenvalues --   -0.36739  -0.36690  -0.36665  -0.36493  -0.36174
 Alpha  occ. eigenvalues --   -0.36048  -0.36036  -0.35948  -0.35624  -0.35485
 Alpha  occ. eigenvalues --   -0.35236  -0.35011  -0.34763  -0.34644  -0.34043
 Alpha  occ. eigenvalues --   -0.34005  -0.33386  -0.32804  -0.32214  -0.32058
 Alpha  occ. eigenvalues --   -0.31917  -0.31688  -0.31479  -0.31418  -0.31053
 Alpha  occ. eigenvalues --   -0.30707  -0.30549  -0.29867  -0.29377  -0.29116
 Alpha  occ. eigenvalues --   -0.28654  -0.28636  -0.28438  -0.26968  -0.26841
 Alpha  occ. eigenvalues --   -0.26053  -0.25737  -0.25607  -0.25486  -0.25475
 Alpha  occ. eigenvalues --   -0.25218  -0.25165  -0.25104  -0.21194  -0.20695
 Alpha  occ. eigenvalues --   -0.18823  -0.18672
 Alpha virt. eigenvalues --   -0.11206  -0.11044  -0.05286  -0.05250  -0.04018
 Alpha virt. eigenvalues --   -0.03970  -0.02055  -0.01875  -0.01296  -0.00153
 Alpha virt. eigenvalues --    0.00386   0.00921   0.01051   0.01444   0.01495

 Mulliken charges:
               1
     1  Mg  12.001993
     2  C    6.027610
     3  C    5.992262
     4  C    5.978765
     5  C    6.007335
     6  N    7.006605
     7  C    5.960446
     8  C    6.013919
     9  C    5.991527
    10  C    6.028933
    11  C    5.998126
    12  C    6.003513
    13  C    6.005637
    14  H    0.991537
    15  N    6.991939
    16  C    6.039744
    17  C    6.022174
    18  C    6.005486
    19  C    6.042531
    20  C    5.997313
    21  C    6.010667
    22  O    8.018504
    23  C    5.996369
    24  N    6.996263
    25  C    6.032643
    26  C    5.993641
    27  C    6.005436
    28  C    5.976631
    29  C    6.000159
    30  C    6.007190
    31  C    6.000267
    32  N    7.001184
    33  C    5.965758
    34  C    5.961037
    35  C    6.005123
    36  C    5.962752
    37  C    6.000373
    38  C    5.985057
    39  O    7.974936
    40  C    5.998052
    41  C    5.997320
    42  O    7.996274
    43  O    7.997964
    44  C    6.001221
    45  H    1.012264
    46  H    1.007542
    47  H    0.988914
    48  H    0.998690
    49  H    0.998122
    50  H    1.000131
    51  H    1.012249
    52  H    0.998198
    53  H    1.003495
    54  H    0.991437
    55  H    0.990511
    56  H    1.006638
    57  H    1.015852
    58  H    1.017066
    59  H    1.017405
    60  H    1.010475
    61  H    1.010676
    62  H    1.011123
    63  H    0.999624
    64  H    1.000280
    65  H    1.012040
    66  H    1.000095
    67  H    0.995350
    68  H    1.000775
    69  H    0.986125
    70  H    0.994717
    71  H    0.999427
    72  H    1.002947
    73  H    0.981726
    74  H    0.982702
    75  H    0.981380
    76  H    0.990265
    77  H    0.996040
    78  H    0.998624
    79  H    0.994882
    80  Mg  11.999990
    81  C    5.999775
    82  C    6.000399
    83  C    5.999940
    84  C    5.999613
    85  N    6.999996
    86  C    6.000496
    87  C    5.999872
    88  C    6.000305
    89  C    5.999299
    90  C    6.000001
    91  C    5.999974
    92  C    5.999949
    93  H    1.000047
    94  N    7.000236
    95  C    5.999226
    96  C    5.999648
    97  C    5.999678
    98  C    5.999539
    99  C    6.000051
   100  C    5.999739
   101  O    7.999385
   102  C    6.000099
   103  N    6.999778
   104  C    5.999524
   105  C    6.000119
   106  C    5.999864
   107  C    6.000737
   108  C    6.000105
   109  C    5.999935
   110  C    5.999940
   111  N    7.000028
   112  C    6.000801
   113  C    6.000474
   114  C    6.000082
   115  C    6.000463
   116  C    5.999915
   117  C    6.000346
   118  O    8.000726
   119  C    6.000025
   120  C    6.000072
   121  O    8.000102
   122  O    8.000067
   123  C    5.999939
   124  H    0.999881
   125  H    0.999775
   126  H    1.000125
   127  H    0.999948
   128  H    0.999943
   129  H    0.999953
   130  H    0.999822
   131  H    1.000005
   132  H    1.000162
   133  H    0.999959
   134  H    1.000133
   135  H    1.000004
   136  H    0.999700
   137  H    0.999622
   138  H    0.999717
   139  H    0.999864
   140  H    0.999833
   141  H    0.999661
   142  H    0.999959
   143  H    0.999979
   144  H    0.999988
   145  H    0.999732
   146  H    1.000011
   147  H    1.000089
   148  H    0.999937
   149  H    1.000210
   150  H    1.000071
   151  H    0.999915
   152  H    1.000458
   153  H    1.000292
   154  H    1.000336
   155  H    1.000282
   156  H    1.000002
   157  H    1.000065
   158  H    1.000266
 Sum of Mulliken charges = 624.00000

 Dipole moment (field-independent basis, Debye):
    X=              7.9379    Y=              3.5306    Z=             -5.7388  Tot=             10.4119
 Quadrupole moment (field-independent basis, Debye-Ang):
   XX=            278.5579   YY=             -2.1047   ZZ=             -4.1328
   XY=             64.6483   XZ=           -103.9696   YZ=              2.5938

 Normal termination of Gaussian 16 at Wed Oct 13 23:25:18 2021.
