 Gaussian 16, Revision A.03,
 Gaussian 16:  ES64L-G16RevA.03 25-Dec-2016

 --------------------------------------------------------
 #p PBE1PBE/Def2SVP td=(nstates=5) density=(transition=1)
 --------------------------------------------------------

 --------------------------------
 TDDFT excited states in gaussian
 --------------------------------
 Symbolic Z-matrix:
 Charge =  0 Multiplicity = 1

                         Standard orientation:
 ---------------------------------------------------------------------
 Center     Atomic      Atomic             Coordinates (Angstroms)
 Number     Number       Type             X           Y           Z
 ---------------------------------------------------------------------
      1         12           0      -26.468462   -0.529603    0.429320
      2          6           0      -25.046815    2.285919   -1.161792
      3          6           0      -26.545414   -2.146949   -2.443434
      4          6           0      -28.615701   -2.750164    1.889216
      5          6           0      -27.258725    1.756416    3.226603
      6          7           0      -25.898501    0.077975   -1.582242
      7          6           0      -25.141556    1.133905   -1.944640
      8          6           0      -24.597279    0.900347   -3.367590
      9          6           0      -25.039226   -0.476069   -3.749038
     10          6           0      -25.929649   -0.898792   -2.541516
     11          6           0      -25.654831   -0.545240   -5.206271
     12          6           0      -23.078758    1.166275   -3.639136
     13          6           0      -22.227796    0.289217   -4.654341
     14          1           0      -21.287053    1.008041   -5.632458
     15          7           0      -27.233790   -2.342359   -0.144477
     16          6           0      -27.142295   -2.849879   -1.420843
     17          6           0      -27.753585   -4.148497   -1.417797
     18          6           0      -28.429495   -4.376538   -0.156201
     19          6           0      -28.153909   -3.116183    0.568145
     20          6           0      -27.742636   -4.923425   -2.672832
     21          6           0      -29.186840   -5.617917    0.376568
     22          8           0      -29.713939   -5.585388    1.439399
     23          6           0      -29.054400   -6.936880   -0.312599
     24          7           0      -27.795180   -0.443218    2.286483
     25          6           0      -28.436970   -1.577259    2.646859
     26          6           0      -29.157261   -1.431307    4.025394
     27          6           0      -28.704932   -0.013203    4.490032
     28          6           0      -27.881538    0.505283    3.285043
     29          6           0      -30.656146   -1.570175    3.995476
     30          6           0      -27.881917    0.102127    5.820572
     31          6           0      -26.433314   -0.252257    5.813926
     32          7           0      -26.249006    1.559925    1.039863
     33          6           0      -26.560962    2.260314    2.169739
     34          6           0      -25.997746    3.585420    2.080621
     35          6           0      -25.387810    3.681340    0.802155
     36          6           0      -25.612656    2.430602    0.191975
     37          6           0      -26.175102    4.717254    3.030185
     38          6           0      -24.690507    4.533197   -0.118449
     39          8           0      -24.267283    5.681320   -0.048000
     40          6           0      -24.392145    3.655602   -1.415819
     41          6           0      -24.789148    4.350990   -2.707075
     42          8           0      -25.924350    4.623740   -3.001122
     43          8           0      -23.656606    4.564123   -3.476742
     44          6           0      -23.934020    5.264491   -4.731287
     45          1           0      -26.430165   -2.828207   -3.289505
     46          1           0      -29.251774   -3.531834    2.309123
     47          1           0      -27.398013    2.402848    4.095505
     48          1           0      -25.136614    1.702006   -3.872150
     49          1           0      -24.145752   -1.096683   -3.822530
     50          1           0      -25.508613    0.412125   -5.706176
     51          1           0      -26.677231   -0.911588   -5.114004
     52          1           0      -25.081035   -1.215690   -5.846349
     53          1           0      -22.573093    1.080451   -2.677034
     54          1           0      -22.895032    2.197514   -3.941756
     55          1           0      -22.974950   -0.279846   -5.207901
     56          1           0      -21.635244   -0.430308   -4.089177
     57          1           0      -28.699273   -5.444600   -2.701415
     58          1           0      -26.959207   -5.674152   -2.576152
     59          1           0      -27.592745   -4.449741   -3.643158
     60          1           0      -29.896377   -6.920464   -1.003395
     61          1           0      -29.022806   -7.728098    0.437074
     62          1           0      -28.182438   -7.035421   -0.959559
     63          1           0      -28.735949   -2.099952    4.776336
     64          1           0      -29.440826    0.785602    4.576564
     65          1           0      -31.002448   -1.950536    3.033608
     66          1           0      -31.161896   -0.613263    4.127145
     67          1           0      -30.899305   -2.271428    4.793350
     68          1           0      -28.346478   -0.511745    6.592298
     69          1           0      -28.058746    1.096659    6.230753
     70          1           0      -26.223008   -0.924673    4.982000
     71          1           0      -25.981680   -0.794029    6.645254
     72          1           0      -25.912163    0.705001    5.779734
     73          1           0      -27.208328    5.024974    3.188368
     74          1           0      -25.833303    5.600204    2.489539
     75          1           0      -25.651976    4.543208    3.970883
     76          1           0      -23.318410    3.467440   -1.401895
     77          1           0      -23.688941    4.363229   -5.292361
     78          1           0      -23.159314    6.030134   -4.765399
     79          1           0      -24.960910    5.622964   -4.805857
     80         12           0       26.808444    0.541300   -0.112294
     81          6           0       25.145262   -2.510886    0.147588
     82          6           0       24.036891    2.116513    1.199871
     83          6           0       28.594014    3.284392   -0.347850
     84          6           0       29.925872   -1.317159   -0.444425
     85          7           0       24.731712   -0.198886    0.547961
     86          6           0       24.280002   -1.487739    0.597351
     87          6           0       22.867495   -1.538980    1.060963
     88          6           0       22.530390   -0.042048    1.440831
     89          6           0       23.847034    0.733108    1.044094
     90          6           0       21.193187    0.487526    0.864388
     91          6           0       22.656867   -2.496947    2.258614
     92          6           0       21.519247   -3.476389    1.975112
     93          1           0       20.378296   -3.578831    3.031872
     94          7           0       26.356565    2.455310    0.335824
     95          6           0       25.148450    2.945860    0.829122
     96          6           0       25.307468    4.393648    0.874479
     97          6           0       26.642038    4.775806    0.385600
     98          6           0       27.272054    3.468738    0.016917
     99          6           0       24.335349    5.267723    1.493203
    100          6           0       27.148225    6.155747    0.473815
    101          8           0       26.500088    7.095916    0.883611
    102          6           0       28.550923    6.546859    0.163440
    103          7           0       28.883772    0.885657   -0.308239
    104          6           0       29.315247    2.137461   -0.667231
    105          6           0       30.812843    2.128438   -0.890272
    106          6           0       31.240990    0.783859   -0.434179
    107          6           0       29.985515    0.072772   -0.317068
    108          6           0       31.279040    2.559574   -2.340996
    109          6           0       31.886122    0.792741    0.994152
    110          6           0       32.889608   -0.230454    1.265975
    111          7           0       27.462852   -1.503686   -0.178180
    112          6           0       28.714222   -2.100414   -0.380391
    113          6           0       28.528676   -3.491841   -0.649421
    114          6           0       27.177310   -3.720588   -0.418736
    115          6           0       26.555631   -2.463930   -0.087859
    116          6           0       29.627198   -4.417630   -1.022192
    117          6           0       26.186719   -4.719777   -0.348406
    118          8           0       26.268253   -5.913102   -0.536438
    119          6           0       24.854925   -3.998061   -0.044336
    120          6           0       23.884849   -4.313382   -1.104989
    121          8           0       23.768505   -3.707140   -2.183384
    122          8           0       23.228307   -5.482329   -0.795170
    123          6           0       22.143778   -5.959964   -1.637446
    124          1           0       23.104191    2.553994    1.560474
    125          1           0       29.315637    4.102694   -0.411137
    126          1           0       30.881018   -1.830840   -0.572202
    127          1           0       22.291563   -1.670434    0.144494
    128          1           0       22.386453    0.114140    2.509495
    129          1           0       20.665902   -0.435181    0.619137
    130          1           0       21.263258    1.208303    0.049660
    131          1           0       20.630206    0.997860    1.645489
    132          1           0       22.319145   -2.002298    3.169123
    133          1           0       23.610960   -2.999690    2.415862
    134          1           0       22.070758   -4.412356    2.062762
    135          1           0       21.184790   -3.295719    0.954611
    136          1           0       23.493830    4.656603    1.820213
    137          1           0       23.871850    6.006662    0.838879
    138          1           0       24.777370    5.730660    2.376178
    139          1           0       28.666024    6.029627   -0.789113
    140          1           0       29.206751    6.124083    0.924983
    141          1           0       28.644924    7.627027    0.049556
    142          1           0       31.161898    2.919748   -0.227900
    143          1           0       31.818513    0.170451   -1.125847
    144          1           0       30.442737    2.975980   -2.902825
    145          1           0       31.847908    1.804603   -2.884805
    146          1           0       31.918169    3.442095   -2.340883
    147          1           0       31.096114    0.737640    1.743219
    148          1           0       32.385493    1.742740    1.183844
    149          1           0       33.861723    0.140520    0.939400
    150          1           0       32.642480   -1.186333    0.802924
    151          1           0       33.069290   -0.290834    2.339851
    152          1           0       30.340397   -3.934226   -1.689714
    153          1           0       29.285872   -5.359553   -1.451884
    154          1           0       30.172798   -4.553386   -0.088339
    155          1           0       24.340472   -4.406366    0.825665
    156          1           0       22.377233   -6.375788   -2.617647
    157          1           0       21.393728   -5.176380   -1.742856
    158          1           0       21.746667   -6.815079   -1.091729
 ---------------------------------------------------------------------

 SCF Done:  E(RPBE1PBE) =  -4067.33575646     A.U. after   16 cycles

 Excitation energies and oscillator strengths:

 Excited State   1:      Singlet-A      1.8373 eV  674.81 nm  f=0.3478  <S**2>=0.000
     309 -> 315        0.18243
     311 -> 313        0.68985
     311 <- 313       -0.10422
 This state for optimization and/or second-order correction.
 Total Energy, E(TD-HF/TD-DFT) =  -4067.26823580
 Copying the excited state density for this state as the 1-particle RhoCI density.

 Excited State   2:      Singlet-A      1.8572 eV  667.57 nm  f=0.0000  <S**2>=0.000
     312 -> 313        0.70711

 Excited State   3:      Singlet-A      1.8611 eV  666.20 nm  f=0.3762  <S**2>=0.000
     310 -> 316        0.17932
     312 -> 314        0.69124
     312 <- 314       -0.10764

 Excited State   4:      Singlet-A      2.1478 eV  577.25 nm  f=0.0000  <S**2>=0.000
     311 -> 314        0.70711

 Excited State   5:      Singlet-A      2.1921 eV  565.60 nm  f=0.1050  <S**2>=0.000
     310 -> 314        0.65385
     312 -> 316       -0.25418

 The electronic state is 1-A.
 Alpha  occ. eigenvalues --  -46.93393 -46.92324 -19.25523 -19.25459 -19.20263
 Alpha  occ. eigenvalues --  -19.19694 -19.19584 -19.18912 -19.18633 -19.17592
 Alpha  occ. eigenvalues --  -14.41836 -14.41755 -14.41455 -14.41248 -14.39924
 Alpha  occ. eigenvalues --  -14.39136 -14.38858 -14.38516 -10.36141 -10.36093
 Alpha  occ. eigenvalues --  -10.32774 -10.31978 -10.31357 -10.30806 -10.29330
 Alpha  occ. eigenvalues --  -10.29325 -10.29287 -10.29185 -10.28892 -10.28880
 Alpha  occ. eigenvalues --  -10.28724 -10.28711 -10.28551 -10.28523 -10.28405
 Alpha  occ. eigenvalues --  -10.28251 -10.28197 -10.27700 -10.27152 -10.27030
 Alpha  occ. eigenvalues --  -10.26838 -10.26794 -10.26501 -10.26404 -10.26359
 Alpha  occ. eigenvalues --  -10.26264 -10.26203 -10.26160 -10.26142 -10.26072
 Alpha  occ. eigenvalues --  -10.26029 -10.25822 -10.25753 -10.25685 -10.25590
 Alpha  occ. eigenvalues --  -10.25497 -10.25454 -10.25453 -10.25297 -10.25238
 Alpha  occ. eigenvalues --  -10.25140 -10.25081 -10.25053 -10.24932 -10.24792
 Alpha  occ. eigenvalues --  -10.24765 -10.24413 -10.24403 -10.24338 -10.24292
 Alpha  occ. eigenvalues --  -10.24105 -10.24007 -10.23979 -10.23947 -10.23835
 Alpha  occ. eigenvalues --  -10.23789 -10.23778 -10.23699 -10.22989 -10.22855
 Alpha  occ. eigenvalues --  -10.22680 -10.22565 -10.22517 -10.22476 -10.22375
 Alpha  occ. eigenvalues --  -10.22257  -3.15287  -3.14396  -1.88097  -1.87668
 Alpha  occ. eigenvalues --   -1.87499  -1.87240  -1.86779  -1.86609  -1.11084
 Alpha  occ. eigenvalues --   -1.10209  -1.07588  -1.04853  -1.04574  -1.04001
 Alpha  occ. eigenvalues --   -1.03402  -1.01501  -0.99597  -0.98829  -0.98475
 Alpha  occ. eigenvalues --   -0.97785  -0.97636  -0.97129  -0.96480  -0.96172
 Alpha  occ. eigenvalues --   -0.87028  -0.85986  -0.85115  -0.83860  -0.83556
 Alpha  occ. eigenvalues --   -0.83384  -0.83151  -0.82551  -0.82058  -0.81695
 Alpha  occ. eigenvalues --   -0.81610  -0.81422  -0.80558  -0.80454  -0.79532
 Alpha  occ. eigenvalues --   -0.78870  -0.78270  -0.77956  -0.77746  -0.76806
 Alpha  occ. eigenvalues --   -0.76665  -0.76240  -0.75740  -0.75166  -0.75162
 Alpha  occ. eigenvalues --   -0.74766  -0.73019  -0.72586  -0.72291  -0.71442
 Alpha  occ. eigenvalues --   -0.71418  -0.71402  -0.70629  -0.70203  -0.69746
 Alpha  occ. eigenvalues --   -0.69026  -0.67875  -0.66803  -0.66495  -0.65876
 Alpha  occ. eigenvalues --   -0.64102  -0.63807  -0.63643  -0.63480  -0.62705
 Alpha  occ. eigenvalues --   -0.62354  -0.61871  -0.61328  -0.60938  -0.60420
 Alpha  occ. eigenvalues --   -0.59816  -0.59489  -0.59281  -0.58778  -0.58644
 Alpha  occ. eigenvalues --   -0.58514  -0.56622  -0.56273  -0.55304  -0.54533
 Alpha  occ. eigenvalues --   -0.54095  -0.54081  -0.54017  -0.53641  -0.53388
 Alpha  occ. eigenvalues --   -0.52939  -0.52557  -0.52545  -0.51945  -0.51859
 Alpha  occ. eigenvalues --   -0.50995  -0.50614  -0.50422  -0.50396  -0.50045
 Alpha  occ. eigenvalues --   -0.49916  -0.49743  -0.49610  -0.49174  -0.49028
 Alpha  occ. eigenvalues --   -0.48830  -0.48633  -0.48163  -0.47911  -0.47749
 Alpha  occ. eigenvalues --   -0.47469  -0.47417  -0.47101  -0.46959  -0.46773
 Alpha  occ. eigenvalues --   -0.46490  -0.46379  -0.46342  -0.46283  -0.45975
 Alpha  occ. eigenvalues --   -0.45822  -0.45729  -0.45498  -0.45373  -0.45175
 Alpha  occ. eigenvalues --   -0.45019  -0.44850  -0.44657  -0.44654  -0.44199
 Alpha  occ. eigenvalues --   -0.44141  -0.44108  -0.43871  -0.43781  -0.43634
 Alpha  occ. eigenvalues --   -0.43489  -0.43387  -0.43237  -0.43229  -0.43110
 Alpha  occ. eigenvalues --   -0.42931  -0.42321  -0.42304  -0.41908  -0.41848
 Alpha  occ. eigenvalues --   -0.41842  -0.41729  -0.41502  -0.41474  -0.41279
 Alpha  occ. eigenvalues --   -0.41031  -0.40888  -0.40775  -0.40505  -0.40503
 Alpha  occ. eigenvalues --   -0.40285  -0.40181  -0.40088  -0.39755  -0.39364
 Alpha  occ. eigenvalues --   -0.39334  -0.39326  -0.39249  -0.39053  -0.38880
 Alpha  occ. eigenvalues --   -0.38869  -0.38526  -0.38508  -0.38394  -0.38225
 Alpha  occ. eigenvalues --   -0.38108  -0.38098  -0.37894  -0.37821  -0.37817
 Alpha  occ. eigenvalues --   -0.37698  -0.37484  -0.37421  -0.37207  -0.36963
 Alpha  occ. eigenvalues --   -0.36906  -0.36729  -0.36615  -0.36428  -0.36369
 Alpha  occ. eigenvalues --   -0.36151  -0.36061  -0.35760  -0.35591  -0.35494
 Alpha  occ. eigenvalues --   -0.35154  -0.35006  -0.34090  -0.34088  -0.33904
 Alpha  occ. eigenvalues --   -0.33529  -0.33061  -0.32847  -0.32684  -0.32385
 Alpha  occ. eigenvalues --   -0.32319  -0.32026  -0.31975  -0.31401  -0.31248
 Alpha  occ. eigenvalues --   -0.30883  -0.30785  -0.29540  -0.29534  -0.28927
 Alpha  occ. eigenvalues --   -0.28812  -0.28678  -0.28231  -0.27035  -0.26537
 Alpha  occ. eigenvalues --   -0.26455  -0.25700  -0.25599  -0.25491  -0.25395
 Alpha  occ. eigenvalues --   -0.25057  -0.25025  -0.24330  -0.21266  -0.20764
 Alpha  occ. eigenvalues --   -0.19227  -0.18690
 Alpha virt. eigenvalues --   -0.11618  -0.11088  -0.05972  -0.05093  -0.03951
 Alpha virt. eigenvalues --   -0.03780  -0.02052  -0.01954  -0.01656  -0.00195
 Alpha virt. eigenvalues --   -0.00054   0.00320   0.00738   0.00963   0.01218

 Mulliken charges:
               1
     1  Mg  12.000027
     2  C    5.999777
     3  C    6.000055
     4  C    6.000192
     5  C    5.999945
     6  N    6.999840
     7  C    6.000280
     8  C    5.999915
     9  C    6.000120
    10  C    5.999733
    11  C    6.000007
    12  C    6.000000
    13  C    6.000018
    14  H    1.000002
    15  N    6.999988
    16  C    5.999701
    17  C    5.999866
    18  C    5.999809
    19  C    5.999765
    20  C    6.000061
    21  C    5.999855
    22  O    7.999790
    23  C    6.000047
    24  N    6.999971
    25  C    5.999726
    26  C    6.000116
    27  C    5.999964
    28  C    6.000278
    29  C    6.000004
    30  C    5.999962
    31  C    5.999939
    32  N    6.999962
    33  C    6.000339
    34  C    6.000255
    35  C    6.000067
    36  C    6.000356
    37  C    5.999975
    38  C    6.000148
    39  O    8.000260
    40  C    6.000015
    41  C    6.000047
    42  O    8.000022
    43  O    8.000006
    44  C    6.000002
    45  H    0.999894
    46  H    0.999931
    47  H    1.000116
    48  H    0.999989
    49  H    0.999951
    50  H    0.999913
    51  H    1.000019
    52  H    0.999965
    53  H    0.999989
    54  H    0.999983
    55  H    1.000040
    56  H    1.000009
    57  H    0.999835
    58  H    0.999806
    59  H    0.999828
    60  H    0.999916
    61  H    0.999869
    62  H    0.999960
    63  H    0.999978
    64  H    0.999995
    65  H    1.000053
    66  H    0.999930
    67  H    0.999981
    68  H    1.000086
    69  H    0.999997
    70  H    1.000074
    71  H    1.000058
    72  H    0.999960
    73  H    1.000195
    74  H    1.000130
    75  H    1.000187
    76  H    1.000069
    77  H    1.000035
    78  H    1.000041
    79  H    1.000016
    80  Mg  11.998542
    81  C    5.986384
    82  C    6.013248
    83  C    6.016814
    84  C    5.984807
    85  N    6.995583
    86  C    6.030121
    87  C    5.987545
    88  C    6.007458
    89  C    5.973446
    90  C    6.002665
    91  C    5.999047
    92  C    5.998860
    93  H    1.007368
    94  N    7.008481
    95  C    5.959266
    96  C    5.977970
    97  C    5.989018
    98  C    5.964276
    99  C    6.009435
   100  C    5.992984
   101  O    7.982521
   102  C    6.000427
   103  N    6.993977
   104  C    5.968053
   105  C    6.007235
   106  C    5.993181
   107  C    6.034969
   108  C    6.000779
   109  C    5.993773
   110  C    5.999033
   111  N    6.998155
   112  C    6.038744
   113  C    6.024594
   114  C    6.003357
   115  C    6.029886
   116  C    5.999448
   117  C    6.018289
   118  O    8.030584
   119  C    5.997338
   120  C    6.004709
   121  O    8.008288
   122  O    7.999786
   123  C    5.996802
   124  H    0.990553
   125  H    0.989417
   126  H    1.008738
   127  H    1.003225
   128  H    0.999495
   129  H    0.989015
   130  H    1.002529
   131  H    1.000275
   132  H    1.007046
   133  H    0.993342
   134  H    0.995924
   135  H    1.000450
   136  H    0.981739
   137  H    0.979262
   138  H    0.981112
   139  H    0.994319
   140  H    0.990148
   141  H    0.988584
   142  H    1.000882
   143  H    0.997489
   144  H    1.002421
   145  H    0.988340
   146  H    0.998407
   147  H    1.004887
   148  H    1.013303
   149  H    1.004961
   150  H    0.994351
   151  H    1.003429
   152  H    1.017385
   153  H    1.012561
   154  H    1.017322
   155  H    1.009234
   156  H    1.002796
   157  H    1.006034
   158  H    1.003775
 Sum of Mulliken charges = 624.00000

 Dipole moment (field-independent basis, Debye):
    X=              2.1045    Y=             -9.7102    Z=             -1.0516  Tot=              9.9911
 Quadrupole moment (field-independent basis, Debye-Ang):
   XX=            113.2819   YY=             -8.1043   ZZ=             -0.4195
   XY=           -262.9700   XZ=            -27.3745   YZ=             -0.5863

 Normal termination of Gaussian 16 at Thu Oct 14 09:12:48 2021.
