 Gaussian 16, Revision A.03,
 Gaussian 16:  ES64L-G16RevA.03 25-Dec-2016

 --------------------------------------------------------
 #p PBE1PBE/Def2SVP td=(nstates=5) density=(transition=1)
 --------------------------------------------------------

 --------------------------------
 TDDFT excited states in gaussian
 --------------------------------
 Symbolic Z-matrix:
 Charge =  0 Multiplicity = 1

                         Standard orientation:
 ---------------------------------------------------------------------
 Center     Atomic      Atomic             Coordinates (Angstroms)
 Number     Number       Type             X           Y           Z
 ---------------------------------------------------------------------
      1         12           0      -28.457311    0.437548    0.373647
      2          6           0      -26.692686   -2.064221   -1.442757
      3          6           0      -28.226793    2.480317   -2.382534
      4          6           0      -30.046851    2.658909    2.233163
      5          6           0      -28.181513   -1.597140    3.323784
      6          7           0      -27.475484    0.262499   -1.728786
      7          6           0      -26.924575   -0.910775   -2.210701
      8          6           0      -26.553271   -0.633589   -3.707821
      9          6           0      -27.019551    0.887750   -4.016202
     10          6           0      -27.588106    1.232008   -2.635796
     11          6           0      -25.932799    1.832490   -4.570206
     12          6           0      -27.016130   -1.708322   -4.776232
     13          6           0      -25.918684   -2.333798   -5.587183
     14          1           0      -24.615846   -1.646420   -5.900111
     15          7           0      -29.195438    2.350365   -0.083280
     16          6           0      -28.980173    2.996030   -1.259959
     17          6           0      -29.779813    4.192702   -1.204216
     18          6           0      -30.223250    4.318384    0.130021
     19          6           0      -29.819343    3.088523    0.886090
     20          6           0      -29.852416    5.127258   -2.423558
     21          6           0      -30.865649    5.516753    0.760428
     22          8           0      -31.111607    5.559137    1.989231
     23          6           0      -31.166584    6.705026   -0.075568
     24          7           0      -28.959562    0.490731    2.537688
     25          6           0      -29.665062    1.465690    2.995245
     26          6           0      -30.153420    1.359236    4.537109
     27          6           0      -29.526234   -0.003148    4.869825
     28          6           0      -28.871953   -0.402531    3.569906
     29          6           0      -29.588803    2.578626    5.354076
     30          6           0      -30.493826   -1.117788    5.402384
     31          6           0      -31.460278   -1.746079    4.370421
     32          7           0      -27.534910   -1.321157    0.860610
     33          6           0      -27.502898   -1.985889    2.109098
     34          6           0      -26.841081   -3.282505    1.910321
     35          6           0      -26.517053   -3.355669    0.534271
     36          6           0      -26.999735   -2.149535   -0.077263
     37          6           0      -26.604703   -4.355635    3.014912
     38          6           0      -25.949183   -4.186001   -0.390179
     39          8           0      -25.407055   -5.268025   -0.292660
     40          6           0      -26.064969   -3.454704   -1.756735
     41          6           0      -24.750367   -3.387205   -2.352041
     42          8           0      -23.930822   -2.483483   -2.152522
     43          8           0      -24.458299   -4.599288   -2.988750
     44          6           0      -23.060223   -4.713493   -3.472925
     45          1           0      -28.007840    3.297417   -3.073640
     46          1           0      -30.422843    3.463033    2.869271
     47          1           0      -28.073811   -2.255896    4.187960
     48          1           0      -25.479606   -0.799852   -3.630166
     49          1           0      -27.761917    0.871418   -4.812916
     50          1           0      -26.252166    2.275273   -5.514497
     51          1           0      -24.937247    1.410175   -4.705627
     52          1           0      -25.849817    2.607087   -3.807828
     53          1           0      -27.749529   -1.269467   -5.453003
     54          1           0      -27.460738   -2.515845   -4.194517
     55          1           0      -26.273502   -2.351360   -6.618281
     56          1           0      -25.718879   -3.320448   -5.170709
     57          1           0      -29.524915    4.634132   -3.339090
     58          1           0      -29.236567    6.008252   -2.247395
     59          1           0      -30.905702    5.396711   -2.494634
     60          1           0      -31.822725    6.367968   -0.878069
     61          1           0      -30.265009    7.099493   -0.545813
     62          1           0      -31.575714    7.509923    0.533722
     63          1           0      -31.240526    1.314252    4.607009
     64          1           0      -28.660496    0.143513    5.516056
     65          1           0      -28.648734    2.880176    4.892165
     66          1           0      -29.361463    2.233442    6.363288
     67          1           0      -30.213283    3.467823    5.444189
     68          1           0      -30.982209   -0.777098    6.314806
     69          1           0      -29.874785   -1.917561    5.807689
     70          1           0      -31.810263   -1.098254    3.567418
     71          1           0      -32.281762   -2.210954    4.916714
     72          1           0      -30.906217   -2.581092    3.941900
     73          1           0      -26.927020   -5.353928    2.718722
     74          1           0      -27.058802   -4.097585    3.970963
     75          1           0      -25.539051   -4.580358    3.066107
     76          1           0      -26.710052   -4.134737   -2.312112
     77          1           0      -22.369242   -4.790315   -2.633822
     78          1           0      -22.710047   -3.856639   -4.047351
     79          1           0      -23.058867   -5.510548   -4.216630
     80         12           0       28.382562    0.510808   -0.233076
     81          6           0       26.097451   -2.149785    0.117076
     82          6           0       25.770537    2.449114   -1.048513
     83          6           0       30.504830    2.987767   -0.029932
     84          6           0       30.772322   -1.631054    1.339166
     85          7           0       26.178528    0.169562   -0.391318
     86          6           0       25.455947   -0.971514   -0.293528
     87          6           0       23.985064   -0.789301   -0.608645
     88          6           0       24.017076    0.659020   -1.242894
     89          6           0       25.394279    1.177090   -0.883529
     90          6           0       23.756985    0.709525   -2.804989
     91          6           0       22.864341   -0.919471    0.512928
     92          6           0       23.220255   -0.890240    2.023087
     93          1           0       22.181913   -0.241953    3.013207
     94          7           0       28.139025    2.468134   -0.651399
     95          6           0       26.995309    3.106204   -0.860679
     96          6           0       27.265161    4.568043   -0.933979
     97          6           0       28.742760    4.699928   -0.790938
     98          6           0       29.179823    3.342669   -0.462682
     99          6           0       26.232215    5.598457   -1.302983
    100          6           0       29.520460    5.989072   -0.839251
    101          8           0       28.919742    7.030517   -1.091917
    102          6           0       31.055114    6.141413   -0.528189
    103          7           0       30.403456    0.704856    0.674363
    104          6           0       31.013271    1.810003    0.417658
    105          6           0       32.526710    1.638968    0.886044
    106          6           0       32.471510    0.250746    1.527110
    107          6           0       31.096786   -0.286064    1.177975
    108          6           0       33.653538    1.797376   -0.148332
    109          6           0       32.517012    0.280219    3.141969
    110          6           0       33.770702   -0.320113    3.804176
    111          7           0       28.475685   -1.428315    0.630301
    112          6           0       29.506781   -2.196025    1.103574
    113          6           0       29.088944   -3.616819    1.225265
    114          6           0       27.689506   -3.641706    0.965159
    115          6           0       27.429533   -2.279838    0.501847
    116          6           0       29.933149   -4.795374    1.759534
    117          6           0       26.489193   -4.407919    0.916265
    118          8           0       26.173622   -5.551252    1.287913
    119          6           0       25.406922   -3.493797    0.287539
    120          6           0       24.917265   -4.196297   -0.982124
    121          8           0       23.902285   -4.782310   -1.250512
    122          8           0       25.816547   -3.890347   -2.009355
    123          6           0       25.486433   -4.371959   -3.386643
    124          1           0       24.900501    3.058247   -1.303126
    125          1           0       31.186647    3.841562   -0.017131
    126          1           0       31.579972   -2.328485    1.569436
    127          1           0       23.789249   -1.495739   -1.415104
    128          1           0       23.230610    1.265016   -0.792834
    129          1           0       23.648640   -0.294314   -3.214313
    130          1           0       24.721971    1.057468   -3.171922
    131          1           0       22.912191    1.365694   -3.015236
    132          1           0       22.322792   -1.842772    0.306752
    133          1           0       22.117509   -0.140807    0.354263
    134          1           0       24.153212   -0.330804    2.092195
    135          1           0       23.259760   -1.876133    2.485267
    136          1           0       26.662730    6.564197   -1.566920
    137          1           0       25.502471    5.602771   -0.492451
    138          1           0       25.690689    5.133429   -2.127413
    139          1           0       31.796658    5.520292   -1.032018
    140          1           0       31.211775    5.884793    0.519530
    141          1           0       31.411581    7.154425   -0.712613
    142          1           0       32.807206    2.402106    1.611236
    143          1           0       33.241372   -0.478311    1.271959
    144          1           0       33.265691    2.046854   -1.136103
    145          1           0       34.292607    0.914579   -0.186859
    146          1           0       34.328367    2.625534    0.068164
    147          1           0       31.687306   -0.273790    3.578881
    148          1           0       32.412046    1.330412    3.415181
    149          1           0       33.607579   -0.802629    4.768170
    150          1           0       34.422756    0.530980    4.000366
    151          1           0       34.123280   -1.038165    3.063677
    152          1           0       30.854212   -4.510812    2.267172
    153          1           0       30.186189   -5.363111    0.864468
    154          1           0       29.284259   -5.431534    2.360978
    155          1           0       24.578122   -3.383578    0.986074
    156          1           0       24.917185   -5.295065   -3.493669
    157          1           0       26.465797   -4.589370   -3.812468
    158          1           0       25.039669   -3.669368   -4.090407
 ---------------------------------------------------------------------

 SCF Done:  E(RPBE1PBE) =  -4067.35968807     A.U. after   16 cycles

 Excitation energies and oscillator strengths:

 Excited State   1:      Singlet-A      1.8677 eV  663.84 nm  f=0.3612  <S**2>=0.000
     310 -> 316       -0.18706
     312 -> 314        0.68778
 This state for optimization and/or second-order correction.
 Total Energy, E(TD-HF/TD-DFT) =  -4067.29105164
 Copying the excited state density for this state as the 1-particle RhoCI density.

 Excited State   2:      Singlet-A      1.9112 eV  648.73 nm  f=0.3987  <S**2>=0.000
     309 -> 315        0.17700
     311 -> 313        0.69114
     311 <- 313       -0.10568

 Excited State   3:      Singlet-A      1.9527 eV  634.94 nm  f=0.0000  <S**2>=0.000
     312 -> 313        0.70711

 Excited State   4:      Singlet-A      2.1474 eV  577.37 nm  f=0.0000  <S**2>=0.000
     311 -> 314        0.70711

 Excited State   5:      Singlet-A      2.2069 eV  561.81 nm  f=0.1035  <S**2>=0.000
     310 -> 314        0.65388
     312 -> 316        0.25872

 The electronic state is 1-A.
 Alpha  occ. eigenvalues --  -46.93451 -46.93191 -19.25204 -19.24996 -19.20569
 Alpha  occ. eigenvalues --  -19.19589 -19.19516 -19.18964 -19.18685 -19.18124
 Alpha  occ. eigenvalues --  -14.42050 -14.41822 -14.41421 -14.41297 -14.40004
 Alpha  occ. eigenvalues --  -14.39876 -14.39522 -14.39287 -10.36846 -10.35671
 Alpha  occ. eigenvalues --  -10.32911 -10.32657 -10.31875 -10.30675 -10.29422
 Alpha  occ. eigenvalues --  -10.29159 -10.29102 -10.29055 -10.29008 -10.28793
 Alpha  occ. eigenvalues --  -10.28723 -10.28671 -10.28544 -10.28498 -10.28218
 Alpha  occ. eigenvalues --  -10.28158 -10.28072 -10.28061 -10.27933 -10.27792
 Alpha  occ. eigenvalues --  -10.27625 -10.27621 -10.26849 -10.26746 -10.26735
 Alpha  occ. eigenvalues --  -10.26608 -10.26587 -10.26563 -10.26477 -10.26157
 Alpha  occ. eigenvalues --  -10.26116 -10.25985 -10.25965 -10.25885 -10.25746
 Alpha  occ. eigenvalues --  -10.25581 -10.25496 -10.25465 -10.25463 -10.25299
 Alpha  occ. eigenvalues --  -10.25295 -10.25217 -10.25135 -10.25123 -10.25003
 Alpha  occ. eigenvalues --  -10.24934 -10.24926 -10.24875 -10.24771 -10.24549
 Alpha  occ. eigenvalues --  -10.24451 -10.24375 -10.24210 -10.24135 -10.24029
 Alpha  occ. eigenvalues --  -10.24028 -10.23989 -10.23749 -10.23670 -10.23665
 Alpha  occ. eigenvalues --  -10.23402 -10.23376 -10.23328 -10.23205 -10.23007
 Alpha  occ. eigenvalues --  -10.22005  -3.15511  -3.15115  -1.88339  -1.87969
 Alpha  occ. eigenvalues --   -1.87883  -1.87737  -1.87523  -1.87294  -1.10746
 Alpha  occ. eigenvalues --   -1.09156  -1.04446  -1.04308  -1.03879  -1.02857
 Alpha  occ. eigenvalues --   -1.02054  -1.01394  -1.01192  -1.00732  -0.99422
 Alpha  occ. eigenvalues --   -0.98697  -0.98178  -0.98023  -0.97586  -0.96591
 Alpha  occ. eigenvalues --   -0.87840  -0.86861  -0.84165  -0.84055  -0.83175
 Alpha  occ. eigenvalues --   -0.82867  -0.82622  -0.82375  -0.82036  -0.81391
 Alpha  occ. eigenvalues --   -0.81103  -0.81100  -0.79926  -0.79886  -0.79185
 Alpha  occ. eigenvalues --   -0.78550  -0.78187  -0.77689  -0.77166  -0.76834
 Alpha  occ. eigenvalues --   -0.76208  -0.76019  -0.75108  -0.75027  -0.74778
 Alpha  occ. eigenvalues --   -0.74388  -0.72829  -0.72432  -0.71978  -0.71879
 Alpha  occ. eigenvalues --   -0.71327  -0.70937  -0.70777  -0.70093  -0.69782
 Alpha  occ. eigenvalues --   -0.69312  -0.67734  -0.67068  -0.66880  -0.65985
 Alpha  occ. eigenvalues --   -0.64782  -0.64005  -0.63576  -0.63534  -0.63060
 Alpha  occ. eigenvalues --   -0.62259  -0.62064  -0.61306  -0.61216  -0.60159
 Alpha  occ. eigenvalues --   -0.59991  -0.59787  -0.59422  -0.59406  -0.59113
 Alpha  occ. eigenvalues --   -0.58777  -0.57655  -0.56086  -0.55124  -0.54885
 Alpha  occ. eigenvalues --   -0.54590  -0.54115  -0.54040  -0.53257  -0.53174
 Alpha  occ. eigenvalues --   -0.52735  -0.52705  -0.52448  -0.52122  -0.51662
 Alpha  occ. eigenvalues --   -0.51016  -0.50826  -0.50555  -0.50406  -0.50135
 Alpha  occ. eigenvalues --   -0.49862  -0.49600  -0.49430  -0.49054  -0.48504
 Alpha  occ. eigenvalues --   -0.48268  -0.48161  -0.47641  -0.47550  -0.47527
 Alpha  occ. eigenvalues --   -0.47363  -0.47303  -0.47196  -0.46610  -0.46591
 Alpha  occ. eigenvalues --   -0.46295  -0.46104  -0.46089  -0.45818  -0.45742
 Alpha  occ. eigenvalues --   -0.45629  -0.45501  -0.45204  -0.44823  -0.44651
 Alpha  occ. eigenvalues --   -0.44455  -0.44413  -0.44102  -0.44068  -0.43835
 Alpha  occ. eigenvalues --   -0.43758  -0.43704  -0.43518  -0.43475  -0.43341
 Alpha  occ. eigenvalues --   -0.43216  -0.43207  -0.43138  -0.42900  -0.42649
 Alpha  occ. eigenvalues --   -0.42598  -0.42487  -0.42316  -0.42180  -0.42170
 Alpha  occ. eigenvalues --   -0.42007  -0.41882  -0.41685  -0.41428  -0.41343
 Alpha  occ. eigenvalues --   -0.41320  -0.41224  -0.41088  -0.40887  -0.40767
 Alpha  occ. eigenvalues --   -0.40599  -0.40578  -0.40277  -0.40225  -0.40114
 Alpha  occ. eigenvalues --   -0.39789  -0.39656  -0.39468  -0.39109  -0.39013
 Alpha  occ. eigenvalues --   -0.38801  -0.38649  -0.38469  -0.38390  -0.38134
 Alpha  occ. eigenvalues --   -0.38056  -0.37984  -0.37909  -0.37683  -0.37638
 Alpha  occ. eigenvalues --   -0.37384  -0.37198  -0.37040  -0.36961  -0.36843
 Alpha  occ. eigenvalues --   -0.36752  -0.36678  -0.36503  -0.36300  -0.36187
 Alpha  occ. eigenvalues --   -0.36137  -0.36059  -0.35957  -0.35804  -0.35590
 Alpha  occ. eigenvalues --   -0.35496  -0.35021  -0.34893  -0.34657  -0.34104
 Alpha  occ. eigenvalues --   -0.34054  -0.33813  -0.33260  -0.32690  -0.31965
 Alpha  occ. eigenvalues --   -0.31928  -0.31699  -0.31531  -0.31490  -0.31307
 Alpha  occ. eigenvalues --   -0.31067  -0.30562  -0.30050  -0.29410  -0.29127
 Alpha  occ. eigenvalues --   -0.29085  -0.28666  -0.28450  -0.27429  -0.26851
 Alpha  occ. eigenvalues --   -0.26576  -0.26144  -0.25890  -0.25748  -0.25616
 Alpha  occ. eigenvalues --   -0.25498  -0.25177  -0.25061  -0.21410  -0.20705
 Alpha  occ. eigenvalues --   -0.19179  -0.18834
 Alpha virt. eigenvalues --   -0.11423  -0.11054  -0.05525  -0.05260  -0.04772
 Alpha virt. eigenvalues --   -0.04029  -0.02649  -0.02066  -0.01445  -0.00164
 Alpha virt. eigenvalues --    0.00183   0.00373   0.00528   0.01260   0.01484

 Mulliken charges:
               1
     1  Mg  11.999577
     2  C    5.990764
     3  C    6.016200
     4  C    6.000582
     5  C    5.984255
     6  N    6.996906
     7  C    6.021929
     8  C    5.993415
     9  C    6.015633
    10  C    5.966001
    11  C    5.999332
    12  C    5.998668
    13  C    5.997994
    14  H    1.004628
    15  N    7.012584
    16  C    5.960898
    17  C    5.982335
    18  C    5.984956
    19  C    5.973928
    20  C    6.000976
    21  C    5.987520
    22  O    7.971481
    23  C    6.004062
    24  N    6.990434
    25  C    5.973999
    26  C    6.006762
    27  C    5.992212
    28  C    6.038456
    29  C    6.004327
    30  C    5.995954
    31  C    5.996851
    32  N    6.998741
    33  C    6.042369
    34  C    6.026270
    35  C    6.001522
    36  C    6.025699
    37  C    5.999039
    38  C    6.014565
    39  O    8.028026
    40  C    6.001000
    41  C    6.004799
    42  O    8.008613
    43  O    7.999811
    44  C    5.997270
    45  H    0.995466
    46  H    0.993068
    47  H    1.007547
    48  H    0.997376
    49  H    0.996285
    50  H    0.998039
    51  H    0.990012
    52  H    1.003353
    53  H    1.007843
    54  H    0.994773
    55  H    1.003821
    56  H    0.995239
    57  H    0.984105
    58  H    0.983592
    59  H    0.986500
    60  H    0.993000
    61  H    0.993053
    62  H    0.986271
    63  H    0.999640
    64  H    1.001731
    65  H    1.000359
    66  H    0.989554
    67  H    1.004033
    68  H    1.008861
    69  H    0.996985
    70  H    1.010680
    71  H    1.004573
    72  H    0.992055
    73  H    1.017265
    74  H    1.017128
    75  H    1.016874
    76  H    1.007498
    77  H    1.001051
    78  H    1.006068
    79  H    1.004963
    80  Mg  12.000005
    81  C    6.000085
    82  C    5.999950
    83  C    5.999881
    84  C    6.000036
    85  N    6.999941
    86  C    5.999827
    87  C    6.000098
    88  C    5.999960
    89  C    6.000167
    90  C    5.999982
    91  C    5.999998
    92  C    6.000058
    93  H    0.999935
    94  N    7.000054
    95  C    6.000115
    96  C    6.000126
    97  C    6.000001
    98  C    6.000137
    99  C    6.000007
   100  C    6.000037
   101  O    8.000099
   102  C    6.000003
   103  N    7.000038
   104  C    6.000130
   105  C    5.999947
   106  C    6.000030
   107  C    5.999853
   108  C    6.000003
   109  C    6.000022
   110  C    5.999990
   111  N    6.999962
   112  C    5.999914
   113  C    5.999867
   114  C    6.000041
   115  C    5.999886
   116  C    5.999985
   117  C    5.999917
   118  O    7.999829
   119  C    5.999994
   120  C    6.000007
   121  O    7.999940
   122  O    8.000005
   123  C    6.000030
   124  H    1.000033
   125  H    1.000055
   126  H    0.999979
   127  H    0.999985
   128  H    1.000002
   129  H    1.000038
   130  H    0.999996
   131  H    1.000005
   132  H    0.999981
   133  H    0.999961
   134  H    1.000001
   135  H    0.999994
   136  H    1.000068
   137  H    1.000086
   138  H    1.000084
   139  H    1.000040
   140  H    1.000033
   141  H    1.000065
   142  H    1.000013
   143  H    1.000004
   144  H    0.999991
   145  H    1.000040
   146  H    1.000016
   147  H    1.000011
   148  H    0.999961
   149  H    1.000003
   150  H    0.999992
   151  H    1.000005
   152  H    0.999928
   153  H    0.999934
   154  H    0.999942
   155  H    0.999943
   156  H    0.999965
   157  H    0.999994
   158  H    0.999962
 Sum of Mulliken charges = 624.00000

 Dipole moment (field-independent basis, Debye):
    X=              3.8642    Y=             -9.1488    Z=              1.8329  Tot=             10.0991
 Quadrupole moment (field-independent basis, Debye-Ang):
   XX=           -216.9099   YY=             -8.9789   ZZ=              3.2575
   XY=            262.9071   XZ=            -52.0059   YZ=             -2.1418

 Normal termination of Gaussian 16 at Thu Oct 14 12:17:03 2021.
