 Gaussian 16, Revision A.03,
 Gaussian 16:  ES64L-G16RevA.03 25-Dec-2016

 --------------------------------------------------------
 #p PBE1PBE/Def2SVP td=(nstates=5) density=(transition=1)
 --------------------------------------------------------

 --------------------------------
 TDDFT excited states in gaussian
 --------------------------------
 Symbolic Z-matrix:
 Charge =  0 Multiplicity = 1

                         Standard orientation:
 ---------------------------------------------------------------------
 Center     Atomic      Atomic             Coordinates (Angstroms)
 Number     Number       Type             X           Y           Z
 ---------------------------------------------------------------------
      1         12           0       25.113658   -0.774374    0.041088
      2          6           0       26.738831    2.306140   -0.579555
      3          6           0       23.406610    0.722467    2.640535
      4          6           0       23.793246   -3.801700    0.798341
      5          6           0       27.026770   -2.301468   -2.468372
      6          7           0       25.224348    1.257514    0.913550
      7          6           0       25.781391    2.415572    0.376292
      8          6           0       25.364211    3.697296    1.207291
      9          6           0       24.537695    3.071694    2.362283
     10          6           0       24.404859    1.573993    2.006408
     11          6           0       25.067654    3.248074    3.834413
     12          6           0       24.716281    4.891891    0.394377
     13          6           0       25.459062    6.191565    0.468462
     14          1           0       24.570451    7.497326    0.511464
     15          7           0       23.822724   -1.382922    1.501278
     16          6           0       23.157658   -0.632742    2.449784
     17          6           0       22.332854   -1.508251    3.267634
     18          6           0       22.407293   -2.840403    2.771019
     19          6           0       23.364044   -2.725618    1.609484
     20          6           0       21.390519   -1.012367    4.382879
     21          6           0       21.684812   -4.102904    3.229944
     22          8           0       21.767986   -5.173157    2.663362
     23          6           0       20.655813   -4.152956    4.432708
     24          7           0       25.454696   -2.808413   -0.679960
     25          6           0       24.791318   -3.856647   -0.209834
     26          6           0       25.176715   -5.182110   -0.958653
     27          6           0       26.077974   -4.652067   -2.143143
     28          6           0       26.189797   -3.141843   -1.774358
     29          6           0       25.790068   -6.239014    0.004779
     30          6           0       25.480579   -4.964813   -3.500804
     31          6           0       26.499850   -5.435227   -4.536915
     32          7           0       26.692981   -0.252936   -1.213167
     33          6           0       27.307654   -0.934040   -2.246332
     34          6           0       28.320666   -0.075639   -2.778745
     35          6           0       28.131096    1.209941   -2.213880
     36          6           0       27.110577    1.075122   -1.231669
     37          6           0       29.319973   -0.442141   -3.809494
     38          6           0       28.550905    2.620537   -2.282279
     39          8           0       29.462404    3.191401   -2.874038
     40          6           0       27.536366    3.415031   -1.151285
     41          6           0       28.337008    4.088243   -0.176785
     42          8           0       28.508598    3.703954    0.959723
     43          8           0       28.778157    5.299814   -0.658917
     44          6           0       29.661604    6.009743    0.299323
     45          1           0       22.756204    1.181527    3.388244
     46          1           0       23.437397   -4.807583    1.028527
     47          1           0       27.514526   -2.833606   -3.288543
     48          1           0       26.282440    3.994091    1.712969
     49          1           0       23.524840    3.474458    2.372032
     50          1           0       24.193832    3.441901    4.457262
     51          1           0       25.775776    4.076245    3.848423
     52          1           0       25.578967    2.373091    4.236229
     53          1           0       23.695200    4.982666    0.765112
     54          1           0       24.716397    4.592716   -0.653901
     55          1           0       26.102806    6.296882   -0.405798
     56          1           0       26.064697    6.084827    1.367972
     57          1           0       20.386204   -1.209545    4.009631
     58          1           0       21.448046    0.075018    4.437203
     59          1           0       21.496545   -1.505456    5.349970
     60          1           0       19.865897   -3.429689    4.227326
     61          1           0       21.144210   -4.151956    5.407615
     62          1           0       20.323851   -5.190393    4.459721
     63          1           0       24.330026   -5.671262   -1.439846
     64          1           0       27.061388   -5.096319   -1.988137
     65          1           0       26.726042   -6.593644   -0.427771
     66          1           0       25.103400   -7.048729    0.252949
     67          1           0       26.024078   -5.770349    0.959248
     68          1           0       24.932368   -4.118627   -3.913673
     69          1           0       24.688974   -5.715426   -3.479527
     70          1           0       27.521333   -5.301869   -4.180554
     71          1           0       26.361836   -4.796753   -5.409952
     72          1           0       26.295984   -6.444841   -4.893943
     73          1           0       29.298664   -1.464137   -4.187748
     74          1           0       30.271537   -0.036166   -3.464146
     75          1           0       28.928526    0.044062   -4.703390
     76          1           0       26.915924    4.138733   -1.680643
     77          1           0       30.536439    5.397374    0.518998
     78          1           0       29.036959    6.254706    1.158302
     79          1           0       30.063086    6.939397   -0.102095
     80         12           0      -26.116053   -0.313738   -0.174823
     81          6           0      -24.534033    2.691135   -0.908595
     82          6           0      -26.473056    0.794308    3.052859
     83          6           0      -27.452357   -3.391224    0.636517
     84          6           0      -25.226831   -1.596982   -3.291415
     85          7           0      -25.644477    1.573511    0.893410
     86          6           0      -25.108689    2.699546    0.392204
     87          6           0      -25.107029    3.905190    1.360733
     88          6           0      -25.521350    3.198545    2.721930
     89          6           0      -25.879165    1.714644    2.230719
     90          6           0      -24.326213    3.299019    3.735598
     91          6           0      -26.186429    4.965454    0.797719
     92          6           0      -25.680540    6.421003    0.573994
     93          1           0      -24.383622    6.779913    1.385739
     94          7           0      -26.801100   -1.243648    1.580918
     95          6           0      -26.941672   -0.559900    2.806246
     96          6           0      -27.698265   -1.391760    3.717563
     97          6           0      -27.944991   -2.609308    3.070707
     98          6           0      -27.460203   -2.439744    1.650918
     99          6           0      -27.826351   -1.030953    5.204368
    100          6           0      -28.623029   -3.879371    3.649585
    101          8           0      -28.821252   -4.935813    3.020900
    102          6           0      -29.166133   -3.820401    5.087706
    103          7           0      -26.217067   -2.225749   -1.199024
    104          6           0      -26.901719   -3.334492   -0.614587
    105          6           0      -26.741642   -4.589642   -1.497645
    106          6           0      -26.275616   -3.919843   -2.873569
    107          6           0      -25.922096   -2.471622   -2.444515
    108          6           0      -25.791127   -5.565658   -0.824110
    109          6           0      -27.447319   -3.913637   -3.943674
    110          6           0      -28.889617   -3.351194   -3.702797
    111          7           0      -25.042601    0.323976   -1.746480
    112          6           0      -24.731505   -0.294791   -2.961172
    113          6           0      -23.978812    0.611760   -3.766004
    114          6           0      -23.910908    1.789580   -3.043927
    115          6           0      -24.479013    1.555385   -1.767310
    116          6           0      -23.332090    0.333234   -5.107474
    117          6           0      -23.435878    3.115641   -3.083126
    118          8           0      -22.766111    3.615309   -3.930020
    119          6           0      -23.722853    3.712762   -1.643493
    120          6           0      -22.376810    3.935086   -1.011095
    121          8           0      -21.914637    3.234444   -0.134972
    122          8           0      -21.817955    4.988556   -1.618468
    123          6           0      -20.387310    5.044432   -1.443082
    124          1           0      -26.664670    1.167468    4.060832
    125          1           0      -27.651313   -4.409301    0.975722
    126          1           0      -24.930561   -1.988057   -4.267522
    127          1           0      -24.157355    4.433811    1.440806
    128          1           0      -26.420520    3.598785    3.190897
    129          1           0      -24.115780    2.386853    4.294467
    130          1           0      -24.719031    4.091119    4.372443
    131          1           0      -23.482895    3.714612    3.184571
    132          1           0      -27.065764    4.896919    1.437824
    133          1           0      -26.526309    4.580274   -0.163957
    134          1           0      -26.543922    6.992088    0.913638
    135          1           0      -25.483206    6.685616   -0.464401
    136          1           0      -27.432688   -1.874762    5.771604
    137          1           0      -28.882378   -0.957078    5.467539
    138          1           0      -27.296399   -0.100813    5.407174
    139          1           0      -28.300435   -3.836557    5.751122
    140          1           0      -29.673231   -4.771898    5.246850
    141          1           0      -29.933327   -3.049541    5.156183
    142          1           0      -27.759063   -4.954032   -1.642644
    143          1           0      -25.494847   -4.524972   -3.332934
    144          1           0      -25.797530   -5.488450    0.263257
    145          1           0      -24.769392   -5.404071   -1.166931
    146          1           0      -26.091613   -6.594803   -1.019678
    147          1           0      -27.544345   -4.928081   -4.330570
    148          1           0      -27.062392   -3.237604   -4.707202
    149          1           0      -29.502165   -4.151498   -3.287344
    150          1           0      -29.253822   -3.062787   -4.689534
    151          1           0      -28.955125   -2.423751   -3.132989
    152          1           0      -24.060463    0.041654   -5.864362
    153          1           0      -22.667227   -0.505961   -4.904017
    154          1           0      -22.883368    1.194646   -5.604150
    155          1           0      -24.239277    4.671001   -1.584262
    156          1           0      -19.856812    5.499838   -2.278981
    157          1           0      -19.819448    4.183487   -1.090653
    158          1           0      -20.076481    5.689880   -0.621284
 ---------------------------------------------------------------------

 SCF Done:  E(RPBE1PBE) =  -4067.37885945     A.U. after   17 cycles

 Excitation energies and oscillator strengths:

 Excited State   1:      Singlet-A      1.8555 eV  668.19 nm  f=0.3750  <S**2>=0.000
     310 -> 316        0.16983
     312 -> 314        0.69320
     312 <- 314       -0.10777
 This state for optimization and/or second-order correction.
 Total Energy, E(TD-HF/TD-DFT) =  -4067.31067011
 Copying the excited state density for this state as the 1-particle RhoCI density.

 Excited State   2:      Singlet-A      1.8744 eV  661.48 nm  f=0.3623  <S**2>=0.000
     309 -> 315       -0.17478
     311 -> 313        0.69060

 Excited State   3:      Singlet-A      1.9774 eV  627.02 nm  f=0.0000  <S**2>=0.000
     312 -> 313        0.70711

 Excited State   4:      Singlet-A      2.0722 eV  598.33 nm  f=0.0000  <S**2>=0.000
     311 -> 314        0.70711

 Excited State   5:      Singlet-A      2.2281 eV  556.46 nm  f=0.1203  <S**2>=0.000
     310 -> 314        0.65664
     312 -> 316       -0.24647

 The electronic state is 1-A.
 Alpha  occ. eigenvalues --  -46.91666 -46.91484 -19.26707 -19.25019 -19.20191
 Alpha  occ. eigenvalues --  -19.19981 -19.19760 -19.19513 -19.19360 -19.19008
 Alpha  occ. eigenvalues --  -14.41808 -14.41722 -14.41241 -14.40947 -14.39885
 Alpha  occ. eigenvalues --  -14.39328 -14.38663 -14.38658 -10.36223 -10.35342
 Alpha  occ. eigenvalues --  -10.33464 -10.33251 -10.32451 -10.31753 -10.29959
 Alpha  occ. eigenvalues --  -10.29323 -10.29200 -10.28716 -10.28533 -10.28514
 Alpha  occ. eigenvalues --  -10.28329 -10.28245 -10.28220 -10.28194 -10.27848
 Alpha  occ. eigenvalues --  -10.27748 -10.27684 -10.27635 -10.27576 -10.27385
 Alpha  occ. eigenvalues --  -10.27370 -10.26788 -10.26746 -10.26388 -10.26347
 Alpha  occ. eigenvalues --  -10.26280 -10.26203 -10.26163 -10.25740 -10.25683
 Alpha  occ. eigenvalues --  -10.25675 -10.25627 -10.25595 -10.25546 -10.25465
 Alpha  occ. eigenvalues --  -10.25378 -10.25348 -10.25344 -10.25285 -10.25266
 Alpha  occ. eigenvalues --  -10.25125 -10.25102 -10.25075 -10.24930 -10.24736
 Alpha  occ. eigenvalues --  -10.24725 -10.24391 -10.24295 -10.24271 -10.24162
 Alpha  occ. eigenvalues --  -10.24109 -10.24030 -10.23757 -10.23676 -10.23638
 Alpha  occ. eigenvalues --  -10.23523 -10.23348 -10.23232 -10.23205 -10.23108
 Alpha  occ. eigenvalues --  -10.23018 -10.22931 -10.22905 -10.22794 -10.22793
 Alpha  occ. eigenvalues --  -10.22149  -3.13775  -3.13665  -1.86624  -1.86507
 Alpha  occ. eigenvalues --   -1.86142  -1.86016  -1.86006  -1.85911  -1.12852
 Alpha  occ. eigenvalues --   -1.10670  -1.06592  -1.05944  -1.04343  -1.03793
 Alpha  occ. eigenvalues --   -1.03214  -1.02309  -0.98705  -0.98694  -0.97901
 Alpha  occ. eigenvalues --   -0.97299  -0.97006  -0.96645  -0.95999  -0.95651
 Alpha  occ. eigenvalues --   -0.87024  -0.86377  -0.83453  -0.82946  -0.82670
 Alpha  occ. eigenvalues --   -0.82355  -0.82215  -0.82039  -0.81333  -0.81258
 Alpha  occ. eigenvalues --   -0.81194  -0.80821  -0.80379  -0.80258  -0.78616
 Alpha  occ. eigenvalues --   -0.78197  -0.77986  -0.77637  -0.76798  -0.76545
 Alpha  occ. eigenvalues --   -0.75494  -0.75348  -0.75198  -0.75012  -0.74206
 Alpha  occ. eigenvalues --   -0.74171  -0.72490  -0.72066  -0.71389  -0.71307
 Alpha  occ. eigenvalues --   -0.71021  -0.70808  -0.70108  -0.70106  -0.69357
 Alpha  occ. eigenvalues --   -0.69085  -0.67357  -0.66804  -0.65748  -0.65650
 Alpha  occ. eigenvalues --   -0.63328  -0.63256  -0.63241  -0.63076  -0.62324
 Alpha  occ. eigenvalues --   -0.61991  -0.61530  -0.60875  -0.60271  -0.60060
 Alpha  occ. eigenvalues --   -0.59349  -0.59078  -0.59059  -0.59030  -0.58969
 Alpha  occ. eigenvalues --   -0.58398  -0.56921  -0.55798  -0.54454  -0.54413
 Alpha  occ. eigenvalues --   -0.53932  -0.53810  -0.53549  -0.53305  -0.52760
 Alpha  occ. eigenvalues --   -0.52616  -0.52601  -0.52403  -0.51836  -0.51793
 Alpha  occ. eigenvalues --   -0.50700  -0.50498  -0.50310  -0.50285  -0.49517
 Alpha  occ. eigenvalues --   -0.49382  -0.49039  -0.48879  -0.48506  -0.48314
 Alpha  occ. eigenvalues --   -0.47811  -0.47768  -0.47743  -0.47646  -0.47223
 Alpha  occ. eigenvalues --   -0.47167  -0.47020  -0.46813  -0.46778  -0.46525
 Alpha  occ. eigenvalues --   -0.46384  -0.46303  -0.46217  -0.46055  -0.45644
 Alpha  occ. eigenvalues --   -0.45572  -0.45373  -0.45222  -0.45095  -0.44862
 Alpha  occ. eigenvalues --   -0.44441  -0.44413  -0.44251  -0.44114  -0.44064
 Alpha  occ. eigenvalues --   -0.43989  -0.43828  -0.43536  -0.43286  -0.43263
 Alpha  occ. eigenvalues --   -0.42975  -0.42919  -0.42738  -0.42685  -0.42607
 Alpha  occ. eigenvalues --   -0.42455  -0.42400  -0.42183  -0.41947  -0.41698
 Alpha  occ. eigenvalues --   -0.41464  -0.41354  -0.41165  -0.41036  -0.40941
 Alpha  occ. eigenvalues --   -0.40910  -0.40847  -0.40426  -0.40289  -0.40269
 Alpha  occ. eigenvalues --   -0.39948  -0.39754  -0.39673  -0.39670  -0.39510
 Alpha  occ. eigenvalues --   -0.39383  -0.39245  -0.39193  -0.38955  -0.38898
 Alpha  occ. eigenvalues --   -0.38690  -0.38475  -0.38469  -0.38389  -0.38178
 Alpha  occ. eigenvalues --   -0.38160  -0.37950  -0.37889  -0.37763  -0.37540
 Alpha  occ. eigenvalues --   -0.37492  -0.37400  -0.37257  -0.37206  -0.36910
 Alpha  occ. eigenvalues --   -0.36879  -0.36636  -0.36332  -0.36223  -0.36085
 Alpha  occ. eigenvalues --   -0.35707  -0.35652  -0.35440  -0.35199  -0.35183
 Alpha  occ. eigenvalues --   -0.34918  -0.34607  -0.34501  -0.34364  -0.34097
 Alpha  occ. eigenvalues --   -0.33647  -0.32682  -0.32648  -0.32476  -0.32247
 Alpha  occ. eigenvalues --   -0.32088  -0.31944  -0.31936  -0.31547  -0.31249
 Alpha  occ. eigenvalues --   -0.31211  -0.30998  -0.29615  -0.29314  -0.29193
 Alpha  occ. eigenvalues --   -0.28982  -0.28714  -0.28266  -0.27140  -0.27135
 Alpha  occ. eigenvalues --   -0.26198  -0.26147  -0.25925  -0.25590  -0.25584
 Alpha  occ. eigenvalues --   -0.25475  -0.25171  -0.24675  -0.20939  -0.20688
 Alpha  occ. eigenvalues --   -0.18882  -0.18614
 Alpha virt. eigenvalues --   -0.11088  -0.11010  -0.05328  -0.04926  -0.04127
 Alpha virt. eigenvalues --   -0.03637  -0.02353  -0.01919  -0.00335   0.00120
 Alpha virt. eigenvalues --    0.00228   0.00542   0.01122   0.01473   0.01607

 Mulliken charges:
               1
     1  Mg  11.999963
     2  C    5.999932
     3  C    5.999969
     4  C    6.000021
     5  C    6.000028
     6  N    7.000017
     7  C    6.000007
     8  C    6.000006
     9  C    5.999975
    10  C    6.000033
    11  C    5.999995
    12  C    6.000011
    13  C    6.000001
    14  H    0.999964
    15  N    7.000036
    16  C    6.000032
    17  C    6.000019
    18  C    6.000037
    19  C    5.999984
    20  C    6.000012
    21  C    6.000015
    22  O    8.000034
    23  C    5.999985
    24  N    7.000047
    25  C    5.999986
    26  C    5.999983
    27  C    6.000015
    28  C    5.999958
    29  C    5.999997
    30  C    6.000020
    31  C    6.000001
    32  N    7.000026
    33  C    5.999919
    34  C    5.999969
    35  C    5.999936
    36  C    6.000025
    37  C    6.000005
    38  C    6.000008
    39  O    7.999964
    40  C    6.000005
    41  C    5.999998
    42  O    8.000006
    43  O    7.999983
    44  C    6.000008
    45  H    1.000007
    46  H    1.000018
    47  H    0.999989
    48  H    1.000005
    49  H    0.999987
    50  H    1.000001
    51  H    1.000033
    52  H    1.000026
    53  H    0.999970
    54  H    0.999989
    55  H    1.000007
    56  H    1.000020
    57  H    1.000004
    58  H    1.000007
    59  H    1.000050
    60  H    0.999989
    61  H    1.000044
    62  H    1.000035
    63  H    0.999989
    64  H    1.000012
    65  H    1.000027
    66  H    1.000001
    67  H    1.000009
    68  H    0.999971
    69  H    0.999974
    70  H    1.000023
    71  H    0.999982
    72  H    0.999991
    73  H    0.999986
    74  H    0.999987
    75  H    0.999954
    76  H    0.999973
    77  H    1.000015
    78  H    0.999994
    79  H    0.999994
    80  Mg  12.002727
    81  C    5.982449
    82  C    6.011092
    83  C    6.020918
    84  C    6.003889
    85  N    6.993787
    86  C    6.027627
    87  C    5.990831
    88  C    6.008457
    89  C    5.971592
    90  C    6.003134
    91  C    5.996411
    92  C    5.997752
    93  H    1.003682
    94  N    7.004614
    95  C    5.956487
    96  C    5.983914
    97  C    5.984491
    98  C    5.962180
    99  C    6.001723
   100  C    5.987152
   101  O    7.970340
   102  C    6.005372
   103  N    7.009531
   104  C    5.967443
   105  C    6.007982
   106  C    5.989544
   107  C    6.023055
   108  C    6.003684
   109  C    5.993633
   110  C    6.003964
   111  N    6.996174
   112  C    6.028610
   113  C    6.030733
   114  C    5.999218
   115  C    6.029953
   116  C    6.000538
   117  C    6.018209
   118  O    8.027373
   119  C    6.001157
   120  C    6.002016
   121  O    8.010413
   122  O    7.999185
   123  C    5.995124
   124  H    0.989240
   125  H    0.995707
   126  H    1.011657
   127  H    0.999578
   128  H    0.999756
   129  H    1.003460
   130  H    0.995283
   131  H    0.987577
   132  H    1.011028
   133  H    0.995913
   134  H    1.003967
   135  H    0.996348
   136  H    0.984931
   137  H    0.983250
   138  H    0.983984
   139  H    0.991975
   140  H    0.985940
   141  H    0.992845
   142  H    1.001236
   143  H    1.003129
   144  H    1.008141
   145  H    0.988925
   146  H    0.995529
   147  H    1.008826
   148  H    0.994114
   149  H    1.007910
   150  H    0.998889
   151  H    1.001665
   152  H    1.018386
   153  H    1.015860
   154  H    1.012733
   155  H    1.011016
   156  H    1.002695
   157  H    1.003007
   158  H    1.007340
 Sum of Mulliken charges = 624.00000

 Dipole moment (field-independent basis, Debye):
    X=              4.5196    Y=              3.7305    Z=             -8.4997  Tot=             10.3242
 Quadrupole moment (field-independent basis, Debye-Ang):
   XX=           -233.3076   YY=             -2.0047   ZZ=             -0.8324
   XY=            -98.2235   XZ=            221.2196   YZ=              5.2340

 Normal termination of Gaussian 16 at Fri Oct 15 13:52:48 2021.
