 Gaussian 16, Revision A.03,
 Gaussian 16:  ES64L-G16RevA.03 25-Dec-2016

 --------------------------------------------------------
 #p PBE1PBE/Def2SVP td=(nstates=5) density=(transition=1)
 --------------------------------------------------------

 --------------------------------
 TDDFT excited states in gaussian
 --------------------------------
 Symbolic Z-matrix:
 Charge =  0 Multiplicity = 1

                         Standard orientation:
 ---------------------------------------------------------------------
 Center     Atomic      Atomic             Coordinates (Angstroms)
 Number     Number       Type             X           Y           Z
 ---------------------------------------------------------------------
      1         12           0       31.423229    0.491691   -0.457123
      2          6           0       29.285158   -1.956984    0.678188
      3          6           0       28.856461    2.734436   -0.242437
      4          6           0       33.708778    2.871698   -0.300452
      5          6           0       33.955725   -1.937231   -0.576638
      6          7           0       29.441948    0.418522    0.607879
      7          6           0       28.707533   -0.713526    0.759914
      8          6           0       27.266895   -0.433404    1.070577
      9          6           0       27.104519    0.949300    0.360077
     10          6           0       28.550541    1.375623    0.154259
     11          6           0       26.242374    0.873014   -0.932554
     12          6           0       26.996214   -0.318306    2.654062
     13          6           0       25.580624   -0.871925    3.150150
     14          1           0       24.835996    0.270118    3.796145
     15          7           0       31.274113    2.533678   -0.493182
     16          6           0       30.181591    3.308604   -0.315862
     17          6           0       30.545272    4.719958   -0.318106
     18          6           0       31.953443    4.772720   -0.368086
     19          6           0       32.368146    3.341765   -0.384343
     20          6           0       29.467998    5.825365   -0.200514
     21          6           0       32.729461    6.047072   -0.184479
     22          8           0       32.139119    7.089408   -0.069267
     23          6           0       34.264229    6.130603   -0.079106
     24          7           0       33.575229    0.519251   -0.570723
     25          6           0       34.236686    1.585140   -0.469874
     26          6           0       35.701342    1.365595   -0.375603
     27          6           0       35.816385   -0.206046   -0.478843
     28          6           0       34.400509   -0.583863   -0.544389
     29          6           0       36.483693    2.206443   -1.440367
     30          6           0       36.563725   -0.838223    0.785082
     31          6           0       37.146995   -2.287840    0.631048
     32          7           0       31.628031   -1.535948   -0.131370
     33          6           0       32.695285   -2.394154   -0.324659
     34          6           0       32.282853   -3.759928   -0.155778
     35          6           0       30.893912   -3.643610    0.201498
     36          6           0       30.595025   -2.298496    0.301200
     37          6           0       33.109457   -4.994746   -0.317952
     38          6           0       29.727129   -4.400114    0.499792
     39          8           0       29.466037   -5.606242    0.595385
     40          6           0       28.690368   -3.344781    1.009125
     41          6           0       27.387196   -3.682358    0.364945
     42          8           0       26.506851   -4.388312    0.876639
     43          8           0       27.339020   -3.144006   -0.891306
     44          6           0       26.052755   -3.532229   -1.535253
     45          1           0       28.085247    3.501517   -0.342560
     46          1           0       34.438839    3.675253   -0.187975
     47          1           0       34.765745   -2.664657   -0.483408
     48          1           0       26.727492   -1.212442    0.533315
     49          1           0       26.557484    1.624276    1.018510
     50          1           0       25.336623    1.463115   -0.795941
     51          1           0       25.914190   -0.161668   -1.036967
     52          1           0       26.875763    1.174803   -1.766138
     53          1           0       27.164667    0.660762    3.102305
     54          1           0       27.736439   -0.896572    3.206097
     55          1           0       25.836385   -1.584701    3.934281
     56          1           0       24.946384   -1.431134    2.462213
     57          1           0       29.583561    6.490308    0.655324
     58          1           0       28.443774    5.450930   -0.210433
     59          1           0       29.515091    6.406693   -1.120749
     60          1           0       34.775714    5.821874   -0.990206
     61          1           0       34.675717    5.585240    0.770593
     62          1           0       34.459925    7.160070    0.222441
     63          1           0       35.935479    1.687901    0.638903
     64          1           0       36.239500   -0.636955   -1.385935
     65          1           0       37.171470    2.848462   -0.890463
     66          1           0       35.813432    2.794549   -2.067509
     67          1           0       37.208734    1.632330   -2.017054
     68          1           0       35.891285   -0.861686    1.642882
     69          1           0       37.369183   -0.142608    1.015988
     70          1           0       38.211979   -2.482410    0.754743
     71          1           0       36.967920   -2.666240   -0.374425
     72          1           0       36.651505   -2.967999    1.323870
     73          1           0       34.102569   -4.865597   -0.747797
     74          1           0       32.439775   -5.567738   -0.958017
     75          1           0       33.054373   -5.388424    0.697060
     76          1           0       28.580619   -3.310657    2.093576
     77          1           0       26.066362   -4.599704   -1.752964
     78          1           0       25.945139   -3.125410   -2.540771
     79          1           0       25.245487   -3.211479   -0.876486
     80         12           0      -31.484595    0.200104    0.246802
     81          6           0      -29.254478   -1.812953   -1.348591
     82          6           0      -32.040992    1.982313   -2.643016
     83          6           0      -33.539695    2.234095    2.007543
     84          6           0      -30.530473   -1.339035    3.282005
     85          7           0      -30.555209    0.228134   -1.725415
     86          6           0      -29.931292   -0.881230   -2.204047
     87          6           0      -29.849946   -0.920960   -3.692443
     88          6           0      -30.558685    0.489843   -4.036461
     89          6           0      -31.099982    0.954397   -2.724314
     90          6           0      -29.547354    1.550145   -4.668124
     91          6           0      -30.700100   -2.167864   -4.222830
     92          6           0      -30.349558   -2.718063   -5.607031
     93          1           0      -29.465361   -1.980628   -6.643315
     94          7           0      -32.724694    1.818327   -0.220003
     95          6           0      -32.787094    2.419403   -1.487797
     96          6           0      -33.712296    3.524087   -1.385935
     97          6           0      -34.175569    3.589312   -0.056091
     98          6           0      -33.502314    2.481475    0.607719
     99          6           0      -34.090366    4.367342   -2.626014
    100          6           0      -35.147877    4.704769    0.597357
    101          8           0      -35.612816    4.599348    1.739366
    102          6           0      -35.615206    5.958960   -0.122602
    103          7           0      -32.009652    0.351252    2.391902
    104          6           0      -32.857935    1.316131    2.820866
    105          6           0      -32.851932    1.427572    4.344571
    106          6           0      -32.119166    0.028666    4.771884
    107          6           0      -31.583436   -0.449924    3.413370
    108          6           0      -32.255989    2.780394    4.949006
    109          6           0      -33.079877   -1.153184    5.300874
    110          6           0      -32.740692   -1.882485    6.587818
    111          7           0      -30.211970   -1.313041    0.920345
    112          6           0      -29.913444   -1.817951    2.130206
    113          6           0      -28.970494   -2.970262    1.979748
    114          6           0      -28.751981   -3.002904    0.582017
    115          6           0      -29.439162   -1.891557    0.035534
    116          6           0      -28.409476   -3.911515    2.986156
    117          6           0      -28.032881   -3.742188   -0.386591
    118          8           0      -27.284087   -4.731977   -0.253930
    119          6           0      -28.320470   -3.002120   -1.690472
    120          6           0      -27.072562   -2.523655   -2.239996
    121          8           0      -26.224262   -1.836522   -1.763176
    122          8           0      -27.054488   -2.930930   -3.570654
    123          6           0      -25.927041   -2.566003   -4.511434
    124          1           0      -32.434669    2.441836   -3.551599
    125          1           0      -34.127775    2.953016    2.582399
    126          1           0      -30.048171   -1.723382    4.182512
    127          1           0      -28.893434   -0.983636   -4.210965
    128          1           0      -31.379090    0.359396   -4.742141
    129          1           0      -29.962103    2.205968   -5.433267
    130          1           0      -28.641111    1.033429   -4.983712
    131          1           0      -29.250214    2.210337   -3.852639
    132          1           0      -31.767868   -1.948213   -4.233139
    133          1           0      -30.540529   -2.953015   -3.483357
    134          1           0      -31.305664   -2.945282   -6.080252
    135          1           0      -29.889871   -3.697795   -5.482669
    136          1           0      -33.645758    4.018858   -3.558113
    137          1           0      -33.792765    5.392068   -2.406069
    138          1           0      -35.178221    4.357862   -2.697532
    139          1           0      -36.290168    5.591923   -0.894899
    140          1           0      -34.840486    6.389850   -0.757144
    141          1           0      -35.921897    6.718803    0.595913
    142          1           0      -33.886078    1.356160    4.683642
    143          1           0      -31.356865    0.203995    5.531255
    144          1           0      -31.416387    2.580543    5.615180
    145          1           0      -33.035389    3.329952    5.475621
    146          1           0      -31.837906    3.403086    4.157722
    147          1           0      -33.269799   -1.897675    4.527861
    148          1           0      -34.063148   -0.702631    5.432682
    149          1           0      -32.672855   -2.939705    6.333708
    150          1           0      -33.464541   -1.703602    7.382408
    151          1           0      -31.741527   -1.596012    6.918973
    152          1           0      -28.792797   -3.783484    3.998333
    153          1           0      -27.326728   -3.804744    3.057089
    154          1           0      -28.634449   -4.928511    2.665521
    155          1           0      -28.807746   -3.640640   -2.427902
    156          1           0      -25.207189   -1.919889   -4.008524
    157          1           0      -26.322425   -1.989955   -5.349128
    158          1           0      -25.480799   -3.514995   -4.808603
 ---------------------------------------------------------------------

 SCF Done:  E(RPBE1PBE) =  -4067.36438892     A.U. after   17 cycles

 Excitation energies and oscillator strengths:

 Excited State   1:      Singlet-A      1.7986 eV  689.32 nm  f=0.3467  <S**2>=0.000
     309 -> 315        0.16151
     312 -> 313        0.69479
     312 <- 313       -0.10914
 This state for optimization and/or second-order correction.
 Total Energy, E(TD-HF/TD-DFT) =  -4067.29828995
 Copying the excited state density for this state as the 1-particle RhoCI density.

 Excited State   2:      Singlet-A      1.8923 eV  655.19 nm  f=0.3851  <S**2>=0.000
     310 -> 316       -0.18630
     311 -> 314        0.68965
     311 <- 314       -0.10199

 Excited State   3:      Singlet-A      1.9711 eV  629.00 nm  f=0.0000  <S**2>=0.000
     311 -> 313        0.70711

 Excited State   4:      Singlet-A      2.0524 eV  604.08 nm  f=0.0000  <S**2>=0.000
     312 -> 314        0.70711

 Excited State   5:      Singlet-A      2.1989 eV  563.84 nm  f=0.1030  <S**2>=0.000
     309 -> 313        0.65388
     312 -> 315       -0.25100

 The electronic state is 1-A.
 Alpha  occ. eigenvalues --  -46.92769 -46.92573 -19.26286 -19.24318 -19.19713
 Alpha  occ. eigenvalues --  -19.19490 -19.19430 -19.19403 -19.18936 -19.18453
 Alpha  occ. eigenvalues --  -14.41993 -14.41496 -14.41454 -14.41137 -14.39729
 Alpha  occ. eigenvalues --  -14.39223 -14.38946 -14.38435 -10.35821 -10.35570
 Alpha  occ. eigenvalues --  -10.33490 -10.32600 -10.31510 -10.31472 -10.29754
 Alpha  occ. eigenvalues --  -10.29392 -10.29088 -10.29001 -10.28999 -10.28438
 Alpha  occ. eigenvalues --  -10.28333 -10.28297 -10.28179 -10.28099 -10.27988
 Alpha  occ. eigenvalues --  -10.27870 -10.27712 -10.27599 -10.27488 -10.26614
 Alpha  occ. eigenvalues --  -10.26505 -10.26503 -10.26378 -10.26344 -10.26318
 Alpha  occ. eigenvalues --  -10.26145 -10.26135 -10.26127 -10.26115 -10.26084
 Alpha  occ. eigenvalues --  -10.26041 -10.25992 -10.25913 -10.25825 -10.25670
 Alpha  occ. eigenvalues --  -10.25647 -10.25533 -10.25406 -10.25343 -10.25338
 Alpha  occ. eigenvalues --  -10.25325 -10.25212 -10.25125 -10.25076 -10.25070
 Alpha  occ. eigenvalues --  -10.25069 -10.24895 -10.24612 -10.24609 -10.24414
 Alpha  occ. eigenvalues --  -10.24336 -10.24005 -10.23965 -10.23904 -10.23824
 Alpha  occ. eigenvalues --  -10.23754 -10.23753 -10.23753 -10.23690 -10.23607
 Alpha  occ. eigenvalues --  -10.23580 -10.23555 -10.23529 -10.22770 -10.22542
 Alpha  occ. eigenvalues --  -10.22365  -3.14761  -3.14725  -1.87622  -1.87552
 Alpha  occ. eigenvalues --   -1.87117  -1.87114  -1.86994  -1.86940  -1.10804
 Alpha  occ. eigenvalues --   -1.10307  -1.06403  -1.04315  -1.03108  -1.02955
 Alpha  occ. eigenvalues --   -1.01979  -1.01667  -1.01362  -1.00189  -0.99094
 Alpha  occ. eigenvalues --   -0.99060  -0.98524  -0.98288  -0.97684  -0.97274
 Alpha  occ. eigenvalues --   -0.87804  -0.87060  -0.84088  -0.82941  -0.82925
 Alpha  occ. eigenvalues --   -0.82515  -0.82499  -0.81832  -0.81629  -0.81328
 Alpha  occ. eigenvalues --   -0.81189  -0.81181  -0.80789  -0.80518  -0.78640
 Alpha  occ. eigenvalues --   -0.78503  -0.78187  -0.77731  -0.76616  -0.76527
 Alpha  occ. eigenvalues --   -0.75860  -0.75811  -0.75442  -0.75163  -0.74692
 Alpha  occ. eigenvalues --   -0.74660  -0.72814  -0.72747  -0.71951  -0.71797
 Alpha  occ. eigenvalues --   -0.71373  -0.71092  -0.70468  -0.70343  -0.69776
 Alpha  occ. eigenvalues --   -0.69545  -0.67206  -0.67019  -0.66615  -0.66438
 Alpha  occ. eigenvalues --   -0.64891  -0.63712  -0.63635  -0.62997  -0.62610
 Alpha  occ. eigenvalues --   -0.62576  -0.62026  -0.61337  -0.60430  -0.59783
 Alpha  occ. eigenvalues --   -0.59706  -0.59656  -0.59428  -0.59062  -0.59044
 Alpha  occ. eigenvalues --   -0.58798  -0.57062  -0.56315  -0.55063  -0.54923
 Alpha  occ. eigenvalues --   -0.54447  -0.54210  -0.53787  -0.53726  -0.53380
 Alpha  occ. eigenvalues --   -0.53371  -0.52879  -0.52571  -0.52304  -0.51430
 Alpha  occ. eigenvalues --   -0.51276  -0.50769  -0.50653  -0.50290  -0.50142
 Alpha  occ. eigenvalues --   -0.49791  -0.49530  -0.48817  -0.48646  -0.48324
 Alpha  occ. eigenvalues --   -0.48267  -0.47683  -0.47535  -0.47489  -0.47335
 Alpha  occ. eigenvalues --   -0.47143  -0.46792  -0.46710  -0.46623  -0.46450
 Alpha  occ. eigenvalues --   -0.46281  -0.46227  -0.46142  -0.45975  -0.45917
 Alpha  occ. eigenvalues --   -0.45776  -0.45369  -0.45361  -0.45112  -0.44795
 Alpha  occ. eigenvalues --   -0.44755  -0.44499  -0.44450  -0.44188  -0.44128
 Alpha  occ. eigenvalues --   -0.44042  -0.43871  -0.43709  -0.43634  -0.43533
 Alpha  occ. eigenvalues --   -0.43307  -0.42960  -0.42931  -0.42780  -0.42593
 Alpha  occ. eigenvalues --   -0.42421  -0.42361  -0.42297  -0.42011  -0.41941
 Alpha  occ. eigenvalues --   -0.41607  -0.41576  -0.41423  -0.41280  -0.41157
 Alpha  occ. eigenvalues --   -0.41036  -0.41015  -0.40941  -0.40859  -0.40653
 Alpha  occ. eigenvalues --   -0.40523  -0.40347  -0.40054  -0.39881  -0.39775
 Alpha  occ. eigenvalues --   -0.39469  -0.39425  -0.39207  -0.39142  -0.39114
 Alpha  occ. eigenvalues --   -0.39018  -0.38910  -0.38769  -0.38740  -0.38700
 Alpha  occ. eigenvalues --   -0.38526  -0.38313  -0.38065  -0.38028  -0.37554
 Alpha  occ. eigenvalues --   -0.37505  -0.37452  -0.37129  -0.37035  -0.36896
 Alpha  occ. eigenvalues --   -0.36795  -0.36640  -0.36463  -0.36236  -0.36150
 Alpha  occ. eigenvalues --   -0.36115  -0.35973  -0.35893  -0.35742  -0.35660
 Alpha  occ. eigenvalues --   -0.35078  -0.34968  -0.34676  -0.34595  -0.34331
 Alpha  occ. eigenvalues --   -0.33618  -0.33396  -0.33235  -0.32791  -0.32665
 Alpha  occ. eigenvalues --   -0.32550  -0.31907  -0.31825  -0.31799  -0.31582
 Alpha  occ. eigenvalues --   -0.31494  -0.31024  -0.30191  -0.29413  -0.29330
 Alpha  occ. eigenvalues --   -0.29077  -0.28665  -0.28375  -0.26836  -0.26801
 Alpha  occ. eigenvalues --   -0.26279  -0.26099  -0.26097  -0.25989  -0.25672
 Alpha  occ. eigenvalues --   -0.25469  -0.25334  -0.24739  -0.21031  -0.20783
 Alpha  occ. eigenvalues --   -0.18768  -0.18744
 Alpha virt. eigenvalues --   -0.11313  -0.10991  -0.05326  -0.05180  -0.04191
 Alpha virt. eigenvalues --   -0.03985  -0.02266  -0.02116  -0.00799  -0.00084
 Alpha virt. eigenvalues --    0.00250   0.00783   0.01202   0.01359   0.01616

 Mulliken charges:
               1
     1  Mg  12.000632
     2  C    6.012895
     3  C    5.992621
     4  C    5.984799
     5  C    6.003358
     6  N    7.008279
     7  C    5.966241
     8  C    6.010318
     9  C    5.986183
    10  C    6.031818
    11  C    5.996962
    12  C    5.998960
    13  C    6.002155
    14  H    0.991098
    15  N    6.995228
    16  C    6.035680
    17  C    6.022143
    18  C    6.013785
    19  C    6.029315
    20  C    5.996160
    21  C    6.009300
    22  O    8.018810
    23  C    5.998358
    24  N    7.000534
    25  C    6.028918
    26  C    5.991686
    27  C    6.010169
    28  C    5.965907
    29  C    5.997335
    30  C    6.006337
    31  C    6.001352
    32  N    6.999641
    33  C    5.973113
    34  C    5.968413
    35  C    6.000118
    36  C    5.975446
    37  C    5.999164
    38  C    5.984266
    39  O    7.971067
    40  C    6.001338
    41  C    5.996155
    42  O    7.992979
    43  O    8.000994
    44  C    6.000811
    45  H    1.010241
    46  H    1.006283
    47  H    0.991679
    48  H    1.002833
    49  H    1.005184
    50  H    1.003440
    51  H    1.015011
    52  H    0.999622
    53  H    0.989363
    54  H    1.004948
    55  H    1.002091
    56  H    1.000477
    57  H    1.017311
    58  H    1.017196
    59  H    1.016950
    60  H    1.010579
    61  H    1.011015
    62  H    1.010758
    63  H    0.998049
    64  H    0.998335
    65  H    0.999995
    66  H    0.994176
    67  H    1.008786
    68  H    0.997167
    69  H    0.988129
    70  H    0.994257
    71  H    1.001506
    72  H    1.003490
    73  H    0.982805
    74  H    0.984948
    75  H    0.982942
    76  H    0.991677
    77  H    1.000045
    78  H    0.993730
    79  H    0.994141
    80  Mg  11.999997
    81  C    5.999995
    82  C    5.999968
    83  C    6.000002
    84  C    6.000018
    85  N    6.999985
    86  C    6.000027
    87  C    5.999990
    88  C    6.000012
    89  C    5.999998
    90  C    6.000002
    91  C    5.999992
    92  C    5.999993
    93  H    1.000001
    94  N    7.000011
    95  C    5.999978
    96  C    6.000009
    97  C    5.999995
    98  C    5.999988
    99  C    6.000000
   100  C    5.999965
   101  O    7.999974
   102  C    5.999998
   103  N    7.000012
   104  C    5.999976
   105  C    6.000010
   106  C    5.999992
   107  C    6.000000
   108  C    6.000000
   109  C    5.999993
   110  C    6.000000
   111  N    7.000008
   112  C    6.000009
   113  C    6.000028
   114  C    5.999968
   115  C    6.000019
   116  C    6.000001
   117  C    6.000043
   118  O    8.000031
   119  C    5.999988
   120  C    6.000017
   121  O    7.999997
   122  O    8.000004
   123  C    5.999999
   124  H    0.999983
   125  H    0.999996
   126  H    1.000016
   127  H    1.000002
   128  H    0.999999
   129  H    0.999994
   130  H    0.999986
   131  H    0.999993
   132  H    1.000016
   133  H    0.999997
   134  H    1.000011
   135  H    1.000009
   136  H    0.999973
   137  H    0.999973
   138  H    0.999982
   139  H    0.999994
   140  H    0.999985
   141  H    0.999977
   142  H    1.000003
   143  H    1.000001
   144  H    0.999987
   145  H    0.999996
   146  H    0.999997
   147  H    1.000005
   148  H    1.000013
   149  H    1.000004
   150  H    1.000003
   151  H    0.999999
   152  H    1.000025
   153  H    1.000026
   154  H    1.000029
   155  H    1.000019
   156  H    0.999998
   157  H    1.000000
   158  H    1.000015
 Sum of Mulliken charges = 624.00000

 Dipole moment (field-independent basis, Debye):
    X=             -0.8590    Y=             10.0276    Z=             -0.6126  Tot=             10.0829
 Quadrupole moment (field-independent basis, Debye-Ang):
   XX=            -57.3782   YY=             10.4495   ZZ=             -0.8019
   XY=            314.6434   XZ=            -17.7343   YZ=             -1.6210

 Normal termination of Gaussian 16 at Fri Oct 15 08:03:59 2021.
