 Gaussian 16, Revision A.03,
 Gaussian 16:  ES64L-G16RevA.03 25-Dec-2016

 --------------------------------------------------------
 #p PBE1PBE/Def2SVP td=(nstates=5) density=(transition=1)
 --------------------------------------------------------

 --------------------------------
 TDDFT excited states in gaussian
 --------------------------------
 Symbolic Z-matrix:
 Charge =  0 Multiplicity = 1

                         Standard orientation:
 ---------------------------------------------------------------------
 Center     Atomic      Atomic             Coordinates (Angstroms)
 Number     Number       Type             X           Y           Z
 ---------------------------------------------------------------------
      1         12           0       11.907826   -0.102224    0.498957
      2          6           0        8.648681    0.224093   -0.565661
      3          6           0       12.875428    2.141804   -2.108027
      4          6           0       15.064314   -0.634814    1.217012
      5          6           0       10.931035   -2.416432    2.918433
      6          7           0       10.812345    1.014163   -1.103290
      7          6           0        9.493917    1.018857   -1.320779
      8          6           0        9.172309    2.043959   -2.456740
      9          6           0       10.598471    2.519968   -2.995931
     10          6           0       11.535937    1.789739   -2.014938
     11          6           0       11.001806    2.054182   -4.381754
     12          6           0        8.224584    3.182074   -2.049107
     13          6           0        7.071798    3.321365   -3.029095
     14          1           0        6.361060    4.667621   -3.230500
     15          7           0       13.702538    0.720399   -0.291410
     16          6           0       13.906714    1.631516   -1.287265
     17          6           0       15.254562    1.953341   -1.444242
     18          6           0       15.972253    1.068333   -0.566168
     19          6           0       14.904877    0.330529    0.194036
     20          6           0       15.775013    2.995644   -2.423327
     21          6           0       17.472101    0.858636   -0.436420
     22          8           0       17.880233   -0.084710    0.268475
     23          6           0       18.442365    1.656359   -1.208153
     24          7           0       12.803919   -1.306653    1.870958
     25          6           0       14.170522   -1.337850    2.058582
     26          6           0       14.656566   -2.342913    3.167909
     27          6           0       13.259443   -2.661343    3.852988
     28          6           0       12.259292   -2.117260    2.816556
     29          6           0       15.440944   -3.663659    2.799383
     30          6           0       13.043140   -2.238356    5.376682
     31          6           0       12.760808   -0.777870    5.611150
     32          7           0       10.233441   -1.050416    1.010178
     33          6           0        9.931122   -1.969163    1.997165
     34          6           0        8.565573   -2.302152    2.016490
     35          6           0        8.041594   -1.432417    1.053156
     36          6           0        9.085078   -0.670375    0.451390
     37          6           0        7.998939   -3.233841    3.001290
     38          6           0        6.810881   -1.171694    0.411425
     39          8           0        5.736505   -1.752692    0.577510
     40          6           0        7.110598   -0.030988   -0.694891
     41          6           0        6.713727   -0.522324   -2.002675
     42          8           0        7.296969   -1.338550   -2.678841
     43          8           0        5.526734   -0.032957   -2.339401
     44          6           0        4.899832   -0.493108   -3.541509
     45          1           0       13.166646    2.787073   -2.938943
     46          1           0       16.060512   -0.915335    1.564443
     47          1           0       10.668820   -3.146325    3.687231
     48          1           0        8.725109    1.376153   -3.192358
     49          1           0       10.525859    3.605349   -3.073573
     50          1           0       10.222604    1.518432   -4.924724
     51          1           0       11.828595    1.347534   -4.315061
     52          1           0       11.440892    2.883602   -4.936983
     53          1           0        8.699872    4.155459   -1.926510
     54          1           0        7.843235    2.950739   -1.054820
     55          1           0        6.271329    2.693645   -2.635862
     56          1           0        7.455918    2.983340   -3.991351
     57          1           0       14.968207    3.606868   -2.827896
     58          1           0       16.164879    2.484162   -3.303654
     59          1           0       16.608178    3.553280   -1.997199
     60          1           0       19.398430    1.137106   -1.283589
     61          1           0       18.628209    2.565988   -0.636227
     62          1           0       18.059283    1.855104   -2.208785
     63          1           0       15.195824   -1.842216    3.972658
     64          1           0       13.162893   -3.742003    3.949936
     65          1           0       15.564647   -3.683236    1.717320
     66          1           0       14.776254   -4.517054    2.939332
     67          1           0       16.392753   -3.856335    3.295239
     68          1           0       13.993635   -2.426085    5.875503
     69          1           0       12.317611   -2.851800    5.909544
     70          1           0       12.118738   -0.719327    6.489331
     71          1           0       12.348375   -0.150670    4.821815
     72          1           0       13.724429   -0.308569    5.809436
     73          1           0        8.461209   -3.299873    3.985873
     74          1           0        7.755168   -4.229794    2.633459
     75          1           0        7.003542   -2.809898    3.131344
     76          1           0        6.515357    0.844622   -0.436580
     77          1           0        5.179185    0.104435   -4.410021
     78          1           0        3.827087   -0.352518   -3.410312
     79          1           0        5.178517   -1.529807   -3.731034
     80         12           0      -11.630997   -0.363183   -0.438332
     81          6           0      -10.825703    2.632276    1.133971
     82          6           0       -8.636426   -0.131463   -2.171114
     83          6           0      -11.996005   -3.440370   -1.588505
     84          6           0      -14.326689   -0.730914    1.700954
     85          7           0       -9.862172    0.982152   -0.397968
     86          6           0       -9.818111    2.215632    0.218863
     87          6           0       -8.620790    3.025193   -0.182808
     88          6           0       -8.159933    2.277338   -1.510820
     89          6           0       -8.879605    0.943665   -1.360338
     90          6           0       -8.215741    2.983867   -2.947760
     91          6           0       -7.503243    3.202285    0.946679
     92          6           0       -7.307724    2.036915    1.961630
     93          1           0       -5.865241    1.734055    2.288923
     94          7           0      -10.421699   -1.674580   -1.617044
     95          6           0       -9.211955   -1.372392   -2.254554
     96          6           0       -8.679215   -2.515338   -2.944120
     97          6           0       -9.647720   -3.532930   -2.772114
     98          6           0      -10.746594   -2.945189   -1.949321
     99          6           0       -7.470180   -2.363574   -3.868587
    100          6           0       -9.480827   -4.931440   -3.408862
    101          8           0       -8.454818   -5.257937   -4.014228
    102          6           0      -10.639392   -5.830833   -3.299524
    103          7           0      -12.924549   -1.873799    0.125752
    104          6           0      -13.033366   -2.965220   -0.719492
    105          6           0      -14.264238   -3.845864   -0.411062
    106          6           0      -14.829732   -3.024102    0.819023
    107          6           0      -13.971433   -1.843773    0.933718
    108          6           0      -15.286091   -4.081354   -1.478208
    109          6           0      -14.783604   -3.851606    2.201607
    110          6           0      -16.085914   -3.731702    2.949332
    111          7           0      -12.585175    0.798806    1.004438
    112          6           0      -13.681650    0.510571    1.795744
    113          6           0      -13.947775    1.638027    2.718150
    114          6           0      -12.830247    2.512867    2.484509
    115          6           0      -12.065511    1.944612    1.459051
    116          6           0      -14.901065    1.754681    3.837293
    117          6           0      -12.104647    3.732894    2.897795
    118          8           0      -12.339611    4.492726    3.808748
    119          6           0      -10.818414    3.875074    2.021883
    120          6           0      -10.809835    5.168884    1.338147
    121          8           0      -10.015971    6.105917    1.426243
    122          8           0      -12.080001    5.314393    0.721120
    123          6           0      -12.259238    6.544479   -0.079549
    124          1           0       -7.829639    0.100385   -2.870274
    125          1           0      -12.324405   -4.375947   -2.045743
    126          1           0      -15.238584   -0.910089    2.273326
    127          1           0       -8.916487    4.050063   -0.406824
    128          1           0       -7.107764    2.106445   -1.281757
    129          1           0       -8.498487    4.036407   -2.948410
    130          1           0       -8.949831    2.546344   -3.624234
    131          1           0       -7.206175    3.047445   -3.354688
    132          1           0       -7.641153    4.143760    1.477363
    133          1           0       -6.564607    3.362602    0.416298
    134          1           0       -7.801552    1.131294    1.608050
    135          1           0       -7.778063    2.292392    2.910763
    136          1           0       -6.850258   -3.258353   -3.933154
    137          1           0       -6.793705   -1.617981   -3.451589
    138          1           0       -7.878991   -2.137517   -4.853691
    139          1           0      -11.435275   -5.448172   -3.937767
    140          1           0      -10.943867   -5.913765   -2.255731
    141          1           0      -10.286849   -6.789394   -3.680173
    142          1           0      -13.898229   -4.766892    0.043240
    143          1           0      -15.778966   -2.652612    0.433003
    144          1           0      -16.139216   -4.536849   -0.975145
    145          1           0      -14.890643   -4.859763   -2.130772
    146          1           0      -15.507402   -3.153573   -2.007123
    147          1           0      -13.930724   -3.466342    2.760268
    148          1           0      -14.502314   -4.903732    2.141548
    149          1           0      -15.903709   -3.132456    3.841089
    150          1           0      -16.380378   -4.668636    3.423308
    151          1           0      -16.805543   -3.174031    2.350315
    152          1           0      -15.553953    0.895371    3.997410
    153          1           0      -15.558984    2.584440    3.581294
    154          1           0      -14.210281    1.756425    4.680211
    155          1           0       -9.996143    3.795536    2.732584
    156          1           0      -12.730287    6.156439   -0.983403
    157          1           0      -11.404489    7.152229   -0.376574
    158          1           0      -13.077129    7.069476    0.414291
 ---------------------------------------------------------------------

 SCF Done:  E(RPBE1PBE) =  -4067.39238123     A.U. after   16 cycles

 Excitation energies and oscillator strengths:

 Excited State   1:      Singlet-A      1.8388 eV  674.27 nm  f=0.0000  <S**2>=0.000
     312 -> 313        0.70708
 This state for optimization and/or second-order correction.
 Total Energy, E(TD-HF/TD-DFT) =  -4067.32480692
 Copying the excited state density for this state as the 1-particle RhoCI density.

 Excited State   2:      Singlet-A      1.8668 eV  664.14 nm  f=0.5390  <S**2>=0.000
     309 -> 316        0.14704
     311 -> 313        0.61707
     312 -> 314        0.31493

 Excited State   3:      Singlet-A      1.8723 eV  662.20 nm  f=0.2275  <S**2>=0.000
     310 -> 315        0.15794
     311 -> 313       -0.31597
     312 -> 314        0.61386

 Excited State   4:      Singlet-A      2.0127 eV  616.02 nm  f=0.0000  <S**2>=0.000
     311 -> 314        0.70709

 Excited State   5:      Singlet-A      2.2140 eV  559.99 nm  f=0.0901  <S**2>=0.000
     310 -> 314        0.64320
     312 -> 315       -0.27387

 The electronic state is 1-A.
 Alpha  occ. eigenvalues --  -46.92407 -46.91056 -19.25365 -19.24945 -19.20685
 Alpha  occ. eigenvalues --  -19.19075 -19.19027 -19.18857 -19.18751 -19.18377
 Alpha  occ. eigenvalues --  -14.41793 -14.41661 -14.41630 -14.41595 -14.39287
 Alpha  occ. eigenvalues --  -14.39153 -14.38800 -14.38623 -10.36664 -10.35170
 Alpha  occ. eigenvalues --  -10.32270 -10.32074 -10.31899 -10.31643 -10.29243
 Alpha  occ. eigenvalues --  -10.29174 -10.28874 -10.28872 -10.28856 -10.28465
 Alpha  occ. eigenvalues --  -10.28361 -10.28338 -10.28176 -10.28162 -10.27895
 Alpha  occ. eigenvalues --  -10.27867 -10.27814 -10.26941 -10.26834 -10.26750
 Alpha  occ. eigenvalues --  -10.26743 -10.26630 -10.26381 -10.26347 -10.26252
 Alpha  occ. eigenvalues --  -10.26205 -10.26086 -10.25950 -10.25940 -10.25900
 Alpha  occ. eigenvalues --  -10.25851 -10.25833 -10.25796 -10.25795 -10.25751
 Alpha  occ. eigenvalues --  -10.25641 -10.25489 -10.25457 -10.25432 -10.25153
 Alpha  occ. eigenvalues --  -10.25017 -10.24943 -10.24856 -10.24783 -10.24772
 Alpha  occ. eigenvalues --  -10.24674 -10.24519 -10.24437 -10.24404 -10.24349
 Alpha  occ. eigenvalues --  -10.24275 -10.24121 -10.23871 -10.23780 -10.23619
 Alpha  occ. eigenvalues --  -10.23615 -10.23531 -10.23484 -10.23238 -10.23179
 Alpha  occ. eigenvalues --  -10.23165 -10.23138 -10.23133 -10.23008 -10.22400
 Alpha  occ. eigenvalues --  -10.22334  -3.14513  -3.13415  -1.87338  -1.86903
 Alpha  occ. eigenvalues --   -1.86728  -1.86256  -1.85808  -1.85642  -1.12642
 Alpha  occ. eigenvalues --   -1.09469  -1.05106  -1.03927  -1.03596  -1.03121
 Alpha  occ. eigenvalues --   -1.02519  -1.01653  -0.99602  -0.99238  -0.98321
 Alpha  occ. eigenvalues --   -0.98270  -0.97888  -0.97755  -0.97163  -0.96874
 Alpha  occ. eigenvalues --   -0.86739  -0.86397  -0.83876  -0.83620  -0.83431
 Alpha  occ. eigenvalues --   -0.82981  -0.82572  -0.82190  -0.81898  -0.81859
 Alpha  occ. eigenvalues --   -0.81843  -0.81165  -0.81022  -0.80341  -0.78951
 Alpha  occ. eigenvalues --   -0.78819  -0.78682  -0.78082  -0.77183  -0.76865
 Alpha  occ. eigenvalues --   -0.76482  -0.76482  -0.75510  -0.75109  -0.74927
 Alpha  occ. eigenvalues --   -0.74411  -0.72610  -0.72558  -0.71692  -0.71616
 Alpha  occ. eigenvalues --   -0.71176  -0.71001  -0.70435  -0.70228  -0.70007
 Alpha  occ. eigenvalues --   -0.69584  -0.67874  -0.67028  -0.66493  -0.65841
 Alpha  occ. eigenvalues --   -0.63955  -0.63657  -0.63580  -0.63258  -0.62496
 Alpha  occ. eigenvalues --   -0.62126  -0.61429  -0.61154  -0.60782  -0.59809
 Alpha  occ. eigenvalues --   -0.59385  -0.59278  -0.59099  -0.58991  -0.58848
 Alpha  occ. eigenvalues --   -0.58458  -0.56998  -0.56851  -0.54899  -0.54710
 Alpha  occ. eigenvalues --   -0.54545  -0.53891  -0.53534  -0.53457  -0.53117
 Alpha  occ. eigenvalues --   -0.52807  -0.52785  -0.52162  -0.52026  -0.51693
 Alpha  occ. eigenvalues --   -0.51085  -0.50805  -0.50561  -0.50282  -0.49816
 Alpha  occ. eigenvalues --   -0.49621  -0.49560  -0.49118  -0.49020  -0.48876
 Alpha  occ. eigenvalues --   -0.48306  -0.48075  -0.47752  -0.47525  -0.47263
 Alpha  occ. eigenvalues --   -0.47181  -0.46932  -0.46874  -0.46755  -0.46641
 Alpha  occ. eigenvalues --   -0.46602  -0.46404  -0.46342  -0.46174  -0.45826
 Alpha  occ. eigenvalues --   -0.45640  -0.45305  -0.44968  -0.44879  -0.44750
 Alpha  occ. eigenvalues --   -0.44690  -0.44474  -0.44243  -0.44218  -0.44124
 Alpha  occ. eigenvalues --   -0.44030  -0.43856  -0.43791  -0.43702  -0.43499
 Alpha  occ. eigenvalues --   -0.43399  -0.43105  -0.43033  -0.42866  -0.42777
 Alpha  occ. eigenvalues --   -0.42705  -0.42401  -0.42314  -0.41962  -0.41810
 Alpha  occ. eigenvalues --   -0.41587  -0.41563  -0.41196  -0.41156  -0.41069
 Alpha  occ. eigenvalues --   -0.40884  -0.40839  -0.40756  -0.40374  -0.40192
 Alpha  occ. eigenvalues --   -0.40164  -0.40059  -0.39832  -0.39804  -0.39723
 Alpha  occ. eigenvalues --   -0.39658  -0.39618  -0.39428  -0.39324  -0.39268
 Alpha  occ. eigenvalues --   -0.39165  -0.38649  -0.38627  -0.38362  -0.38241
 Alpha  occ. eigenvalues --   -0.38194  -0.38023  -0.37874  -0.37744  -0.37599
 Alpha  occ. eigenvalues --   -0.37483  -0.37335  -0.37244  -0.36911  -0.36822
 Alpha  occ. eigenvalues --   -0.36687  -0.36514  -0.36427  -0.36294  -0.36273
 Alpha  occ. eigenvalues --   -0.36065  -0.36001  -0.35900  -0.35818  -0.35352
 Alpha  occ. eigenvalues --   -0.35234  -0.34786  -0.34089  -0.33961  -0.33768
 Alpha  occ. eigenvalues --   -0.33425  -0.33079  -0.32871  -0.32695  -0.32353
 Alpha  occ. eigenvalues --   -0.32166  -0.31868  -0.31579  -0.31495  -0.31299
 Alpha  occ. eigenvalues --   -0.31119  -0.30495  -0.30217  -0.29632  -0.29396
 Alpha  occ. eigenvalues --   -0.28823  -0.28804  -0.28418  -0.27062  -0.26825
 Alpha  occ. eigenvalues --   -0.25812  -0.25789  -0.25669  -0.25452  -0.25441
 Alpha  occ. eigenvalues --   -0.25389  -0.25257  -0.25219  -0.21048  -0.20914
 Alpha  occ. eigenvalues --   -0.19047  -0.18781
 Alpha virt. eigenvalues --   -0.11452  -0.11075  -0.05626  -0.04989  -0.03666
 Alpha virt. eigenvalues --   -0.03443  -0.01870  -0.01859  -0.01030  -0.00427
 Alpha virt. eigenvalues --    0.00297   0.00887   0.01287   0.01816   0.02144

 Mulliken charges:
               1
     1  Mg  12.000000
     2  C    6.000000
     3  C    6.000000
     4  C    6.000000
     5  C    6.000000
     6  N    7.000000
     7  C    6.000000
     8  C    6.000000
     9  C    6.000000
    10  C    6.000000
    11  C    6.000000
    12  C    6.000000
    13  C    6.000000
    14  H    1.000000
    15  N    7.000000
    16  C    6.000000
    17  C    6.000000
    18  C    6.000000
    19  C    6.000000
    20  C    6.000000
    21  C    6.000000
    22  O    8.000000
    23  C    6.000000
    24  N    7.000000
    25  C    6.000000
    26  C    6.000000
    27  C    6.000000
    28  C    6.000000
    29  C    6.000000
    30  C    6.000000
    31  C    6.000000
    32  N    7.000000
    33  C    6.000000
    34  C    6.000000
    35  C    6.000000
    36  C    6.000000
    37  C    6.000000
    38  C    6.000000
    39  O    8.000000
    40  C    6.000000
    41  C    6.000000
    42  O    8.000000
    43  O    8.000000
    44  C    6.000000
    45  H    1.000000
    46  H    1.000000
    47  H    1.000000
    48  H    1.000000
    49  H    1.000000
    50  H    1.000000
    51  H    1.000000
    52  H    1.000000
    53  H    1.000000
    54  H    1.000000
    55  H    1.000000
    56  H    1.000000
    57  H    1.000000
    58  H    1.000000
    59  H    1.000000
    60  H    1.000000
    61  H    1.000000
    62  H    1.000000
    63  H    1.000000
    64  H    1.000000
    65  H    1.000000
    66  H    1.000000
    67  H    1.000000
    68  H    1.000000
    69  H    1.000000
    70  H    1.000000
    71  H    1.000000
    72  H    1.000000
    73  H    1.000000
    74  H    1.000000
    75  H    1.000000
    76  H    1.000000
    77  H    1.000000
    78  H    1.000000
    79  H    1.000000
    80  Mg  12.000000
    81  C    6.000000
    82  C    6.000000
    83  C    6.000000
    84  C    6.000000
    85  N    7.000000
    86  C    6.000000
    87  C    6.000000
    88  C    6.000000
    89  C    6.000000
    90  C    6.000000
    91  C    6.000000
    92  C    6.000000
    93  H    1.000000
    94  N    7.000000
    95  C    6.000000
    96  C    6.000000
    97  C    6.000000
    98  C    6.000000
    99  C    6.000000
   100  C    6.000000
   101  O    8.000000
   102  C    6.000000
   103  N    7.000000
   104  C    6.000000
   105  C    6.000000
   106  C    6.000000
   107  C    6.000000
   108  C    6.000000
   109  C    6.000000
   110  C    6.000000
   111  N    7.000000
   112  C    6.000000
   113  C    6.000000
   114  C    6.000000
   115  C    6.000000
   116  C    6.000000
   117  C    6.000000
   118  O    8.000000
   119  C    6.000000
   120  C    6.000000
   121  O    8.000000
   122  O    8.000000
   123  C    6.000000
   124  H    1.000000
   125  H    1.000000
   126  H    1.000000
   127  H    1.000000
   128  H    1.000000
   129  H    1.000000
   130  H    1.000000
   131  H    1.000000
   132  H    1.000000
   133  H    1.000000
   134  H    1.000000
   135  H    1.000000
   136  H    1.000000
   137  H    1.000000
   138  H    1.000000
   139  H    1.000000
   140  H    1.000000
   141  H    1.000000
   142  H    1.000000
   143  H    1.000000
   144  H    1.000000
   145  H    1.000000
   146  H    1.000000
   147  H    1.000000
   148  H    1.000000
   149  H    1.000000
   150  H    1.000000
   151  H    1.000000
   152  H    1.000000
   153  H    1.000000
   154  H    1.000000
   155  H    1.000000
   156  H    1.000000
   157  H    1.000000
   158  H    1.000000
 Sum of Mulliken charges = 624.00000

 Dipole moment (field-independent basis, Debye):
    X=             -0.0000    Y=              0.0000    Z=              0.0000  Tot=              0.0000
 Quadrupole moment (field-independent basis, Debye-Ang):
   XX=              0.0000   YY=             -0.0000   ZZ=             -0.0000
   XY=             -0.0000   XZ=             -0.0000   YZ=             -0.0000

 Normal termination of Gaussian 16 at Thu Oct 14 21:15:02 2021.
