 Gaussian 16, Revision A.03,
 Gaussian 16:  ES64L-G16RevA.03 25-Dec-2016

 --------------------------------------------------------
 #p PBE1PBE/Def2SVP td=(nstates=5) density=(transition=1)
 --------------------------------------------------------

 --------------------------------
 TDDFT excited states in gaussian
 --------------------------------
 Symbolic Z-matrix:
 Charge =  0 Multiplicity = 1

                         Standard orientation:
 ---------------------------------------------------------------------
 Center     Atomic      Atomic             Coordinates (Angstroms)
 Number     Number       Type             X           Y           Z
 ---------------------------------------------------------------------
      1         12           0      -28.514355   -0.012176   -0.793693
      2          6           0      -24.970932    0.187160   -0.508114
      3          6           0      -28.318666   -3.421748   -0.530484
      4          6           0      -31.924836   -0.098575   -0.013814
      5          6           0      -28.669812    3.483045   -0.465475
      6          7           0      -26.719211   -1.413280   -0.277705
      7          6           0      -25.411752   -1.157939   -0.448291
      8          6           0      -24.674426   -2.460078   -0.701962
      9          6           0      -25.739239   -3.658255   -0.642967
     10          6           0      -27.048049   -2.717450   -0.621259
     11          6           0      -25.603328   -4.508451   -1.926116
     12          6           0      -23.546269   -2.647591    0.299630
     13          6           0      -23.818177   -2.188749    1.751980
     14          1           0      -24.027766   -3.304479    2.811934
     15          7           0      -29.980512   -1.580417   -0.413094
     16          6           0      -29.628799   -2.910843   -0.342710
     17          6           0      -30.859327   -3.632912   -0.256739
     18          6           0      -31.954906   -2.721748   -0.005495
     19          6           0      -31.345295   -1.379007   -0.179272
     20          6           0      -30.914357   -5.140540   -0.168790
     21          6           0      -33.366079   -3.059661    0.478033
     22          8           0      -33.663490   -4.211477    0.729782
     23          6           0      -34.389220   -2.077053    0.675645
     24          7           0      -30.062675    1.462651   -0.206711
     25          6           0      -31.352423    1.178385   -0.102084
     26          6           0      -32.214709    2.392407    0.203097
     27          6           0      -31.075280    3.479715    0.415399
     28          6           0      -29.874079    2.826095   -0.166486
     29          6           0      -33.242679    2.771670   -0.971511
     30          6           0      -30.975860    3.892151    1.955925
     31          6           0      -31.375080    5.269507    2.404288
     32          7           0      -27.193009    1.502228   -0.787699
     33          6           0      -27.406232    2.895749   -0.776384
     34          6           0      -26.130979    3.618306   -0.939720
     35          6           0      -25.208480    2.575315   -0.858961
     36          6           0      -25.842605    1.302305   -0.641889
     37          6           0      -25.872868    5.134086   -1.245909
     38          6           0      -23.764442    2.320380   -0.870844
     39          8           0      -22.773088    3.056276   -1.007151
     40          6           0      -23.540780    0.785787   -0.665398
     41          6           0      -22.800691    0.811383    0.627290
     42          8           0      -23.209575    1.290099    1.653954
     43          8           0      -21.567511    0.343836    0.455874
     44          6           0      -20.661934    0.195390    1.648277
     45          1           0      -28.259451   -4.490044   -0.748184
     46          1           0      -32.995411    0.025464    0.160985
     47          1           0      -28.823729    4.542711   -0.248832
     48          1           0      -24.282212   -2.226908   -1.691888
     49          1           0      -25.634499   -4.267473    0.255193
     50          1           0      -25.351322   -5.527163   -1.632146
     51          1           0      -24.810534   -4.185594   -2.601399
     52          1           0      -26.589460   -4.504518   -2.389700
     53          1           0      -22.663234   -2.107223   -0.041587
     54          1           0      -23.297108   -3.704246    0.401348
     55          1           0      -24.743111   -1.646498    1.947861
     56          1           0      -22.952427   -1.577958    2.008190
     57          1           0      -29.917815   -5.581981   -0.140710
     58          1           0      -31.551262   -5.494031   -0.980378
     59          1           0      -31.497209   -5.390649    0.716988
     60          1           0      -34.189881   -1.344557    1.458126
     61          1           0      -35.320199   -2.576393    0.943364
     62          1           0      -34.416810   -1.564975   -0.286794
     63          1           0      -32.736700    2.337798    1.158085
     64          1           0      -31.523626    4.347985   -0.067838
     65          1           0      -33.177899    2.027088   -1.765460
     66          1           0      -32.917804    3.726163   -1.386070
     67          1           0      -34.280816    2.919618   -0.670074
     68          1           0      -29.940827    3.893718    2.297890
     69          1           0      -31.539211    3.201677    2.582106
     70          1           0      -30.532526    5.938928    2.577905
     71          1           0      -31.858661    5.016077    3.348273
     72          1           0      -32.201790    5.711496    1.847899
     73          1           0      -26.041240    5.689937   -0.323935
     74          1           0      -26.530049    5.409351   -2.070961
     75          1           0      -24.818001    5.259419   -1.489468
     76          1           0      -22.985614    0.444994   -1.540098
     77          1           0      -20.135701    1.117271    1.896940
     78          1           0      -19.912068   -0.578507    1.479332
     79          1           0      -21.320818   -0.121675    2.456615
     80         12           0       27.829657    0.726099   -0.657166
     81          6           0       26.718691   -2.579454    0.004295
     82          6           0       24.915787    1.855292    0.892481
     83          6           0       29.395726    3.588654   -0.222019
     84          6           0       30.905308   -0.806759   -1.919975
     85          7           0       26.104107   -0.312545    0.579568
     86          6           0       25.772832   -1.620932    0.447307
     87          6           0       24.357502   -1.834430    0.953390
     88          6           0       23.658295   -0.504331    0.672024
     89          6           0       24.965387    0.436325    0.770400
     90          6           0       22.985000   -0.306203   -0.687299
     91          6           0       24.400136   -2.324497    2.466286
     92          6           0       23.477547   -3.451444    2.718774
     93          1           0       22.667811   -3.430770    4.029830
     94          7           0       27.274815    2.534689    0.272101
     95          6           0       25.983972    2.820207    0.782196
     96          6           0       26.009889    4.197752    1.205124
     97          6           0       27.244011    4.794730    0.834461
     98          6           0       28.066953    3.657778    0.287674
     99          6           0       24.797608    4.825287    1.885937
    100          6           0       27.651441    6.191642    1.091741
    101          8           0       26.868375    6.938479    1.665477
    102          6           0       28.981991    6.808238    0.808912
    103          7           0       29.980890    1.259779   -0.959250
    104          6           0       30.223614    2.582793   -0.872737
    105          6           0       31.625134    2.915281   -1.415910
    106          6           0       32.091653    1.522069   -2.124075
    107          6           0       30.927999    0.589256   -1.699466
    108          6           0       31.693296    4.232286   -2.312806
    109          6           0       33.513830    1.011799   -1.732762
    110          6           0       33.612958   -0.097698   -0.630925
    111          7           0       28.648841   -1.186998   -0.919554
    112          6           0       29.870251   -1.630067   -1.502399
    113          6           0       29.791590   -3.142617   -1.701842
    114          6           0       28.603917   -3.485464   -1.075645
    115          6           0       27.954207   -2.274145   -0.643533
    116          6           0       30.751365   -4.160125   -2.348167
    117          6           0       27.735368   -4.577457   -0.769426
    118          8           0       27.818514   -5.770624   -1.065284
    119          6           0       26.633293   -3.996151    0.042212
    120          6           0       26.930331   -4.529174    1.462511
    121          8           0       27.767266   -4.105340    2.256787
    122          8           0       26.100374   -5.666563    1.665479
    123          6           0       26.268433   -6.411287    2.846784
    124          1           0       23.985687    2.276415    1.280149
    125          1           0       29.762322    4.616658   -0.193037
    126          1           0       31.712894   -1.345421   -2.418699
    127          1           0       23.795015   -2.561232    0.367521
    128          1           0       22.871163   -0.143221    1.332939
    129          1           0       22.773159   -1.236732   -1.213141
    130          1           0       23.471751    0.479081   -1.266180
    131          1           0       22.009191    0.089173   -0.402828
    132          1           0       24.078647   -1.502552    3.106027
    133          1           0       25.404622   -2.497230    2.852788
    134          1           0       24.155216   -4.302894    2.667622
    135          1           0       22.759318   -3.493823    1.900100
    136          1           0       24.242951    5.496737    1.230778
    137          1           0       25.124419    5.301655    2.809101
    138          1           0       24.090356    4.051873    2.185831
    139          1           0       29.102903    6.873572   -0.272669
    140          1           0       29.845229    6.292782    1.231674
    141          1           0       28.989505    7.871471    1.045781
    142          1           0       32.214626    3.033710   -0.506997
    143          1           0       31.987284    1.631631   -3.202993
    144          1           0       30.876602    4.913006   -2.072931
    145          1           0       31.808581    4.133242   -3.392810
    146          1           0       32.696803    4.605066   -2.101709
    147          1           0       34.180355    1.822962   -1.440870
    148          1           0       33.860531    0.571502   -2.667349
    149          1           0       34.572920    0.232788   -0.233559
    150          1           0       33.693217   -1.136184   -0.952925
    151          1           0       32.809052    0.077225    0.084378
    152          1           0       30.263056   -4.696072   -3.161308
    153          1           0       30.771623   -4.860432   -1.513690
    154          1           0       31.703566   -3.655574   -2.510546
    155          1           0       25.680024   -4.402724   -0.295732
    156          1           0       25.611265   -7.277208    2.936000
    157          1           0       26.056789   -5.745720    3.682689
    158          1           0       27.308741   -6.737231    2.826158
 ---------------------------------------------------------------------

 SCF Done:  E(RPBE1PBE) =  -4067.29245083     A.U. after   16 cycles

 Excitation energies and oscillator strengths:

 Excited State   1:      Singlet-A      1.8406 eV  673.62 nm  f=0.3417  <S**2>=0.000
     310 -> 315        0.18908
     312 -> 314        0.68690
 This state for optimization and/or second-order correction.
 Total Energy, E(TD-HF/TD-DFT) =  -4067.22481118
 Copying the excited state density for this state as the 1-particle RhoCI density.

 Excited State   2:      Singlet-A      1.8532 eV  669.02 nm  f=0.3491  <S**2>=0.000
     309 -> 316        0.19401
     311 -> 313        0.68716

 Excited State   3:      Singlet-A      1.9700 eV  629.36 nm  f=0.0000  <S**2>=0.000
     312 -> 313        0.70711

 Excited State   4:      Singlet-A      2.0895 eV  593.36 nm  f=0.0000  <S**2>=0.000
     311 -> 314        0.70711

 Excited State   5:      Singlet-A      2.1946 eV  564.94 nm  f=0.0643  <S**2>=0.000
     310 -> 314        0.63434
     312 -> 315       -0.29981

 The electronic state is 1-A.
 Alpha  occ. eigenvalues --  -46.94685 -46.93590 -19.25711 -19.25363 -19.21585
 Alpha  occ. eigenvalues --  -19.19139 -19.19083 -19.19083 -19.18264 -19.17832
 Alpha  occ. eigenvalues --  -14.41934 -14.41878 -14.41509 -14.41467 -14.39864
 Alpha  occ. eigenvalues --  -14.39851 -14.39455 -14.39202 -10.37646 -10.35741
 Alpha  occ. eigenvalues --  -10.32193 -10.31626 -10.31415 -10.31294 -10.29779
 Alpha  occ. eigenvalues --  -10.29675 -10.29631 -10.29233 -10.29209 -10.29149
 Alpha  occ. eigenvalues --  -10.28996 -10.28805 -10.28702 -10.28605 -10.28558
 Alpha  occ. eigenvalues --  -10.28513 -10.28362 -10.28239 -10.27880 -10.27718
 Alpha  occ. eigenvalues --  -10.27479 -10.27068 -10.27004 -10.26721 -10.26645
 Alpha  occ. eigenvalues --  -10.26580 -10.26547 -10.26369 -10.26229 -10.26194
 Alpha  occ. eigenvalues --  -10.26042 -10.26024 -10.25901 -10.25893 -10.25766
 Alpha  occ. eigenvalues --  -10.25690 -10.25673 -10.25666 -10.25562 -10.25461
 Alpha  occ. eigenvalues --  -10.25345 -10.25312 -10.25198 -10.25170 -10.25095
 Alpha  occ. eigenvalues --  -10.24890 -10.24739 -10.24732 -10.24569 -10.24544
 Alpha  occ. eigenvalues --  -10.24446 -10.24321 -10.24299 -10.24174 -10.24099
 Alpha  occ. eigenvalues --  -10.23856 -10.23818 -10.23662 -10.23566 -10.23109
 Alpha  occ. eigenvalues --  -10.23099 -10.22977 -10.22931 -10.22771 -10.22646
 Alpha  occ. eigenvalues --  -10.22475  -3.16473  -3.15484  -1.89250  -1.88897
 Alpha  occ. eigenvalues --   -1.88649  -1.88285  -1.87888  -1.87683  -1.11833
 Alpha  occ. eigenvalues --   -1.10546  -1.04936  -1.04269  -1.04130  -1.03581
 Alpha  occ. eigenvalues --   -1.03445  -1.02525  -0.99222  -0.98800  -0.98283
 Alpha  occ. eigenvalues --   -0.98060  -0.97475  -0.97093  -0.96232  -0.95976
 Alpha  occ. eigenvalues --   -0.88749  -0.86313  -0.83436  -0.83259  -0.83059
 Alpha  occ. eigenvalues --   -0.83012  -0.82568  -0.82086  -0.81549  -0.81411
 Alpha  occ. eigenvalues --   -0.81173  -0.80488  -0.79905  -0.79619  -0.79062
 Alpha  occ. eigenvalues --   -0.78919  -0.78342  -0.77941  -0.77090  -0.76974
 Alpha  occ. eigenvalues --   -0.76842  -0.75866  -0.75438  -0.75140  -0.74620
 Alpha  occ. eigenvalues --   -0.74610  -0.72356  -0.72247  -0.71645  -0.71581
 Alpha  occ. eigenvalues --   -0.71193  -0.70702  -0.70567  -0.70334  -0.69574
 Alpha  occ. eigenvalues --   -0.69309  -0.67312  -0.67176  -0.66317  -0.66191
 Alpha  occ. eigenvalues --   -0.64267  -0.63236  -0.63165  -0.62937  -0.62543
 Alpha  occ. eigenvalues --   -0.61692  -0.61244  -0.61146  -0.60018  -0.59834
 Alpha  occ. eigenvalues --   -0.59629  -0.59443  -0.59345  -0.59208  -0.59097
 Alpha  occ. eigenvalues --   -0.58578  -0.57014  -0.56762  -0.54856  -0.54479
 Alpha  occ. eigenvalues --   -0.54322  -0.53910  -0.53861  -0.53603  -0.53290
 Alpha  occ. eigenvalues --   -0.53088  -0.52913  -0.52408  -0.51844  -0.51584
 Alpha  occ. eigenvalues --   -0.50755  -0.50648  -0.50571  -0.50369  -0.50231
 Alpha  occ. eigenvalues --   -0.49606  -0.49489  -0.49427  -0.49146  -0.49118
 Alpha  occ. eigenvalues --   -0.48468  -0.48286  -0.48091  -0.47950  -0.47700
 Alpha  occ. eigenvalues --   -0.47644  -0.47313  -0.47213  -0.46936  -0.46736
 Alpha  occ. eigenvalues --   -0.46672  -0.46474  -0.46421  -0.46202  -0.46089
 Alpha  occ. eigenvalues --   -0.45982  -0.45810  -0.45223  -0.45165  -0.44815
 Alpha  occ. eigenvalues --   -0.44781  -0.44502  -0.44370  -0.44289  -0.44044
 Alpha  occ. eigenvalues --   -0.44018  -0.43816  -0.43800  -0.43606  -0.43532
 Alpha  occ. eigenvalues --   -0.43151  -0.43131  -0.42928  -0.42921  -0.42513
 Alpha  occ. eigenvalues --   -0.42457  -0.42205  -0.41969  -0.41842  -0.41644
 Alpha  occ. eigenvalues --   -0.41623  -0.41619  -0.41338  -0.41044  -0.40799
 Alpha  occ. eigenvalues --   -0.40631  -0.40599  -0.40539  -0.40536  -0.40297
 Alpha  occ. eigenvalues --   -0.40184  -0.40096  -0.40077  -0.39934  -0.39902
 Alpha  occ. eigenvalues --   -0.39822  -0.39574  -0.39297  -0.39226  -0.39147
 Alpha  occ. eigenvalues --   -0.38918  -0.38771  -0.38581  -0.38549  -0.38359
 Alpha  occ. eigenvalues --   -0.38321  -0.38134  -0.37994  -0.37820  -0.37757
 Alpha  occ. eigenvalues --   -0.37265  -0.37257  -0.37002  -0.36889  -0.36414
 Alpha  occ. eigenvalues --   -0.36350  -0.36224  -0.36151  -0.36129  -0.35859
 Alpha  occ. eigenvalues --   -0.35767  -0.35726  -0.35357  -0.35017  -0.34970
 Alpha  occ. eigenvalues --   -0.34950  -0.34740  -0.34070  -0.33662  -0.33510
 Alpha  occ. eigenvalues --   -0.33284  -0.32939  -0.32899  -0.32625  -0.32417
 Alpha  occ. eigenvalues --   -0.32108  -0.31782  -0.31591  -0.31424  -0.31310
 Alpha  occ. eigenvalues --   -0.30794  -0.30721  -0.30033  -0.29440  -0.29287
 Alpha  occ. eigenvalues --   -0.29138  -0.28965  -0.28842  -0.27027  -0.26754
 Alpha  occ. eigenvalues --   -0.26249  -0.26029  -0.25868  -0.25541  -0.25379
 Alpha  occ. eigenvalues --   -0.25236  -0.24849  -0.24496  -0.21236  -0.20996
 Alpha  occ. eigenvalues --   -0.18996  -0.18752
 Alpha virt. eigenvalues --   -0.11278  -0.11082  -0.06002  -0.05939  -0.04377
 Alpha virt. eigenvalues --   -0.03977  -0.03143  -0.02189  -0.02078  -0.01676
 Alpha virt. eigenvalues --    0.00104   0.00404   0.00789   0.00952   0.01677

 Mulliken charges:
               1
     1  Mg  11.999905
     2  C    5.999845
     3  C    6.000372
     4  C    6.000149
     5  C    5.999649
     6  N    6.999873
     7  C    6.000460
     8  C    5.999980
     9  C    6.000196
    10  C    5.999386
    11  C    6.000046
    12  C    5.999951
    13  C    5.999918
    14  H    1.000174
    15  N    7.000145
    16  C    5.999340
    17  C    5.999668
    18  C    5.999917
    19  C    5.999407
    20  C    6.000048
    21  C    6.000015
    22  O    7.999609
    23  C    6.000026
    24  N    6.999963
    25  C    5.999607
    26  C    6.000227
    27  C    5.999811
    28  C    6.000621
    29  C    5.999990
    30  C    5.999961
    31  C    5.999954
    32  N    6.999918
    33  C    6.000622
    34  C    6.000404
    35  C    5.999962
    36  C    6.000472
    37  C    6.000098
    38  C    6.000354
    39  O    8.000475
    40  C    5.999975
    41  C    6.000093
    42  O    8.000094
    43  O    7.999963
    44  C    6.000011
    45  H    0.999871
    46  H    0.999848
    47  H    1.000172
    48  H    0.999910
    49  H    0.999897
    50  H    0.999912
    51  H    0.999839
    52  H    1.000037
    53  H    0.999942
    54  H    1.000090
    55  H    0.999997
    56  H    0.999959
    57  H    0.999720
    58  H    0.999705
    59  H    0.999749
    60  H    0.999832
    61  H    0.999802
    62  H    0.999897
    63  H    0.999979
    64  H    1.000086
    65  H    1.000044
    66  H    0.999846
    67  H    0.999979
    68  H    0.999971
    69  H    1.000186
    70  H    0.999987
    71  H    1.000079
    72  H    1.000065
    73  H    1.000247
    74  H    1.000209
    75  H    1.000163
    76  H    1.000147
    77  H    1.000054
    78  H    1.000074
    79  H    1.000052
    80  Mg  11.998036
    81  C    5.982079
    82  C    6.012265
    83  C    6.013453
    84  C    5.985099
    85  N    6.996573
    86  C    6.024764
    87  C    5.996646
    88  C    6.001665
    89  C    5.972212
    90  C    6.001191
    91  C    5.995358
    92  C    5.999117
    93  H    1.006312
    94  N    7.009601
    95  C    5.958404
    96  C    5.982029
    97  C    5.987728
    98  C    5.968953
    99  C    6.004336
   100  C    5.990493
   101  O    7.978148
   102  C    6.002612
   103  N    6.996454
   104  C    5.970409
   105  C    6.010899
   106  C    5.987925
   107  C    6.034992
   108  C    6.003024
   109  C    6.000969
   110  C    5.992223
   111  N    6.997332
   112  C    6.042541
   113  C    6.027800
   114  C    6.000738
   115  C    6.026256
   116  C    6.001707
   117  C    6.019326
   118  O    8.030680
   119  C    5.997271
   120  C    6.002725
   121  O    8.005667
   122  O    8.001553
   123  C    5.997893
   124  H    0.991093
   125  H    0.996525
   126  H    1.009274
   127  H    0.998420
   128  H    0.999635
   129  H    0.986674
   130  H    1.002197
   131  H    0.998361
   132  H    1.011807
   133  H    0.997323
   134  H    0.994364
   135  H    1.002771
   136  H    0.981796
   137  H    0.985363
   138  H    0.983505
   139  H    0.989305
   140  H    0.989035
   141  H    0.988786
   142  H    0.999385
   143  H    1.004336
   144  H    1.008240
   145  H    0.994161
   146  H    0.995511
   147  H    1.009418
   148  H    1.000094
   149  H    1.008186
   150  H    0.996134
   151  H    1.001739
   152  H    1.015843
   153  H    1.011839
   154  H    1.014712
   155  H    1.009149
   156  H    1.004349
   157  H    1.005790
   158  H    0.999422
 Sum of Mulliken charges = 624.00000

 Dipole moment (field-independent basis, Debye):
    X=              3.5853    Y=             -8.8609    Z=             -2.5575  Tot=              9.8949
 Quadrupole moment (field-independent basis, Debye-Ang):
   XX=            188.7830   YY=            -10.0235   ZZ=              2.5188
   XY=           -251.0406   XZ=            -73.6090   YZ=             -2.0252

 Normal termination of Gaussian 16 at Wed Oct 13 23:47:33 2021.
