 Gaussian 16, Revision A.03,
 Gaussian 16:  ES64L-G16RevA.03 25-Dec-2016

 --------------------------------------------------------
 #p PBE1PBE/Def2SVP td=(nstates=5) density=(transition=1)
 --------------------------------------------------------

 --------------------------------
 TDDFT excited states in gaussian
 --------------------------------
 Symbolic Z-matrix:
 Charge =  0 Multiplicity = 1

                         Standard orientation:
 ---------------------------------------------------------------------
 Center     Atomic      Atomic             Coordinates (Angstroms)
 Number     Number       Type             X           Y           Z
 ---------------------------------------------------------------------
      1         12           0      -33.275865   -0.300421   -0.572137
      2          6           0      -30.817642    1.696328    0.779314
      3          6           0      -31.462876   -3.041443    0.357467
      4          6           0      -36.090391   -2.025110   -0.701003
      5          6           0      -35.025238    2.624153   -1.417150
      6          7           0      -31.570735   -0.561227    0.873398
      7          6           0      -30.607624    0.373112    1.081820
      8          6           0      -29.370294   -0.198561    1.708416
      9          6           0      -29.446666   -1.661586    1.163646
     10          6           0      -30.891639   -1.754476    0.696188
     11          6           0      -28.374733   -1.964533    0.077739
     12          6           0      -29.430572   -0.164391    3.317496
     13          6           0      -28.034024    0.096614    4.050998
     14          1           0      -27.741573   -1.094193    4.929913
     15          7           0      -33.658376   -2.305431   -0.408225
     16          6           0      -32.855597   -3.287878    0.056426
     17          6           0      -33.566791   -4.559473    0.094354
     18          6           0      -34.907072   -4.281349   -0.244054
     19          6           0      -34.925721   -2.807890   -0.464160
     20          6           0      -32.853501   -5.864162    0.524793
     21          6           0      -36.007471   -5.298309   -0.122382
     22          8           0      -35.739214   -6.426615    0.198874
     23          6           0      -37.503990   -4.999083   -0.333306
     24          7           0      -35.303578    0.170757   -1.129936
     25          6           0      -36.226154   -0.683867   -1.082130
     26          6           0      -37.575424   -0.111207   -1.314155
     27          6           0      -37.257528    1.414717   -1.568021
     28          6           0      -35.804547    1.432234   -1.367312
     29          6           0      -38.342857   -0.874645   -2.445980
     30          6           0      -38.031314    2.368170   -0.544373
     31          6           0      -38.180017    3.881526   -0.935474
     32          7           0      -33.002426    1.742361   -0.464192
     33          6           0      -33.756708    2.796805   -0.945976
     34          6           0      -33.041329    4.034967   -0.807590
     35          6           0      -31.818931    3.639379   -0.159836
     36          6           0      -31.902961    2.287141    0.110344
     37          6           0      -33.475159    5.398550   -1.239773
     38          6           0      -30.569803    4.128714    0.312280
     39          8           0      -30.026156    5.239636    0.360773
     40          6           0      -29.952960    2.933662    1.111890
     41          6           0      -28.512414    2.862793    0.728500
     42          8           0      -27.586797    3.399957    1.352917
     43          8           0      -28.378796    2.167207   -0.441379
     44          6           0      -26.941171    2.149128   -0.832238
     45          1           0      -30.912511   -3.976480    0.484014
     46          1           0      -37.011995   -2.609444   -0.677763
     47          1           0      -35.621461    3.529369   -1.555257
     48          1           0      -28.558875    0.351434    1.233431
     49          1           0      -29.222545   -2.354279    1.975015
     50          1           0      -27.693709   -2.730035    0.448523
     51          1           0      -27.775724   -1.061004   -0.040564
     52          1           0      -28.902754   -2.214231   -0.842025
     53          1           0      -29.925973   -1.006999    3.799640
     54          1           0      -30.082536    0.641353    3.653331
     55          1           0      -28.233618    0.947048    4.703110
     56          1           0      -27.162443    0.392579    3.467061
     57          1           0      -33.291035   -6.363231    1.389348
     58          1           0      -31.782962   -5.749230    0.698207
     59          1           0      -32.882334   -6.533965   -0.334000
     60          1           0      -37.743725   -4.700660   -1.353357
     61          1           0      -37.906670   -4.263954    0.363951
     62          1           0      -38.011725   -5.903091    0.004339
     63          1           0      -38.065181   -0.231373   -0.347913
     64          1           0      -37.382431    1.810172   -2.575761
     65          1           0      -39.261704   -1.255784   -2.000925
     66          1           0      -37.746193   -1.683121   -2.868807
     67          1           0      -38.776840   -0.225777   -3.206564
     68          1           0      -37.542951    2.343972    0.430031
     69          1           0      -39.017863    1.921316   -0.430345
     70          1           0      -39.162026    4.338826   -1.053315
     71          1           0      -37.729552    4.069977   -1.909024
     72          1           0      -37.658974    4.509515   -0.212790
     73          1           0      -34.372729    5.454056   -1.855406
     74          1           0      -32.575059    5.705663   -1.770791
     75          1           0      -33.504680    5.898434   -0.271521
     76          1           0      -30.054361    3.018091    2.194402
     77          1           0      -26.637285    3.150659   -1.135015
     78          1           0      -26.762467    1.599092   -1.756183
     79          1           0      -26.378259    1.735299    0.004669
     80         12           0       33.033369    0.569667   -0.504684
     81          6           0       31.503639   -2.587369    0.229793
     82          6           0       30.412034    2.075391    1.333921
     83          6           0       34.797420    3.424202   -0.497936
     84          6           0       35.800689   -1.141373   -1.656926
     85          7           0       31.140848   -0.156396    0.657612
     86          6           0       30.823264   -1.478530    0.796457
     87          6           0       29.736080   -1.634113    1.847967
     88          6           0       29.263757   -0.122015    1.924488
     89          6           0       30.307232    0.710701    1.282802
     90          6           0       27.866738    0.224962    1.308702
     91          6           0       30.317180   -2.324400    3.123493
     92          6           0       29.506458   -3.487521    3.829650
     93          1           0       29.024154   -3.309195    5.280496
     94          7           0       32.626179    2.464601    0.100086
     95          6           0       31.494494    2.916237    0.828984
     96          6           0       31.566325    4.350035    1.041630
     97          6           0       32.863799    4.728129    0.504816
     98          6           0       33.465625    3.507507    0.001802
     99          6           0       30.537706    5.073223    1.806552
    100          6           0       33.373615    6.179831    0.503132
    101          8           0       32.644470    7.029789    1.092867
    102          6           0       34.682273    6.669498   -0.152558
    103          7           0       35.143654    1.109544   -0.754843
    104          6           0       35.569314    2.352362   -0.875432
    105          6           0       37.020663    2.324570   -1.231314
    106          6           0       37.279949    0.852979   -1.651211
    107          6           0       36.003677    0.178678   -1.251425
    108          6           0       37.596873    3.354483   -2.294585
    109          6           0       38.579131    0.163470   -0.983652
    110          6           0       39.747988   -0.258984   -1.907099
    111          7           0       33.504370   -1.379865   -0.873209
    112          6           0       34.641177   -1.928023   -1.334491
    113          6           0       34.541874   -3.338949   -1.419990
    114          6           0       33.298059   -3.627476   -0.853655
    115          6           0       32.701660   -2.394779   -0.486195
    116          6           0       35.476417   -4.345624   -1.959884
    117          6           0       32.477551   -4.745483   -0.503095
    118          8           0       32.726415   -5.925469   -0.609148
    119          6           0       31.205985   -4.062839    0.311779
    120          6           0       29.945747   -4.392083   -0.364722
    121          8           0       29.756829   -4.363626   -1.587431
    122          8           0       29.035854   -4.700333    0.624013
    123          6           0       27.692986   -5.068910    0.178864
    124          1           0       29.630071    2.599188    1.885833
    125          1           0       35.453055    4.294185   -0.427080
    126          1           0       36.546295   -1.707941   -2.218973
    127          1           0       28.919775   -2.171327    1.364428
    128          1           0       29.372565    0.011166    3.001476
    129          1           0       28.026714    1.001489    0.559327
    130          1           0       27.151699    0.631107    2.023808
    131          1           0       27.380169   -0.581659    0.759477
    132          1           0       30.368410   -1.457851    3.782337
    133          1           0       31.338964   -2.694337    3.041648
    134          1           0       30.155328   -4.359810    3.753194
    135          1           0       28.693690   -3.781990    3.166421
    136          1           0       30.432810    4.543257    2.753539
    137          1           0       29.572763    4.984675    1.307839
    138          1           0       30.650229    6.151682    1.920802
    139          1           0       35.515249    6.307432    0.450297
    140          1           0       34.488990    7.717997   -0.376862
    141          1           0       34.675424    6.151597   -1.112229
    142          1           0       37.566776    2.573542   -0.322280
    143          1           0       37.233222    0.922408   -2.738067
    144          1           0       38.637411    3.491114   -1.999047
    145          1           0       37.006173    4.269036   -2.244340
    146          1           0       37.541055    2.859331   -3.264179
    147          1           0       38.167345   -0.696829   -0.456255
    148          1           0       38.912105    0.813128   -0.174329
    149          1           0       40.079334   -1.280976   -1.728030
    150          1           0       40.577625    0.431618   -1.753559
    151          1           0       39.530989   -0.143411   -2.969174
    152          1           0       34.974956   -5.289227   -2.172598
    153          1           0       36.140031   -4.401450   -1.096786
    154          1           0       36.121497   -3.849760   -2.685096
    155          1           0       31.244791   -4.298398    1.374711
    156          1           0       27.719610   -5.852174   -0.579031
    157          1           0       27.175253   -4.186513   -0.200081
    158          1           0       27.140199   -5.463751    1.031323
 ---------------------------------------------------------------------

 SCF Done:  E(RPBE1PBE) =  -4067.34738230     A.U. after   17 cycles

 Excitation energies and oscillator strengths:

 Excited State   1:      Singlet-A      1.7986 eV  689.32 nm  f=0.3459  <S**2>=0.000
     310 -> 315        0.16141
     312 -> 314        0.69480
     312 <- 314       -0.10915
 This state for optimization and/or second-order correction.
 Total Energy, E(TD-HF/TD-DFT) =  -4067.28128313
 Copying the excited state density for this state as the 1-particle RhoCI density.

 Excited State   2:      Singlet-A      1.8632 eV  665.42 nm  f=0.3797  <S**2>=0.000
     309 -> 316       -0.18038
     311 -> 313        0.69249
     311 <- 313       -0.10916

 Excited State   3:      Singlet-A      1.9616 eV  632.06 nm  f=0.0000  <S**2>=0.000
     312 -> 313        0.70711

 Excited State   4:      Singlet-A      2.0187 eV  614.18 nm  f=0.0000  <S**2>=0.000
     311 -> 314        0.70711

 Excited State   5:      Singlet-A      2.1989 eV  563.84 nm  f=0.1032  <S**2>=0.000
     310 -> 314        0.65394
     312 -> 315       -0.25089

 The electronic state is 1-A.
 Alpha  occ. eigenvalues --  -46.92581 -46.92282 -19.26850 -19.26296 -19.20711
 Alpha  occ. eigenvalues --  -19.19958 -19.19440 -19.19411 -19.18462 -19.18415
 Alpha  occ. eigenvalues --  -14.41505 -14.41463 -14.41380 -14.40958 -14.39737
 Alpha  occ. eigenvalues --  -14.39595 -14.39439 -14.38443 -10.37019 -10.35831
 Alpha  occ. eigenvalues --  -10.32608 -10.32574 -10.32468 -10.31481 -10.29763
 Alpha  occ. eigenvalues --  -10.29611 -10.29012 -10.29008 -10.28920 -10.28486
 Alpha  occ. eigenvalues --  -10.28305 -10.28271 -10.28187 -10.28107 -10.28107
 Alpha  occ. eigenvalues --  -10.28038 -10.28024 -10.27879 -10.27427 -10.26748
 Alpha  occ. eigenvalues --  -10.26622 -10.26514 -10.26471 -10.26354 -10.26314
 Alpha  occ. eigenvalues --  -10.26287 -10.26153 -10.26143 -10.26092 -10.25921
 Alpha  occ. eigenvalues --  -10.25786 -10.25656 -10.25595 -10.25434 -10.25415
 Alpha  occ. eigenvalues --  -10.25415 -10.25354 -10.25350 -10.25333 -10.25220
 Alpha  occ. eigenvalues --  -10.25184 -10.25135 -10.25093 -10.25079 -10.25066
 Alpha  occ. eigenvalues --  -10.24903 -10.24894 -10.24795 -10.24621 -10.24617
 Alpha  occ. eigenvalues --  -10.24421 -10.24344 -10.24289 -10.24149 -10.23998
 Alpha  occ. eigenvalues --  -10.23912 -10.23890 -10.23832 -10.23762 -10.23760
 Alpha  occ. eigenvalues --  -10.23689 -10.23616 -10.23510 -10.22551 -10.22520
 Alpha  occ. eigenvalues --  -10.22279  -3.14733  -3.14416  -1.87560  -1.87245
 Alpha  occ. eigenvalues --   -1.87122  -1.86948  -1.86777  -1.86656  -1.11233
 Alpha  occ. eigenvalues --   -1.10814  -1.06411  -1.05568  -1.03117  -1.02897
 Alpha  occ. eigenvalues --   -1.01977  -1.01675  -1.01372  -1.00106  -0.99396
 Alpha  occ. eigenvalues --   -0.99069  -0.98533  -0.98327  -0.97693  -0.97024
 Alpha  occ. eigenvalues --   -0.87476  -0.87068  -0.84096  -0.83663  -0.82933
 Alpha  occ. eigenvalues --   -0.82604  -0.82524  -0.82407  -0.82281  -0.81810
 Alpha  occ. eigenvalues --   -0.81637  -0.81198  -0.80797  -0.80334  -0.78932
 Alpha  occ. eigenvalues --   -0.78511  -0.78195  -0.78101  -0.76970  -0.76536
 Alpha  occ. eigenvalues --   -0.76204  -0.75869  -0.75689  -0.75172  -0.74784
 Alpha  occ. eigenvalues --   -0.74701  -0.72823  -0.72573  -0.71959  -0.71949
 Alpha  occ. eigenvalues --   -0.71185  -0.71101  -0.70571  -0.70352  -0.69785
 Alpha  occ. eigenvalues --   -0.69701  -0.67661  -0.67215  -0.66656  -0.66623
 Alpha  occ. eigenvalues --   -0.64899  -0.64158  -0.63833  -0.63643  -0.62841
 Alpha  occ. eigenvalues --   -0.62585  -0.62035  -0.61345  -0.61209  -0.60581
 Alpha  occ. eigenvalues --   -0.60143  -0.59792  -0.59643  -0.59436  -0.59283
 Alpha  occ. eigenvalues --   -0.59053  -0.57489  -0.57072  -0.54931  -0.54710
 Alpha  occ. eigenvalues --   -0.54547  -0.54218  -0.54045  -0.53734  -0.53462
 Alpha  occ. eigenvalues --   -0.53388  -0.52912  -0.52580  -0.52214  -0.51439
 Alpha  occ. eigenvalues --   -0.51285  -0.50778  -0.50766  -0.50414  -0.50299
 Alpha  occ. eigenvalues --   -0.50148  -0.49539  -0.49430  -0.49108  -0.48826
 Alpha  occ. eigenvalues --   -0.48308  -0.48276  -0.47961  -0.47553  -0.47544
 Alpha  occ. eigenvalues --   -0.47152  -0.47090  -0.46800  -0.46597  -0.46458
 Alpha  occ. eigenvalues --   -0.46310  -0.46289  -0.45925  -0.45920  -0.45867
 Alpha  occ. eigenvalues --   -0.45784  -0.45370  -0.45160  -0.44952  -0.44803
 Alpha  occ. eigenvalues --   -0.44764  -0.44571  -0.44513  -0.44508  -0.44218
 Alpha  occ. eigenvalues --   -0.44136  -0.44025  -0.43879  -0.43642  -0.43473
 Alpha  occ. eigenvalues --   -0.43315  -0.43149  -0.42968  -0.42552  -0.42431
 Alpha  occ. eigenvalues --   -0.42424  -0.42369  -0.42349  -0.42320  -0.42151
 Alpha  occ. eigenvalues --   -0.42020  -0.41746  -0.41584  -0.41431  -0.41365
 Alpha  occ. eigenvalues --   -0.41128  -0.41045  -0.41023  -0.40781  -0.40683
 Alpha  occ. eigenvalues --   -0.40661  -0.40531  -0.40365  -0.40062  -0.40046
 Alpha  occ. eigenvalues --   -0.39784  -0.39779  -0.39478  -0.39306  -0.39216
 Alpha  occ. eigenvalues --   -0.39122  -0.38919  -0.38708  -0.38562  -0.38426
 Alpha  occ. eigenvalues --   -0.38346  -0.38322  -0.38091  -0.38037  -0.37915
 Alpha  occ. eigenvalues --   -0.37759  -0.37639  -0.37562  -0.37460  -0.37219
 Alpha  occ. eigenvalues --   -0.37045  -0.36904  -0.36804  -0.36420  -0.36245
 Alpha  occ. eigenvalues --   -0.36125  -0.36119  -0.35909  -0.35750  -0.35694
 Alpha  occ. eigenvalues --   -0.35274  -0.35175  -0.34977  -0.34603  -0.33930
 Alpha  occ. eigenvalues --   -0.33738  -0.33627  -0.33244  -0.33216  -0.32674
 Alpha  occ. eigenvalues --   -0.32636  -0.32576  -0.31916  -0.31809  -0.31514
 Alpha  occ. eigenvalues --   -0.31503  -0.30856  -0.30200  -0.29914  -0.29267
 Alpha  occ. eigenvalues --   -0.29085  -0.28631  -0.28384  -0.26986  -0.26845
 Alpha  occ. eigenvalues --   -0.26287  -0.26109  -0.26105  -0.25707  -0.25343
 Alpha  occ. eigenvalues --   -0.25194  -0.24897  -0.24748  -0.21141  -0.21040
 Alpha  occ. eigenvalues --   -0.18939  -0.18753
 Alpha virt. eigenvalues --   -0.11345  -0.11321  -0.05334  -0.05215  -0.03994
 Alpha virt. eigenvalues --   -0.03921  -0.02274  -0.02035  -0.00808  -0.00545
 Alpha virt. eigenvalues --   -0.00184   0.00242   0.00901   0.01192   0.01839

 Mulliken charges:
               1
     1  Mg  12.000618
     2  C    6.013083
     3  C    5.992566
     4  C    5.984844
     5  C    6.003302
     6  N    7.008292
     7  C    5.966020
     8  C    6.010350
     9  C    5.986215
    10  C    6.031768
    11  C    5.996984
    12  C    5.998928
    13  C    6.002204
    14  H    0.991113
    15  N    6.995414
    16  C    6.035642
    17  C    6.022303
    18  C    6.013408
    19  C    6.029240
    20  C    5.996174
    21  C    6.009263
    22  O    8.018924
    23  C    5.998436
    24  N    7.000557
    25  C    6.029074
    26  C    5.991742
    27  C    6.010055
    28  C    5.965728
    29  C    5.997327
    30  C    6.006339
    31  C    6.001351
    32  N    6.999697
    33  C    5.973084
    34  C    5.968297
    35  C    6.000269
    36  C    5.975489
    37  C    5.999151
    38  C    5.984200
    39  O    7.971076
    40  C    6.001401
    41  C    5.995987
    42  O    7.993195
    43  O    8.000877
    44  C    6.000809
    45  H    1.010289
    46  H    1.006229
    47  H    0.991689
    48  H    1.002853
    49  H    1.005172
    50  H    1.003432
    51  H    1.015024
    52  H    0.999591
    53  H    0.989346
    54  H    1.004975
    55  H    1.002075
    56  H    1.000462
    57  H    1.017277
    58  H    1.017221
    59  H    1.016924
    60  H    1.010582
    61  H    1.011009
    62  H    1.010748
    63  H    0.998010
    64  H    0.998383
    65  H    0.999985
    66  H    0.994133
    67  H    1.008782
    68  H    0.997203
    69  H    0.988145
    70  H    0.994275
    71  H    1.001509
    72  H    1.003525
    73  H    0.982785
    74  H    0.984993
    75  H    0.982986
    76  H    0.991674
    77  H    1.000065
    78  H    0.993717
    79  H    0.994135
    80  Mg  12.000020
    81  C    6.000019
    82  C    5.999918
    83  C    6.000076
    84  C    6.000159
    85  N    6.999959
    86  C    5.999993
    87  C    6.000007
    88  C    5.999977
    89  C    6.000081
    90  C    6.000002
    91  C    6.000018
    92  C    6.000007
    93  H    0.999977
    94  N    6.999987
    95  C    6.000137
    96  C    6.000013
    97  C    5.999976
    98  C    6.000041
    99  C    6.000025
   100  C    5.999955
   101  O    8.000121
   102  C    6.000025
   103  N    6.999934
   104  C    6.000027
   105  C    5.999967
   106  C    6.000027
   107  C    5.999902
   108  C    6.000004
   109  C    6.000001
   110  C    6.000014
   111  N    7.000037
   112  C    5.999883
   113  C    5.999836
   114  C    6.000023
   115  C    5.999982
   116  C    6.000019
   117  C    5.999967
   118  O    7.999952
   119  C    5.999964
   120  C    5.999940
   121  O    8.000028
   122  O    7.999987
   123  C    5.999992
   124  H    1.000033
   125  H    0.999993
   126  H    0.999970
   127  H    0.999994
   128  H    1.000005
   129  H    1.000000
   130  H    1.000011
   131  H    1.000017
   132  H    0.999984
   133  H    0.999999
   134  H    0.999992
   135  H    0.999998
   136  H    1.000025
   137  H    1.000039
   138  H    1.000029
   139  H    1.000015
   140  H    1.000027
   141  H    1.000011
   142  H    1.000002
   143  H    0.999996
   144  H    1.000004
   145  H    1.000003
   146  H    1.000010
   147  H    1.000007
   148  H    0.999985
   149  H    0.999996
   150  H    0.999988
   151  H    0.999995
   152  H    0.999971
   153  H    0.999967
   154  H    0.999976
   155  H    0.999991
   156  H    0.999993
   157  H    1.000001
   158  H    0.999991
 Sum of Mulliken charges = 624.00000

 Dipole moment (field-independent basis, Debye):
    X=             -1.6771    Y=             -9.9225    Z=              0.4128  Tot=             10.0717
 Quadrupole moment (field-independent basis, Debye-Ang):
   XX=            109.1822   YY=              5.9674   ZZ=             -1.8465
   XY=            332.4205   XZ=            -14.7974   YZ=              2.5519

 Normal termination of Gaussian 16 at Fri Oct 15 07:31:37 2021.
