 Gaussian 16, Revision A.03,
 Gaussian 16:  ES64L-G16RevA.03 25-Dec-2016

 --------------------------------------------------------
 #p PBE1PBE/Def2SVP td=(nstates=5) density=(transition=1)
 --------------------------------------------------------

 --------------------------------
 TDDFT excited states in gaussian
 --------------------------------
 Symbolic Z-matrix:
 Charge =  0 Multiplicity = 1

                         Standard orientation:
 ---------------------------------------------------------------------
 Center     Atomic      Atomic             Coordinates (Angstroms)
 Number     Number       Type             X           Y           Z
 ---------------------------------------------------------------------
      1         12           0      -30.121976    0.159065    0.397460
      2          6           0      -27.756131   -1.924998   -0.833873
      3          6           0      -30.679464    1.411866   -2.793847
      4          6           0      -32.483875    2.247821    1.630341
      5          6           0      -29.228918   -0.729662    3.621690
      6          7           0      -29.372088   -0.324802   -1.509657
      7          6           0      -28.374381   -1.188741   -1.825217
      8          6           0      -28.229372   -1.382086   -3.312157
      9          6           0      -28.963858   -0.122920   -3.910940
     10          6           0      -29.756976    0.342384   -2.645944
     11          6           0      -28.136478    1.014848   -4.642848
     12          6           0      -28.944700   -2.718743   -3.807549
     13          6           0      -28.343373   -3.258846   -5.138537
     14          1           0      -27.674595   -2.328406   -6.164287
     15          7           0      -31.384813    1.713714   -0.425150
     16          6           0      -31.442224    2.042423   -1.804950
     17          6           0      -32.420059    3.068162   -2.009872
     18          6           0      -32.966683    3.354258   -0.708217
     19          6           0      -32.267900    2.392935    0.217777
     20          6           0      -32.813807    3.611557   -3.338561
     21          6           0      -34.038311    4.363233   -0.310772
     22          8           0      -34.388004    4.640851    0.873891
     23          6           0      -34.764230    5.143807   -1.393337
     24          7           0      -30.721933    0.739682    2.331893
     25          6           0      -31.867022    1.490833    2.601554
     26          6           0      -32.364365    1.409158    4.073712
     27          6           0      -31.257758    0.361648    4.653299
     28          6           0      -30.364953    0.069877    3.503313
     29          6           0      -32.304945    2.808010    4.700711
     30          6           0      -31.841486   -0.853809    5.311213
     31          6           0      -31.372221   -1.054226    6.723863
     32          7           0      -28.770149   -0.927934    1.303762
     33          6           0      -28.496112   -1.257987    2.625216
     34          6           0      -27.409390   -2.163609    2.687118
     35          6           0      -27.017382   -2.452878    1.352463
     36          6           0      -27.935984   -1.766363    0.530633
     37          6           0      -26.774270   -2.780359    3.873776
     38          6           0      -26.025669   -3.108745    0.528584
     39          8           0      -25.023242   -3.761561    0.744065
     40          6           0      -26.561537   -2.816929   -0.952706
     41          6           0      -25.459468   -2.522243   -1.905491
     42          8           0      -24.506714   -1.812737   -1.706303
     43          8           0      -25.580304   -3.170526   -3.074395
     44          6           0      -24.495249   -2.881030   -4.054631
     45          1           0      -30.650926    1.851316   -3.793235
     46          1           0      -33.149722    3.017027    2.026897
     47          1           0      -28.961856   -1.147230    4.594634
     48          1           0      -27.198134   -1.273258   -3.647602
     49          1           0      -29.729897   -0.472518   -4.602341
     50          1           0      -27.103910    0.671565   -4.707627
     51          1           0      -28.151623    2.011965   -4.205678
     52          1           0      -28.592611    1.144697   -5.624450
     53          1           0      -29.996607   -2.443962   -3.887513
     54          1           0      -28.815358   -3.462577   -3.021272
     55          1           0      -29.201959   -3.753083   -5.593506
     56          1           0      -27.681186   -4.078143   -4.859853
     57          1           0      -33.535753    3.017769   -3.899283
     58          1           0      -31.879957    3.733654   -3.885868
     59          1           0      -33.121524    4.656116   -3.300767
     60          1           0      -34.116757    5.985924   -1.637235
     61          1           0      -35.669614    5.511831   -0.911324
     62          1           0      -34.958083    4.571076   -2.300427
     63          1           0      -33.409375    1.103671    4.020073
     64          1           0      -30.673090    0.869608    5.421011
     65          1           0      -31.811023    3.576361    4.105553
     66          1           0      -31.923470    2.721935    5.717867
     67          1           0      -33.338239    3.152661    4.750271
     68          1           0      -31.564794   -1.785270    4.817151
     69          1           0      -32.931022   -0.882450    5.329940
     70          1           0      -32.186317   -1.245478    7.422400
     71          1           0      -30.840546   -0.177952    7.093811
     72          1           0      -30.621121   -1.840633    6.644004
     73          1           0      -26.780836   -2.182677    4.785763
     74          1           0      -25.710608   -2.725572    3.640215
     75          1           0      -27.190953   -3.772789    4.046039
     76          1           0      -26.909172   -3.829225   -1.160920
     77          1           0      -23.575240   -3.417678   -3.818595
     78          1           0      -24.370286   -1.810859   -4.220455
     79          1           0      -24.809897   -3.257916   -5.028107
     80         12           0       30.182272    0.297124   -0.319793
     81          6           0       27.131725   -1.206820   -0.308585
     82          6           0       28.580154    3.359085   -1.072187
     83          6           0       32.932533    1.882602    0.717757
     84          6           0       31.656450   -2.735083    0.974480
     85          7           0       28.129220    0.928730   -0.662755
     86          6           0       27.043870    0.229869   -0.614495
     87          6           0       25.790570    0.988757   -1.178820
     88          6           0       26.357445    2.367461   -1.690680
     89          6           0       27.825190    2.251988   -1.152488
     90          6           0       26.115222    2.697501   -3.164192
     91          6           0       24.575114    1.082812   -0.078488
     92          6           0       24.916401    0.962111    1.397898
     93          1           0       23.945292    1.468689    2.464291
     94          7           0       30.670464    2.344925   -0.191372
     95          6           0       29.933800    3.430449   -0.600459
     96          6           0       30.639968    4.606979   -0.331212
     97          6           0       31.918227    4.232221    0.237171
     98          6           0       31.881580    2.748243    0.319113
     99          6           0       30.116832    5.953237   -0.797396
    100          6           0       33.007015    5.237275    0.654577
    101          8           0       32.768256    6.455233    0.493426
    102          6           0       34.282378    4.903128    1.219589
    103          7           0       32.033246   -0.332810    0.880411
    104          6           0       33.017172    0.518438    0.947616
    105          6           0       34.342193   -0.121690    1.450932
    106          6           0       33.957515   -1.616931    1.486351
    107          6           0       32.431096   -1.643023    1.070890
    108          6           0       35.516981    0.118721    0.572988
    109          6           0       34.250880   -2.300850    2.903974
    110          6           0       35.419682   -3.369525    2.934615
    111          7           0       29.626277   -1.635511    0.133572
    112          6           0       30.292194   -2.773055    0.606798
    113          6           0       29.318121   -3.907298    0.662039
    114          6           0       28.093515   -3.298458    0.352918
    115          6           0       28.309760   -1.916921    0.070988
    116          6           0       29.544664   -5.294760    1.019453
    117          6           0       26.737525   -3.598097    0.276973
    118          8           0       26.078863   -4.638152    0.423564
    119          6           0       26.060592   -2.297743   -0.241995
    120          6           0       25.306212   -2.637106   -1.549521
    121          8           0       24.132927   -2.426685   -1.805790
    122          8           0       26.124305   -3.238916   -2.481104
    123          6           0       25.519393   -3.647426   -3.754465
    124          1           0       27.990566    4.259160   -1.257633
    125          1           0       33.910629    2.323433    0.920348
    126          1           0       32.148773   -3.682934    1.201267
    127          1           0       25.510074    0.468932   -2.095289
    128          1           0       25.959496    3.210747   -1.125373
    129          1           0       27.067195    2.728243   -3.693836
    130          1           0       25.649054    3.674515   -3.296754
    131          1           0       25.428616    2.034668   -3.690886
    132          1           0       23.901619    0.307114   -0.443669
    133          1           0       24.040960    2.032930   -0.055746
    134          1           0       25.855444    1.509536    1.474999
    135          1           0       25.156065   -0.090697    1.548169
    136          1           0       30.730690    6.579415   -1.445360
    137          1           0       29.788276    6.518433    0.075103
    138          1           0       29.196817    5.797667   -1.360512
    139          1           0       34.963559    4.300930    0.618643
    140          1           0       34.155503    4.240232    2.074903
    141          1           0       34.813319    5.757681    1.637885
    142          1           0       34.734897    0.184035    2.420595
    143          1           0       34.421427   -2.199750    0.690517
    144          1           0       36.228896    0.854863    0.945987
    145          1           0       35.212470    0.616013   -0.348617
    146          1           0       36.040223   -0.817720    0.380296
    147          1           0       33.368026   -2.875249    3.187838
    148          1           0       34.565650   -1.607065    3.682340
    149          1           0       36.061343   -3.184193    3.795109
    150          1           0       36.063543   -3.183949    2.074806
    151          1           0       34.917594   -4.326812    3.075866
    152          1           0       30.568382   -5.490677    0.699665
    153          1           0       28.862468   -5.948612    0.474958
    154          1           0       29.314271   -5.376398    2.081282
    155          1           0       25.176053   -2.016672    0.329110
    156          1           0       26.122283   -4.451425   -4.177041
    157          1           0       25.471640   -2.915050   -4.560184
    158          1           0       24.470644   -3.934232   -3.671804
 ---------------------------------------------------------------------

 SCF Done:  E(RPBE1PBE) =  -4067.34677492     A.U. after   19 cycles

 Excitation energies and oscillator strengths:

 Excited State   1:      Singlet-A      1.7790 eV  696.93 nm  f=0.0000  <S**2>=0.000
     312 -> 313        0.70711
 This state for optimization and/or second-order correction.
 Total Energy, E(TD-HF/TD-DFT) =  -4067.28139752
 Copying the excited state density for this state as the 1-particle RhoCI density.

 Excited State   2:      Singlet-A      1.8023 eV  687.94 nm  f=0.3690  <S**2>=0.000
     310 -> 316       -0.16354
     312 -> 314        0.69742
     312 <- 314       -0.11962

 Excited State   3:      Singlet-A      1.8537 eV  668.86 nm  f=0.4186  <S**2>=0.000
     309 -> 315        0.15880
     311 -> 313        0.69708
     311 <- 313       -0.12237

 Excited State   4:      Singlet-A      2.0956 eV  591.63 nm  f=0.0000  <S**2>=0.000
     311 -> 314        0.70711

 Excited State   5:      Singlet-A      2.2176 eV  559.08 nm  f=0.1181  <S**2>=0.000
     310 -> 314        0.65145
     312 -> 316        0.25932

 The electronic state is 1-A.
 Alpha  occ. eigenvalues --  -46.93703 -46.90553 -19.25764 -19.25470 -19.20299
 Alpha  occ. eigenvalues --  -19.19422 -19.19007 -19.18965 -19.18712 -19.17854
 Alpha  occ. eigenvalues --  -14.42688 -14.42277 -14.41395 -14.41288 -14.40101
 Alpha  occ. eigenvalues --  -14.39593 -14.39121 -14.38483 -10.36722 -10.35566
 Alpha  occ. eigenvalues --  -10.32327 -10.32253 -10.31637 -10.31583 -10.30540
 Alpha  occ. eigenvalues --  -10.29263 -10.29248 -10.29105 -10.28856 -10.28675
 Alpha  occ. eigenvalues --  -10.28673 -10.28658 -10.28584 -10.28561 -10.28446
 Alpha  occ. eigenvalues --  -10.28233 -10.27827 -10.27719 -10.27547 -10.27121
 Alpha  occ. eigenvalues --  -10.27059 -10.27035 -10.26959 -10.26858 -10.26666
 Alpha  occ. eigenvalues --  -10.26505 -10.26318 -10.26314 -10.26294 -10.26150
 Alpha  occ. eigenvalues --  -10.26072 -10.25994 -10.25855 -10.25839 -10.25540
 Alpha  occ. eigenvalues --  -10.25476 -10.25471 -10.25451 -10.25352 -10.25345
 Alpha  occ. eigenvalues --  -10.25206 -10.25060 -10.25051 -10.25035 -10.24801
 Alpha  occ. eigenvalues --  -10.24800 -10.24787 -10.24753 -10.24557 -10.24383
 Alpha  occ. eigenvalues --  -10.24294 -10.24116 -10.23921 -10.23637 -10.23574
 Alpha  occ. eigenvalues --  -10.23517 -10.23259 -10.23215 -10.23092 -10.23074
 Alpha  occ. eigenvalues --  -10.23068 -10.22993 -10.22983 -10.22974 -10.22554
 Alpha  occ. eigenvalues --  -10.22552  -3.15692  -3.12982  -1.88508  -1.88099
 Alpha  occ. eigenvalues --   -1.87880  -1.85816  -1.85337  -1.85253  -1.12066
 Alpha  occ. eigenvalues --   -1.10841  -1.04861  -1.03586  -1.02519  -1.02131
 Alpha  occ. eigenvalues --   -1.02075  -1.02065  -0.99588  -0.99106  -0.99087
 Alpha  occ. eigenvalues --   -0.98223  -0.98191  -0.97337  -0.97116  -0.96034
 Alpha  occ. eigenvalues --   -0.87718  -0.87227  -0.84021  -0.84007  -0.83724
 Alpha  occ. eigenvalues --   -0.83319  -0.83088  -0.82821  -0.82444  -0.82084
 Alpha  occ. eigenvalues --   -0.82011  -0.81516  -0.80701  -0.79746  -0.78997
 Alpha  occ. eigenvalues --   -0.78646  -0.78418  -0.78067  -0.77213  -0.76812
 Alpha  occ. eigenvalues --   -0.76744  -0.75872  -0.75676  -0.75377  -0.74743
 Alpha  occ. eigenvalues --   -0.74550  -0.72840  -0.72592  -0.72097  -0.71699
 Alpha  occ. eigenvalues --   -0.71631  -0.71247  -0.70827  -0.70640  -0.69705
 Alpha  occ. eigenvalues --   -0.69578  -0.67834  -0.67327  -0.66425  -0.66281
 Alpha  occ. eigenvalues --   -0.63968  -0.63491  -0.63265  -0.63040  -0.62747
 Alpha  occ. eigenvalues --   -0.62564  -0.61369  -0.61097  -0.60409  -0.60262
 Alpha  occ. eigenvalues --   -0.60139  -0.59778  -0.59356  -0.59307  -0.59102
 Alpha  occ. eigenvalues --   -0.58664  -0.57826  -0.56885  -0.55395  -0.54866
 Alpha  occ. eigenvalues --   -0.54574  -0.54431  -0.53576  -0.53531  -0.53157
 Alpha  occ. eigenvalues --   -0.52987  -0.52657  -0.52524  -0.52299  -0.51684
 Alpha  occ. eigenvalues --   -0.51012  -0.50670  -0.50251  -0.49975  -0.49856
 Alpha  occ. eigenvalues --   -0.49729  -0.49568  -0.49280  -0.48955  -0.48505
 Alpha  occ. eigenvalues --   -0.48411  -0.48039  -0.47948  -0.47761  -0.47596
 Alpha  occ. eigenvalues --   -0.47485  -0.47463  -0.47112  -0.47080  -0.46883
 Alpha  occ. eigenvalues --   -0.46723  -0.46659  -0.46590  -0.46093  -0.45878
 Alpha  occ. eigenvalues --   -0.45729  -0.45707  -0.45542  -0.45300  -0.44969
 Alpha  occ. eigenvalues --   -0.44838  -0.44636  -0.44500  -0.44412  -0.44225
 Alpha  occ. eigenvalues --   -0.44180  -0.43868  -0.43658  -0.43572  -0.43452
 Alpha  occ. eigenvalues --   -0.43422  -0.43269  -0.43064  -0.43009  -0.42837
 Alpha  occ. eigenvalues --   -0.42678  -0.42383  -0.42363  -0.42096  -0.41988
 Alpha  occ. eigenvalues --   -0.41894  -0.41818  -0.41545  -0.41384  -0.41366
 Alpha  occ. eigenvalues --   -0.41322  -0.41036  -0.40996  -0.40667  -0.40665
 Alpha  occ. eigenvalues --   -0.40486  -0.40061  -0.39969  -0.39827  -0.39726
 Alpha  occ. eigenvalues --   -0.39578  -0.39546  -0.39347  -0.39317  -0.39143
 Alpha  occ. eigenvalues --   -0.38849  -0.38692  -0.38555  -0.38491  -0.38384
 Alpha  occ. eigenvalues --   -0.38103  -0.37981  -0.37602  -0.37468  -0.37226
 Alpha  occ. eigenvalues --   -0.37187  -0.37131  -0.36842  -0.36789  -0.36766
 Alpha  occ. eigenvalues --   -0.36738  -0.36349  -0.36260  -0.35901  -0.35818
 Alpha  occ. eigenvalues --   -0.35726  -0.35699  -0.35564  -0.35324  -0.35276
 Alpha  occ. eigenvalues --   -0.35253  -0.34985  -0.34951  -0.34741  -0.34012
 Alpha  occ. eigenvalues --   -0.33587  -0.33225  -0.33033  -0.32973  -0.32878
 Alpha  occ. eigenvalues --   -0.32639  -0.32226  -0.32036  -0.31832  -0.31584
 Alpha  occ. eigenvalues --   -0.31571  -0.31296  -0.29815  -0.29775  -0.29624
 Alpha  occ. eigenvalues --   -0.29386  -0.29286  -0.28410  -0.27140  -0.26988
 Alpha  occ. eigenvalues --   -0.26380  -0.25929  -0.25850  -0.25510  -0.25423
 Alpha  occ. eigenvalues --   -0.25183  -0.25045  -0.24832  -0.21798  -0.21185
 Alpha  occ. eigenvalues --   -0.19313  -0.18691
 Alpha virt. eigenvalues --   -0.11932  -0.11391  -0.05425  -0.05121  -0.04186
 Alpha virt. eigenvalues --   -0.04076  -0.02357  -0.02123  -0.02034   0.00127
 Alpha virt. eigenvalues --    0.00491   0.00847   0.00855   0.01208   0.01262

 Mulliken charges:
               1
     1  Mg  12.000000
     2  C    6.000000
     3  C    6.000000
     4  C    6.000000
     5  C    6.000000
     6  N    7.000000
     7  C    6.000000
     8  C    6.000000
     9  C    6.000000
    10  C    6.000000
    11  C    6.000000
    12  C    6.000000
    13  C    6.000000
    14  H    1.000000
    15  N    7.000000
    16  C    6.000000
    17  C    6.000000
    18  C    6.000000
    19  C    6.000000
    20  C    6.000000
    21  C    6.000000
    22  O    8.000000
    23  C    6.000000
    24  N    7.000000
    25  C    6.000000
    26  C    6.000000
    27  C    6.000000
    28  C    6.000000
    29  C    6.000000
    30  C    6.000000
    31  C    6.000000
    32  N    7.000000
    33  C    6.000000
    34  C    6.000000
    35  C    6.000000
    36  C    6.000000
    37  C    6.000000
    38  C    6.000000
    39  O    8.000000
    40  C    6.000000
    41  C    6.000000
    42  O    8.000000
    43  O    8.000000
    44  C    6.000000
    45  H    1.000000
    46  H    1.000000
    47  H    1.000000
    48  H    1.000000
    49  H    1.000000
    50  H    1.000000
    51  H    1.000000
    52  H    1.000000
    53  H    1.000000
    54  H    1.000000
    55  H    1.000000
    56  H    1.000000
    57  H    1.000000
    58  H    1.000000
    59  H    1.000000
    60  H    1.000000
    61  H    1.000000
    62  H    1.000000
    63  H    1.000000
    64  H    1.000000
    65  H    1.000000
    66  H    1.000000
    67  H    1.000000
    68  H    1.000000
    69  H    1.000000
    70  H    1.000000
    71  H    1.000000
    72  H    1.000000
    73  H    1.000000
    74  H    1.000000
    75  H    1.000000
    76  H    1.000000
    77  H    1.000000
    78  H    1.000000
    79  H    1.000000
    80  Mg  12.000000
    81  C    6.000000
    82  C    6.000000
    83  C    6.000000
    84  C    6.000000
    85  N    7.000000
    86  C    6.000000
    87  C    6.000000
    88  C    6.000000
    89  C    6.000000
    90  C    6.000000
    91  C    6.000000
    92  C    6.000000
    93  H    1.000000
    94  N    7.000000
    95  C    6.000000
    96  C    6.000000
    97  C    6.000000
    98  C    6.000000
    99  C    6.000000
   100  C    6.000000
   101  O    8.000000
   102  C    6.000000
   103  N    7.000000
   104  C    6.000000
   105  C    6.000000
   106  C    6.000000
   107  C    6.000000
   108  C    6.000000
   109  C    6.000000
   110  C    6.000000
   111  N    7.000000
   112  C    6.000000
   113  C    6.000000
   114  C    6.000000
   115  C    6.000000
   116  C    6.000000
   117  C    6.000000
   118  O    8.000000
   119  C    6.000000
   120  C    6.000000
   121  O    8.000000
   122  O    8.000000
   123  C    6.000000
   124  H    1.000000
   125  H    1.000000
   126  H    1.000000
   127  H    1.000000
   128  H    1.000000
   129  H    1.000000
   130  H    1.000000
   131  H    1.000000
   132  H    1.000000
   133  H    1.000000
   134  H    1.000000
   135  H    1.000000
   136  H    1.000000
   137  H    1.000000
   138  H    1.000000
   139  H    1.000000
   140  H    1.000000
   141  H    1.000000
   142  H    1.000000
   143  H    1.000000
   144  H    1.000000
   145  H    1.000000
   146  H    1.000000
   147  H    1.000000
   148  H    1.000000
   149  H    1.000000
   150  H    1.000000
   151  H    1.000000
   152  H    1.000000
   153  H    1.000000
   154  H    1.000000
   155  H    1.000000
   156  H    1.000000
   157  H    1.000000
   158  H    1.000000
 Sum of Mulliken charges = 624.00000

 Dipole moment (field-independent basis, Debye):
    X=             -0.0000    Y=             -0.0000    Z=              0.0000  Tot=              0.0000
 Quadrupole moment (field-independent basis, Debye-Ang):
   XX=             -0.0000   YY=             -0.0000   ZZ=              0.0000
   XY=             -0.0000   XZ=             -0.0000   YZ=             -0.0000

 Normal termination of Gaussian 16 at Fri Oct 15 01:14:33 2021.
