 Gaussian 16, Revision A.03,
 Gaussian 16:  ES64L-G16RevA.03 25-Dec-2016

 --------------------------------------------------------
 #p PBE1PBE/Def2SVP td=(nstates=5) density=(transition=1)
 --------------------------------------------------------

 --------------------------------
 TDDFT excited states in gaussian
 --------------------------------
 Symbolic Z-matrix:
 Charge =  0 Multiplicity = 1

                         Standard orientation:
 ---------------------------------------------------------------------
 Center     Atomic      Atomic             Coordinates (Angstroms)
 Number     Number       Type             X           Y           Z
 ---------------------------------------------------------------------
      1         12           0      -20.617417   -0.508955   -0.203471
      2          6           0      -18.413280    2.046850    0.054126
      3          6           0      -23.154816    1.562774    0.951642
      4          6           0      -22.820452   -3.067210   -0.455343
      5          6           0      -18.013920   -2.688166   -0.878667
      6          7           0      -20.717279    1.534506    0.294370
      7          6           0      -19.700648    2.429651    0.375400
      8          6           0      -20.188893    3.835319    0.610166
      9          6           0      -21.648666    3.620282    1.163640
     10          6           0      -21.869195    2.129588    0.745361
     11          6           0      -21.989364    3.952374    2.676386
     12          6           0      -20.236201    4.678907   -0.742563
     13          6           0      -20.144770    6.213105   -0.492138
     14          1           0      -20.627993    6.852078    0.820627
     15          7           0      -22.713362   -0.788724    0.262491
     16          6           0      -23.568207    0.245321    0.726375
     17          6           0      -24.897244   -0.266352    0.875188
     18          6           0      -24.831025   -1.650054    0.480298
     19          6           0      -23.399355   -1.857711    0.059463
     20          6           0      -26.080717    0.547425    1.266199
     21          6           0      -25.937885   -2.697783    0.441479
     22          8           0      -25.780795   -3.928884    0.191492
     23          6           0      -27.367868   -2.281745    0.741916
     24          7           0      -20.447855   -2.582303   -0.537500
     25          6           0      -21.532674   -3.423816   -0.788891
     26          6           0      -21.160411   -4.780972   -1.452831
     27          6           0      -19.553353   -4.552369   -1.604104
     28          6           0      -19.298187   -3.213365   -1.015330
     29          6           0      -21.553632   -5.924705   -0.509064
     30          6           0      -19.032304   -4.727221   -3.000120
     31          6           0      -17.934119   -5.746340   -3.106620
     32          7           0      -18.662107   -0.485944   -0.284832
     33          6           0      -17.678690   -1.416452   -0.596788
     34          6           0      -16.400833   -0.807662   -0.559355
     35          6           0      -16.591440    0.568486   -0.261806
     36          6           0      -17.988947    0.753860   -0.205699
     37          6           0      -15.072588   -1.407847   -0.819088
     38          6           0      -15.924138    1.809938    0.063679
     39          8           0      -14.766610    2.154186    0.201817
     40          6           0      -17.149522    2.831990    0.206411
     41          6           0      -16.957846    3.792940    1.324011
     42          8           0      -16.552270    3.539185    2.429421
     43          8           0      -17.251525    5.059631    0.991664
     44          6           0      -17.082113    6.042474    2.099515
     45          1           0      -23.828559    2.240035    1.480883
     46          1           0      -23.512532   -3.910204   -0.403657
     47          1           0      -17.152302   -3.280555   -1.193300
     48          1           0      -19.663649    4.327315    1.428627
     49          1           0      -22.337134    4.186255    0.536938
     50          1           0      -21.101859    4.409857    3.113741
     51          1           0      -22.315360    3.131609    3.313302
     52          1           0      -22.840647    4.633147    2.658323
     53          1           0      -21.169330    4.372029   -1.215325
     54          1           0      -19.390354    4.358203   -1.350793
     55          1           0      -20.714094    6.615973   -1.329995
     56          1           0      -19.114713    6.493575   -0.710591
     57          1           0      -26.549704    1.118678    0.464999
     58          1           0      -25.730771    1.193111    2.070659
     59          1           0      -26.826842   -0.019919    1.821752
     60          1           0      -27.456191   -2.284890    1.828221
     61          1           0      -27.982861   -3.079968    0.327040
     62          1           0      -27.631165   -1.292350    0.367502
     63          1           0      -21.774430   -4.853349   -2.350598
     64          1           0      -19.041551   -5.298022   -0.994760
     65          1           0      -21.877102   -5.628937    0.489147
     66          1           0      -20.762000   -6.673589   -0.514595
     67          1           0      -22.449458   -6.369812   -0.943015
     68          1           0      -18.579765   -3.822800   -3.406943
     69          1           0      -19.788527   -4.994886   -3.738186
     70          1           0      -18.091924   -6.463267   -3.911851
     71          1           0      -17.837161   -6.323226   -2.187273
     72          1           0      -17.024546   -5.148868   -3.174958
     73          1           0      -14.963445   -2.461043   -0.558605
     74          1           0      -14.448561   -0.972259   -0.038201
     75          1           0      -14.774236   -1.220631   -1.850665
     76          1           0      -16.968643    3.373590   -0.722512
     77          1           0      -16.034443    6.297810    2.264781
     78          1           0      -17.626715    5.744739    2.995698
     79          1           0      -17.564690    6.973713    1.801834
     80         12           0       20.150014   -0.730869    0.388996
     81          6           0       19.992231    2.260865   -1.572132
     82          6           0       21.313909    1.122175    3.035783
     83          6           0       20.772503   -3.539495    2.158726
     84          6           0       19.901598   -2.532488   -2.633224
     85          7           0       20.578191    1.433680    0.668581
     86          6           0       20.385026    2.503704   -0.219287
     87          6           0       20.691909    3.796402    0.492362
     88          6           0       21.573685    3.307643    1.717784
     89          6           0       21.176298    1.804182    1.794785
     90          6           0       23.083325    3.518912    1.340674
     91          6           0       19.426860    4.664839    0.822220
     92          6           0       19.674068    6.055416    0.514858
     93          1           0       18.360032    6.985983    0.469247
     94          7           0       20.778826   -1.050250    2.403497
     95          6           0       21.169996   -0.162536    3.325585
     96          6           0       21.397500   -0.838231    4.565943
     97          6           0       21.269341   -2.194250    4.349930
     98          6           0       20.854603   -2.348636    2.879523
     99          6           0       21.929931   -0.095018    5.832140
    100          6           0       21.380825   -3.354069    5.360769
    101          8           0       21.268148   -4.487008    4.966162
    102          6           0       21.536447   -3.079880    6.838030
    103          7           0       20.579316   -2.731131   -0.243236
    104          6           0       20.670489   -3.715267    0.734909
    105          6           0       20.522310   -5.075332    0.134332
    106          6           0       20.218529   -4.759840   -1.411036
    107          6           0       20.163203   -3.250604   -1.441688
    108          6           0       21.689703   -5.964479    0.400566
    109          6           0       18.898680   -5.443691   -2.070871
    110          6           0       19.087769   -6.364635   -3.210805
    111          7           0       19.930592   -0.297936   -1.692794
    112          6           0       19.853186   -1.158993   -2.764159
    113          6           0       19.618328   -0.320621   -4.019074
    114          6           0       19.551251    1.018454   -3.584779
    115          6           0       19.800188    0.982725   -2.167979
    116          6           0       19.515725   -0.891556   -5.440003
    117          6           0       19.481543    2.359138   -4.081950
    118          8           0       19.315415    2.784121   -5.247539
    119          6           0       19.930988    3.232082   -2.839272
    120          6           0       18.930232    4.425583   -2.790797
    121          8           0       17.983776    4.429914   -1.982435
    122          8           0       19.326478    5.393647   -3.653123
    123          6           0       18.244746    6.434114   -3.739066
    124          1           0       21.467110    1.716905    3.939119
    125          1           0       20.950222   -4.463138    2.714686
    126          1           0       19.716626   -3.001534   -3.601716
    127          1           0       21.372055    4.339130   -0.163714
    128          1           0       21.355350    3.872571    2.623337
    129          1           0       23.457229    2.796064    0.615986
    130          1           0       23.676374    3.512577    2.254210
    131          1           0       23.201024    4.515653    0.914886
    132          1           0       19.334242    4.665509    1.908540
    133          1           0       18.521872    4.256926    0.371368
    134          1           0       20.024321    6.175218   -0.510500
    135          1           0       20.372001    6.435146    1.261452
    136          1           0       21.187817   -0.346951    6.589648
    137          1           0       21.963724    0.991035    5.747164
    138          1           0       22.942697   -0.428344    6.058242
    139          1           0       21.682892   -4.010394    7.386595
    140          1           0       20.555367   -2.627091    6.981103
    141          1           0       22.373003   -2.393406    6.968199
    142          1           0       19.624671   -5.452321    0.624815
    143          1           0       21.077401   -5.122927   -1.974938
    144          1           0       21.306849   -6.710548    1.095764
    145          1           0       22.487902   -5.466678    0.950968
    146          1           0       22.139670   -6.426283   -0.478578
    147          1           0       18.376020   -4.576571   -2.474548
    148          1           0       18.302535   -5.859153   -1.259498
    149          1           0       18.616259   -5.976701   -4.113363
    150          1           0       18.456519   -7.165047   -2.826357
    151          1           0       20.111857   -6.728034   -3.306447
    152          1           0       20.521721   -0.829568   -5.853499
    153          1           0       18.827952   -0.326365   -6.068920
    154          1           0       19.122094   -1.906571   -5.385618
    155          1           0       20.937778    3.545281   -3.112246
    156          1           0       17.362838    6.133610   -4.304547
    157          1           0       18.567352    7.395895   -4.136492
    158          1           0       17.981803    6.664470   -2.706447
 ---------------------------------------------------------------------

 SCF Done:  E(RPBE1PBE) =  -4067.34748107     A.U. after   16 cycles

 Excitation energies and oscillator strengths:

 Excited State   1:      Singlet-A      1.6819 eV  737.18 nm  f=0.0000  <S**2>=0.000
     312 -> 313        0.70710
 This state for optimization and/or second-order correction.
 Total Energy, E(TD-HF/TD-DFT) =  -4067.28567336
 Copying the excited state density for this state as the 1-particle RhoCI density.

 Excited State   2:      Singlet-A      1.8022 eV  687.94 nm  f=0.3715  <S**2>=0.000
     309 -> 316       -0.16356
     311 -> 313        0.69739
     311 <- 313       -0.11961

 Excited State   3:      Singlet-A      1.8312 eV  677.06 nm  f=0.3458  <S**2>=0.000
     310 -> 315        0.18215
     312 -> 314        0.68920

 Excited State   4:      Singlet-A      2.2140 eV  559.99 nm  f=0.0000  <S**2>=0.000
     311 -> 314        0.70711

 Excited State   5:      Singlet-A      2.2176 eV  559.08 nm  f=0.1174  <S**2>=0.000
     309 -> 313        0.65145
     311 -> 316        0.25931

 The electronic state is 1-A.
 Alpha  occ. eigenvalues --  -46.92778 -46.90557 -19.26815 -19.25768 -19.20042
 Alpha  occ. eigenvalues --  -19.19438 -19.19425 -19.19145 -19.18968 -19.18716
 Alpha  occ. eigenvalues --  -14.42280 -14.41692 -14.41467 -14.41292 -14.39125
 Alpha  occ. eigenvalues --  -14.38893 -14.38890 -14.38486 -10.36759 -10.35570
 Alpha  occ. eigenvalues --  -10.32571 -10.32331 -10.32256 -10.32185 -10.29267
 Alpha  occ. eigenvalues --  -10.29108 -10.28874 -10.28855 -10.28818 -10.28766
 Alpha  occ. eigenvalues --  -10.28661 -10.28578 -10.28449 -10.28427 -10.28236
 Alpha  occ. eigenvalues --  -10.27723 -10.27550 -10.27196 -10.26861 -10.26678
 Alpha  occ. eigenvalues --  -10.26670 -10.26630 -10.26508 -10.26450 -10.26317
 Alpha  occ. eigenvalues --  -10.26276 -10.26174 -10.26075 -10.26057 -10.25998
 Alpha  occ. eigenvalues --  -10.25858 -10.25854 -10.25518 -10.25479 -10.25474
 Alpha  occ. eigenvalues --  -10.25454 -10.25355 -10.25348 -10.25267 -10.25235
 Alpha  occ. eigenvalues --  -10.25230 -10.25210 -10.25198 -10.25064 -10.24761
 Alpha  occ. eigenvalues --  -10.24561 -10.24298 -10.24134 -10.24052 -10.24010
 Alpha  occ. eigenvalues --  -10.23751 -10.23649 -10.23640 -10.23566 -10.23556
 Alpha  occ. eigenvalues --  -10.23261 -10.23218 -10.23095 -10.22997 -10.22987
 Alpha  occ. eigenvalues --  -10.22977 -10.22885 -10.22767 -10.22687 -10.22555
 Alpha  occ. eigenvalues --  -10.22480  -3.14700  -3.12986  -1.87534  -1.87060
 Alpha  occ. eigenvalues --   -1.86922  -1.85820  -1.85340  -1.85256  -1.12070
 Alpha  occ. eigenvalues --   -1.10827  -1.06240  -1.04864  -1.02704  -1.02079
 Alpha  occ. eigenvalues --   -1.02068  -1.01947  -0.99090  -0.98538  -0.98226
 Alpha  occ. eigenvalues --   -0.97550  -0.97340  -0.97337  -0.96223  -0.96037
 Alpha  occ. eigenvalues --   -0.87722  -0.85652  -0.84010  -0.83163  -0.83091
 Alpha  occ. eigenvalues --   -0.82897  -0.82824  -0.82465  -0.82015  -0.81561
 Alpha  occ. eigenvalues --   -0.81520  -0.81480  -0.80705  -0.79912  -0.78653
 Alpha  occ. eigenvalues --   -0.78649  -0.78118  -0.78070  -0.76834  -0.76748
 Alpha  occ. eigenvalues --   -0.76511  -0.75875  -0.75381  -0.75021  -0.74763
 Alpha  occ. eigenvalues --   -0.74746  -0.72596  -0.72343  -0.72100  -0.71835
 Alpha  occ. eigenvalues --   -0.71634  -0.70889  -0.70830  -0.69790  -0.69581
 Alpha  occ. eigenvalues --   -0.69207  -0.67330  -0.66568  -0.66284  -0.65934
 Alpha  occ. eigenvalues --   -0.63494  -0.63106  -0.63043  -0.62567  -0.62308
 Alpha  occ. eigenvalues --   -0.61837  -0.61100  -0.60687  -0.60266  -0.59781
 Alpha  occ. eigenvalues --   -0.59492  -0.59328  -0.59310  -0.58978  -0.58787
 Alpha  occ. eigenvalues --   -0.58667  -0.56889  -0.56662  -0.54869  -0.54434
 Alpha  occ. eigenvalues --   -0.54375  -0.53664  -0.53535  -0.52990  -0.52990
 Alpha  occ. eigenvalues --   -0.52808  -0.52528  -0.52302  -0.52007  -0.51526
 Alpha  occ. eigenvalues --   -0.50673  -0.50483  -0.50004  -0.49859  -0.49733
 Alpha  occ. eigenvalues --   -0.49636  -0.49571  -0.48884  -0.48550  -0.48508
 Alpha  occ. eigenvalues --   -0.48086  -0.48036  -0.47952  -0.47599  -0.47566
 Alpha  occ. eigenvalues --   -0.47466  -0.47312  -0.47132  -0.47084  -0.47010
 Alpha  occ. eigenvalues --   -0.46886  -0.46662  -0.46594  -0.46459  -0.45881
 Alpha  occ. eigenvalues --   -0.45732  -0.45587  -0.45185  -0.45024  -0.44972
 Alpha  occ. eigenvalues --   -0.44865  -0.44639  -0.44505  -0.44416  -0.44228
 Alpha  occ. eigenvalues --   -0.43985  -0.43807  -0.43575  -0.43456  -0.43402
 Alpha  occ. eigenvalues --   -0.43283  -0.43068  -0.42840  -0.42811  -0.42682
 Alpha  occ. eigenvalues --   -0.42550  -0.42464  -0.42366  -0.42118  -0.41992
 Alpha  occ. eigenvalues --   -0.41822  -0.41387  -0.41325  -0.41320  -0.41192
 Alpha  occ. eigenvalues --   -0.41039  -0.40972  -0.40895  -0.40668  -0.40488
 Alpha  occ. eigenvalues --   -0.40140  -0.39972  -0.39729  -0.39549  -0.39467
 Alpha  occ. eigenvalues --   -0.39350  -0.39245  -0.39067  -0.38852  -0.38756
 Alpha  occ. eigenvalues --   -0.38695  -0.38459  -0.38387  -0.38256  -0.38107
 Alpha  occ. eigenvalues --   -0.37984  -0.37793  -0.37766  -0.37593  -0.37239
 Alpha  occ. eigenvalues --   -0.37229  -0.37135  -0.36841  -0.36802  -0.36792
 Alpha  occ. eigenvalues --   -0.36769  -0.36375  -0.36263  -0.36020  -0.35904
 Alpha  occ. eigenvalues --   -0.35729  -0.35652  -0.35328  -0.35279  -0.35257
 Alpha  occ. eigenvalues --   -0.35088  -0.34954  -0.34673  -0.33718  -0.33441
 Alpha  occ. eigenvalues --   -0.33228  -0.32977  -0.32933  -0.32642  -0.32242
 Alpha  occ. eigenvalues --   -0.32229  -0.32068  -0.32039  -0.31948  -0.31587
 Alpha  occ. eigenvalues --   -0.31140  -0.29905  -0.29819  -0.29389  -0.29259
 Alpha  occ. eigenvalues --   -0.28953  -0.28414  -0.28341  -0.27083  -0.26991
 Alpha  occ. eigenvalues --   -0.25971  -0.25932  -0.25931  -0.25513  -0.25454
 Alpha  occ. eigenvalues --   -0.25427  -0.25186  -0.25053  -0.21188  -0.21033
 Alpha  occ. eigenvalues --   -0.18694  -0.17898
 Alpha virt. eigenvalues --   -0.11395  -0.10236  -0.05854  -0.05125  -0.04212
 Alpha virt. eigenvalues --   -0.04079  -0.02126  -0.01949  -0.00876   0.00125
 Alpha virt. eigenvalues --    0.00500   0.00852   0.01052   0.01205   0.01259

 Mulliken charges:
               1
     1  Mg  12.000000
     2  C    6.000000
     3  C    6.000000
     4  C    6.000000
     5  C    6.000000
     6  N    7.000000
     7  C    6.000000
     8  C    6.000000
     9  C    6.000000
    10  C    6.000000
    11  C    6.000000
    12  C    6.000000
    13  C    6.000000
    14  H    1.000000
    15  N    7.000000
    16  C    6.000000
    17  C    6.000000
    18  C    6.000000
    19  C    6.000000
    20  C    6.000000
    21  C    6.000000
    22  O    8.000000
    23  C    6.000000
    24  N    7.000000
    25  C    6.000000
    26  C    6.000000
    27  C    6.000000
    28  C    6.000000
    29  C    6.000000
    30  C    6.000000
    31  C    6.000000
    32  N    7.000000
    33  C    6.000000
    34  C    6.000000
    35  C    6.000000
    36  C    6.000000
    37  C    6.000000
    38  C    6.000000
    39  O    8.000000
    40  C    6.000000
    41  C    6.000000
    42  O    8.000000
    43  O    8.000000
    44  C    6.000000
    45  H    1.000000
    46  H    1.000000
    47  H    1.000000
    48  H    1.000000
    49  H    1.000000
    50  H    1.000000
    51  H    1.000000
    52  H    1.000000
    53  H    1.000000
    54  H    1.000000
    55  H    1.000000
    56  H    1.000000
    57  H    1.000000
    58  H    1.000000
    59  H    1.000000
    60  H    1.000000
    61  H    1.000000
    62  H    1.000000
    63  H    1.000000
    64  H    1.000000
    65  H    1.000000
    66  H    1.000000
    67  H    1.000000
    68  H    1.000000
    69  H    1.000000
    70  H    1.000000
    71  H    1.000000
    72  H    1.000000
    73  H    1.000000
    74  H    1.000000
    75  H    1.000000
    76  H    1.000000
    77  H    1.000000
    78  H    1.000000
    79  H    1.000000
    80  Mg  12.000000
    81  C    6.000000
    82  C    6.000000
    83  C    6.000000
    84  C    6.000000
    85  N    7.000000
    86  C    6.000000
    87  C    6.000000
    88  C    6.000000
    89  C    6.000000
    90  C    6.000000
    91  C    6.000000
    92  C    6.000000
    93  H    1.000000
    94  N    7.000000
    95  C    6.000000
    96  C    6.000000
    97  C    6.000000
    98  C    6.000000
    99  C    6.000000
   100  C    6.000000
   101  O    8.000000
   102  C    6.000000
   103  N    7.000000
   104  C    6.000000
   105  C    6.000000
   106  C    6.000000
   107  C    6.000000
   108  C    6.000000
   109  C    6.000000
   110  C    6.000000
   111  N    7.000000
   112  C    6.000000
   113  C    6.000000
   114  C    6.000000
   115  C    6.000000
   116  C    6.000000
   117  C    6.000000
   118  O    8.000000
   119  C    6.000000
   120  C    6.000000
   121  O    8.000000
   122  O    8.000000
   123  C    6.000000
   124  H    1.000000
   125  H    1.000000
   126  H    1.000000
   127  H    1.000000
   128  H    1.000000
   129  H    1.000000
   130  H    1.000000
   131  H    1.000000
   132  H    1.000000
   133  H    1.000000
   134  H    1.000000
   135  H    1.000000
   136  H    1.000000
   137  H    1.000000
   138  H    1.000000
   139  H    1.000000
   140  H    1.000000
   141  H    1.000000
   142  H    1.000000
   143  H    1.000000
   144  H    1.000000
   145  H    1.000000
   146  H    1.000000
   147  H    1.000000
   148  H    1.000000
   149  H    1.000000
   150  H    1.000000
   151  H    1.000000
   152  H    1.000000
   153  H    1.000000
   154  H    1.000000
   155  H    1.000000
   156  H    1.000000
   157  H    1.000000
   158  H    1.000000
 Sum of Mulliken charges = 624.00000

 Dipole moment (field-independent basis, Debye):
    X=             -0.0000    Y=              0.0000    Z=             -0.0000  Tot=              0.0000
 Quadrupole moment (field-independent basis, Debye-Ang):
   XX=              0.0000   YY=             -0.0000   ZZ=             -0.0000
   XY=             -0.0000   XZ=             -0.0000   YZ=              0.0000

 Normal termination of Gaussian 16 at Fri Oct 15 02:09:31 2021.
