 Gaussian 16, Revision A.03,
 Gaussian 16:  ES64L-G16RevA.03 25-Dec-2016

 --------------------------------------------------------
 #p PBE1PBE/Def2SVP td=(nstates=5) density=(transition=1)
 --------------------------------------------------------

 --------------------------------
 TDDFT excited states in gaussian
 --------------------------------
 Symbolic Z-matrix:
 Charge =  0 Multiplicity = 1

                         Standard orientation:
 ---------------------------------------------------------------------
 Center     Atomic      Atomic             Coordinates (Angstroms)
 Number     Number       Type             X           Y           Z
 ---------------------------------------------------------------------
      1         12           0       14.577080   -0.283822   -0.201888
      2          6           0       11.213080   -1.013613   -0.664437
      3          6           0       14.134257    2.643195   -2.149974
      4          6           0       17.357505    1.020137    1.114576
      5          6           0       14.662665   -2.827221    2.237878
      6          7           0       12.711741    0.901863   -1.018440
      7          6           0       11.544967    0.223035   -1.275668
      8          6           0       10.614640    1.032259   -2.123737
      9          6           0       11.623248    2.065446   -2.807563
     10          6           0       12.924710    1.917180   -1.942696
     11          6           0       11.907615    1.839313   -4.377492
     12          6           0        9.400988    1.620538   -1.235809
     13          6           0        8.188288    1.891658   -1.972060
     14          1           0        7.684387    3.342659   -1.821106
     15          7           0       15.705929    1.463286   -0.588166
     16          6           0       15.354398    2.551056   -1.435635
     17          6           0       16.457663    3.496575   -1.413472
     18          6           0       17.430677    3.047563   -0.487719
     19          6           0       16.889680    1.736223    0.004648
     20          6           0       16.400924    4.788592   -2.139821
     21          6           0       18.735545    3.860224   -0.097542
     22          8           0       18.906481    4.940711   -0.659964
     23          6           0       19.884229    3.222540    0.676381
     24          7           0       15.728227   -0.803334    1.493869
     25          6           0       16.896500   -0.149500    1.716354
     26          6           0       17.681599   -0.685646    3.068240
     27          6           0       16.910803   -2.073540    3.294562
     28          6           0       15.709423   -1.962934    2.303289
     29          6           0       19.230524   -0.928771    2.912203
     30          6           0       16.433026   -2.268021    4.734816
     31          6           0       16.895119   -3.488851    5.566007
     32          7           0       13.331015   -1.811851    0.411534
     33          6           0       13.517264   -2.768886    1.366410
     34          6           0       12.406335   -3.679968    1.341710
     35          6           0       11.434503   -2.949122    0.559861
     36          6           0       12.071119   -1.797562    0.066339
     37          6           0       12.231952   -4.899939    2.199331
     38          6           0       10.043700   -2.943778    0.156794
     39          8           0        9.218196   -3.801937    0.237385
     40          6           0        9.801147   -1.673256   -0.747760
     41          6           0        9.462491   -1.985169   -2.222160
     42          8           0       10.097055   -2.736722   -2.930724
     43          8           0        8.256676   -1.345122   -2.575585
     44          6           0        7.705986   -1.669225   -3.856859
     45          1           0       13.952925    3.487939   -2.816621
     46          1           0       18.116608    1.504768    1.731836
     47          1           0       14.742026   -3.613523    2.990799
     48          1           0       10.278266    0.488285   -3.006980
     49          1           0       11.219604    3.069312   -2.670716
     50          1           0       11.584710    2.761752   -4.859960
     51          1           0       11.382225    0.975559   -4.783740
     52          1           0       12.987564    1.726605   -4.477222
     53          1           0        9.801511    2.561296   -0.858482
     54          1           0        9.365112    0.890560   -0.426689
     55          1           0        7.442172    1.197201   -1.587737
     56          1           0        8.358854    1.749019   -3.039106
     57          1           0       15.583039    4.809706   -2.859823
     58          1           0       17.295463    4.910933   -2.751015
     59          1           0       16.248119    5.622241   -1.454014
     60          1           0       19.629124    2.957890    1.703014
     61          1           0       20.719146    3.923756    0.656628
     62          1           0       20.195983    2.338445    0.120130
     63          1           0       17.390535    0.040310    3.826937
     64          1           0       17.436885   -2.956049    2.929881
     65          1           0       19.778250   -0.209658    3.520583
     66          1           0       19.515236   -0.795792    1.867792
     67          1           0       19.420740   -1.947642    3.251283
     68          1           0       15.348548   -2.193371    4.811762
     69          1           0       16.638261   -1.429237    5.399769
     70          1           0       16.150398   -4.250173    5.799718
     71          1           0       17.191261   -3.073534    6.529591
     72          1           0       17.724259   -4.006132    5.081759
     73          1           0       11.465440   -5.513830    1.725715
     74          1           0       11.677745   -4.739852    3.123635
     75          1           0       13.153667   -5.426031    2.446458
     76          1           0        8.929608   -1.210258   -0.284145
     77          1           0        7.154286   -0.751935   -4.065093
     78          1           0        6.931830   -2.433228   -3.787761
     79          1           0        8.488956   -1.966149   -4.553489
     80         12           0      -13.868735    0.952907   -0.010389
     81          6           0      -13.781348   -2.612216   -0.332331
     82          6           0      -10.463013    1.028138   -0.445480
     83          6           0      -13.785800    4.245232    0.738968
     84          6           0      -17.099998    0.588675    1.356225
     85          7           0      -12.337047   -0.621813   -0.358186
     86          6           0      -12.502190   -2.005282   -0.529402
     87          6           0      -11.172500   -2.620483   -0.883152
     88          6           0      -10.145775   -1.516828   -0.387314
     89          6           0      -11.060263   -0.257988   -0.330070
     90          6           0       -9.617764   -1.949509    1.026847
     91          6           0      -11.056590   -3.085994   -2.377542
     92          6           0      -10.435419   -4.388881   -2.454499
     93          1           0      -10.579210   -5.127959   -3.878511
     94          7           0      -12.301164    2.400388   -0.066453
     95          6           0      -10.994179    2.233231   -0.301282
     96          6           0      -10.353092    3.511685   -0.338332
     97          6           0      -11.278154    4.470211    0.018546
     98          6           0      -12.605443    3.722586    0.211680
     99          6           0       -8.810090    3.662895   -0.526427
    100          6           0      -11.108942    6.001269    0.099996
    101          8           0      -12.038332    6.673882    0.468489
    102          6           0       -9.832026    6.663613   -0.360964
    103          7           0      -15.176823    2.163440    1.176448
    104          6           0      -14.948221    3.534856    1.200162
    105          6           0      -16.161029    4.266583    1.675659
    106          6           0      -17.245141    3.095350    1.857025
    107          6           0      -16.500717    1.870950    1.379039
    108          6           0      -15.903748    5.108434    2.879553
    109          6           0      -18.680066    3.279757    1.114042
    110          6           0      -19.896540    3.328455    1.951396
    111          7           0      -15.238459   -0.635950    0.400485
    112          6           0      -16.495727   -0.587420    0.959193
    113          6           0      -17.065299   -2.004561    0.947442
    114          6           0      -16.081201   -2.813816    0.345037
    115          6           0      -14.967781   -1.942102    0.078619
    116          6           0      -18.433200   -2.397056    1.522183
    117          6           0      -15.767171   -4.182678    0.067420
    118          8           0      -16.458029   -5.217267    0.205794
    119          6           0      -14.210864   -4.147287   -0.224015
    120          6           0      -14.006242   -5.048115   -1.478983
    121          8           0      -13.854309   -4.543420   -2.606566
    122          8           0      -13.937762   -6.349383   -1.105114
    123          6           0      -13.946983   -7.206346   -2.340278
    124          1           0       -9.431702    1.090056   -0.800097
    125          1           0      -13.789549    5.313011    0.970543
    126          1           0      -18.126712    0.387941    1.668888
    127          1           0      -11.049400   -3.464908   -0.205375
    128          1           0       -9.297906   -1.420486   -1.064570
    129          1           0      -10.347500   -1.814965    1.824887
    130          1           0       -8.693865   -1.411573    1.235008
    131          1           0       -9.347380   -3.005090    0.991021
    132          1           0      -10.317419   -2.433007   -2.842196
    133          1           0      -12.007354   -3.007394   -2.905304
    134          1           0      -10.950094   -5.108118   -1.817164
    135          1           0       -9.381211   -4.262490   -2.206749
    136          1           0       -8.735975    4.337030   -1.379698
    137          1           0       -8.286075    2.742260   -0.782775
    138          1           0       -8.360602    4.039877    0.392142
    139          1           0       -9.858957    7.733234   -0.152611
    140          1           0       -9.938969    6.411580   -1.415975
    141          1           0       -8.996907    6.171626    0.137575
    142          1           0      -16.415415    4.884563    0.814358
    143          1           0      -17.449436    3.026390    2.925195
    144          1           0      -15.969834    6.131582    2.511725
    145          1           0      -14.882947    5.020259    3.251119
    146          1           0      -16.572922    4.939655    3.723560
    147          1           0      -18.753753    2.357077    0.538491
    148          1           0      -18.586450    4.113371    0.419314
    149          1           0      -20.556957    2.488790    1.736366
    150          1           0      -20.327813    4.214978    1.487700
    151          1           0      -19.688994    3.536338    3.001955
    152          1           0      -18.239295   -2.719581    2.544546
    153          1           0      -18.902496   -3.209103    0.966888
    154          1           0      -19.106015   -1.542630    1.448468
    155          1           0      -13.783786   -4.586563    0.676472
    156          1           0      -14.913297   -7.282966   -2.838474
    157          1           0      -13.581118   -8.222060   -2.193600
    158          1           0      -13.203598   -6.765060   -3.004470
 ---------------------------------------------------------------------

 SCF Done:  E(RPBE1PBE) =  -4067.31600968     A.U. after   16 cycles

 Excitation energies and oscillator strengths:

 Excited State   1:      Singlet-A      1.6576 eV  747.98 nm  f=0.0000  <S**2>=0.000
     312 -> 313        0.70710
 This state for optimization and/or second-order correction.
 Total Energy, E(TD-HF/TD-DFT) =  -4067.25509426
 Copying the excited state density for this state as the 1-particle RhoCI density.

 Excited State   2:      Singlet-A      1.8310 eV  677.15 nm  f=0.5649  <S**2>=0.000
     310 -> 315       -0.17306
     311 -> 313        0.21543
     312 -> 314        0.65535

 Excited State   3:      Singlet-A      1.8326 eV  676.55 nm  f=0.1653  <S**2>=0.000
     309 -> 316       -0.16097
     311 -> 313        0.66113
     312 -> 314       -0.21347
     311 <- 313       -0.10559

 Excited State   4:      Singlet-A      2.2173 eV  559.18 nm  f=0.0000  <S**2>=0.000
     311 -> 314        0.70710

 Excited State   5:      Singlet-A      2.2474 eV  551.67 nm  f=0.1032  <S**2>=0.000
     309 -> 313        0.64693
     311 -> 316        0.27106

 The electronic state is 1-A.
 Alpha  occ. eigenvalues --  -46.93252 -46.92777 -19.26809 -19.25905 -19.21048
 Alpha  occ. eigenvalues --  -19.20038 -19.19795 -19.19441 -19.19142 -19.18701
 Alpha  occ. eigenvalues --  -14.41773 -14.41714 -14.41688 -14.41466 -14.39808
 Alpha  occ. eigenvalues --  -14.38897 -14.38892 -14.38889 -10.37226 -10.36755
 Alpha  occ. eigenvalues --  -10.33455 -10.32574 -10.32182 -10.31376 -10.29463
 Alpha  occ. eigenvalues --  -10.29246 -10.28871 -10.28851 -10.28818 -10.28793
 Alpha  occ. eigenvalues --  -10.28759 -10.28606 -10.28577 -10.28531 -10.28477
 Alpha  occ. eigenvalues --  -10.28470 -10.28427 -10.27724 -10.27195 -10.27154
 Alpha  occ. eigenvalues --  -10.26674 -10.26628 -10.26611 -10.26447 -10.26327
 Alpha  occ. eigenvalues --  -10.26314 -10.26274 -10.26173 -10.26101 -10.26056
 Alpha  occ. eigenvalues --  -10.26035 -10.25927 -10.25844 -10.25748 -10.25733
 Alpha  occ. eigenvalues --  -10.25659 -10.25566 -10.25506 -10.25402 -10.25270
 Alpha  occ. eigenvalues --  -10.25233 -10.25221 -10.25198 -10.24763 -10.24351
 Alpha  occ. eigenvalues --  -10.24283 -10.24271 -10.24202 -10.24188 -10.24185
 Alpha  occ. eigenvalues --  -10.24134 -10.24052 -10.24014 -10.23995 -10.23748
 Alpha  occ. eigenvalues --  -10.23631 -10.23571 -10.23556 -10.23399 -10.23393
 Alpha  occ. eigenvalues --  -10.22883 -10.22769 -10.22760 -10.22682 -10.22679
 Alpha  occ. eigenvalues --  -10.22486  -3.15252  -3.14699  -1.88039  -1.87680
 Alpha  occ. eigenvalues --   -1.87533  -1.87440  -1.87059  -1.86921  -1.10944
 Alpha  occ. eigenvalues --   -1.10821  -1.06242  -1.05788  -1.04920  -1.03675
 Alpha  occ. eigenvalues --   -1.02701  -1.01942  -0.99880  -0.98536  -0.97548
 Alpha  occ. eigenvalues --   -0.97463  -0.97337  -0.97008  -0.96239  -0.96221
 Alpha  occ. eigenvalues --   -0.86758  -0.85649  -0.83582  -0.83157  -0.82893
 Alpha  occ. eigenvalues --   -0.82681  -0.82491  -0.82468  -0.81559  -0.81480
 Alpha  occ. eigenvalues --   -0.81245  -0.80869  -0.80145  -0.79910  -0.78649
 Alpha  occ. eigenvalues --   -0.78381  -0.78115  -0.77733  -0.76979  -0.76829
 Alpha  occ. eigenvalues --   -0.76513  -0.76428  -0.75553  -0.75019  -0.74759
 Alpha  occ. eigenvalues --   -0.74696  -0.72342  -0.72284  -0.71836  -0.71643
 Alpha  occ. eigenvalues --   -0.71090  -0.70884  -0.70560  -0.69784  -0.69338
 Alpha  occ. eigenvalues --   -0.69203  -0.67215  -0.66564  -0.65932  -0.65846
 Alpha  occ. eigenvalues --   -0.63669  -0.63104  -0.63002  -0.62311  -0.61935
 Alpha  occ. eigenvalues --   -0.61835  -0.60908  -0.60681  -0.60373  -0.59490
 Alpha  occ. eigenvalues --   -0.59407  -0.59324  -0.58975  -0.58948  -0.58785
 Alpha  occ. eigenvalues --   -0.58769  -0.57504  -0.56658  -0.54374  -0.54291
 Alpha  occ. eigenvalues --   -0.54142  -0.53659  -0.53614  -0.53139  -0.52989
 Alpha  occ. eigenvalues --   -0.52805  -0.52695  -0.52105  -0.52005  -0.51523
 Alpha  occ. eigenvalues --   -0.50904  -0.50482  -0.50031  -0.50000  -0.49634
 Alpha  occ. eigenvalues --   -0.49634  -0.49344  -0.48879  -0.48674  -0.48549
 Alpha  occ. eigenvalues --   -0.48088  -0.48032  -0.47928  -0.47562  -0.47411
 Alpha  occ. eigenvalues --   -0.47315  -0.47218  -0.47128  -0.47017  -0.47004
 Alpha  occ. eigenvalues --   -0.46659  -0.46458  -0.46375  -0.46252  -0.45714
 Alpha  occ. eigenvalues --   -0.45587  -0.45541  -0.45185  -0.45023  -0.44865
 Alpha  occ. eigenvalues --   -0.44829  -0.44554  -0.44507  -0.44349  -0.44241
 Alpha  occ. eigenvalues --   -0.43984  -0.43957  -0.43900  -0.43803  -0.43486
 Alpha  occ. eigenvalues --   -0.43394  -0.43283  -0.43204  -0.42806  -0.42760
 Alpha  occ. eigenvalues --   -0.42587  -0.42546  -0.42458  -0.42130  -0.42114
 Alpha  occ. eigenvalues --   -0.41741  -0.41631  -0.41321  -0.41206  -0.41190
 Alpha  occ. eigenvalues --   -0.40971  -0.40948  -0.40894  -0.40686  -0.40483
 Alpha  occ. eigenvalues --   -0.40464  -0.40140  -0.40039  -0.39810  -0.39625
 Alpha  occ. eigenvalues --   -0.39467  -0.39410  -0.39240  -0.39064  -0.38901
 Alpha  occ. eigenvalues --   -0.38755  -0.38737  -0.38515  -0.38455  -0.38292
 Alpha  occ. eigenvalues --   -0.38250  -0.37984  -0.37791  -0.37765  -0.37625
 Alpha  occ. eigenvalues --   -0.37589  -0.37537  -0.37388  -0.37235  -0.37113
 Alpha  occ. eigenvalues --   -0.36837  -0.36796  -0.36439  -0.36370  -0.36032
 Alpha  occ. eigenvalues --   -0.36017  -0.35955  -0.35653  -0.35414  -0.35080
 Alpha  occ. eigenvalues --   -0.34839  -0.34672  -0.33719  -0.33675  -0.33435
 Alpha  occ. eigenvalues --   -0.33222  -0.32936  -0.32824  -0.32240  -0.32149
 Alpha  occ. eigenvalues --   -0.32065  -0.31944  -0.31724  -0.31330  -0.31137
 Alpha  occ. eigenvalues --   -0.30764  -0.29897  -0.29849  -0.29482  -0.29257
 Alpha  occ. eigenvalues --   -0.28950  -0.28947  -0.28338  -0.27083  -0.26960
 Alpha  occ. eigenvalues --   -0.26251  -0.25973  -0.25929  -0.25654  -0.25451
 Alpha  occ. eigenvalues --   -0.25169  -0.25051  -0.25036  -0.21268  -0.21031
 Alpha  occ. eigenvalues --   -0.18865  -0.17896
 Alpha virt. eigenvalues --   -0.11339  -0.10235  -0.05852  -0.05222  -0.04211
 Alpha virt. eigenvalues --   -0.03835  -0.02386  -0.01949  -0.01510  -0.00878
 Alpha virt. eigenvalues --   -0.00203   0.00308   0.00506   0.01057   0.01578

 Mulliken charges:
               1
     1  Mg  12.000000
     2  C    6.000000
     3  C    6.000000
     4  C    6.000000
     5  C    6.000000
     6  N    7.000000
     7  C    6.000000
     8  C    6.000000
     9  C    6.000000
    10  C    6.000000
    11  C    6.000000
    12  C    6.000000
    13  C    6.000000
    14  H    1.000000
    15  N    7.000000
    16  C    6.000000
    17  C    6.000000
    18  C    6.000000
    19  C    6.000000
    20  C    6.000000
    21  C    6.000000
    22  O    8.000000
    23  C    6.000000
    24  N    7.000000
    25  C    6.000000
    26  C    6.000000
    27  C    6.000000
    28  C    6.000000
    29  C    6.000000
    30  C    6.000000
    31  C    6.000000
    32  N    7.000000
    33  C    6.000000
    34  C    6.000000
    35  C    6.000000
    36  C    6.000000
    37  C    6.000000
    38  C    6.000000
    39  O    8.000000
    40  C    6.000000
    41  C    6.000000
    42  O    8.000000
    43  O    8.000000
    44  C    6.000000
    45  H    1.000000
    46  H    1.000000
    47  H    1.000000
    48  H    1.000000
    49  H    1.000000
    50  H    1.000000
    51  H    1.000000
    52  H    1.000000
    53  H    1.000000
    54  H    1.000000
    55  H    1.000000
    56  H    1.000000
    57  H    1.000000
    58  H    1.000000
    59  H    1.000000
    60  H    1.000000
    61  H    1.000000
    62  H    1.000000
    63  H    1.000000
    64  H    1.000000
    65  H    1.000000
    66  H    1.000000
    67  H    1.000000
    68  H    1.000000
    69  H    1.000000
    70  H    1.000000
    71  H    1.000000
    72  H    1.000000
    73  H    1.000000
    74  H    1.000000
    75  H    1.000000
    76  H    1.000000
    77  H    1.000000
    78  H    1.000000
    79  H    1.000000
    80  Mg  12.000000
    81  C    6.000000
    82  C    6.000000
    83  C    6.000000
    84  C    6.000000
    85  N    7.000000
    86  C    6.000000
    87  C    6.000000
    88  C    6.000000
    89  C    6.000000
    90  C    6.000000
    91  C    6.000000
    92  C    6.000000
    93  H    1.000000
    94  N    7.000000
    95  C    6.000000
    96  C    6.000000
    97  C    6.000000
    98  C    6.000000
    99  C    6.000000
   100  C    6.000000
   101  O    8.000000
   102  C    6.000000
   103  N    7.000000
   104  C    6.000000
   105  C    6.000000
   106  C    6.000000
   107  C    6.000000
   108  C    6.000000
   109  C    6.000000
   110  C    6.000000
   111  N    7.000000
   112  C    6.000000
   113  C    6.000000
   114  C    6.000000
   115  C    6.000000
   116  C    6.000000
   117  C    6.000000
   118  O    8.000000
   119  C    6.000000
   120  C    6.000000
   121  O    8.000000
   122  O    8.000000
   123  C    6.000000
   124  H    1.000000
   125  H    1.000000
   126  H    1.000000
   127  H    1.000000
   128  H    1.000000
   129  H    1.000000
   130  H    1.000000
   131  H    1.000000
   132  H    1.000000
   133  H    1.000000
   134  H    1.000000
   135  H    1.000000
   136  H    1.000000
   137  H    1.000000
   138  H    1.000000
   139  H    1.000000
   140  H    1.000000
   141  H    1.000000
   142  H    1.000000
   143  H    1.000000
   144  H    1.000000
   145  H    1.000000
   146  H    1.000000
   147  H    1.000000
   148  H    1.000000
   149  H    1.000000
   150  H    1.000000
   151  H    1.000000
   152  H    1.000000
   153  H    1.000000
   154  H    1.000000
   155  H    1.000000
   156  H    1.000000
   157  H    1.000000
   158  H    1.000000
 Sum of Mulliken charges = 624.00000

 Dipole moment (field-independent basis, Debye):
    X=              0.0000    Y=             -0.0000    Z=              0.0000  Tot=              0.0000
 Quadrupole moment (field-independent basis, Debye-Ang):
   XX=             -0.0000   YY=              0.0000   ZZ=              0.0000
   XY=             -0.0000   XZ=              0.0000   YZ=              0.0000

 Normal termination of Gaussian 16 at Thu Oct 14 10:33:57 2021.
