 Gaussian 16, Revision A.03,
 Gaussian 16:  ES64L-G16RevA.03 25-Dec-2016

 --------------------------------------------------------
 #p PBE1PBE/Def2SVP td=(nstates=5) density=(transition=1)
 --------------------------------------------------------

 --------------------------------
 TDDFT excited states in gaussian
 --------------------------------
 Symbolic Z-matrix:
 Charge =  0 Multiplicity = 1

                         Standard orientation:
 ---------------------------------------------------------------------
 Center     Atomic      Atomic             Coordinates (Angstroms)
 Number     Number       Type             X           Y           Z
 ---------------------------------------------------------------------
      1         12           0       22.025455   -0.595991    0.300419
      2          6           0       21.375845    2.093489   -1.693159
      3          6           0       21.728022    1.525309    3.115653
      4          6           0       22.887195   -3.155422    2.280305
      5          6           0       22.225013   -2.571614   -2.502413
      6          7           0       21.917153    1.592927    0.669859
      7          6           0       21.533514    2.487638   -0.337302
      8          6           0       21.311944    3.924347    0.214721
      9          6           0       21.513456    3.636395    1.726234
     10          6           0       21.806225    2.153758    1.869075
     11          6           0       22.527685    4.484197    2.606341
     12          6           0       19.906706    4.603882   -0.098469
     13          6           0       19.791449    6.016859    0.533743
     14          1           0       19.851829    7.145998   -0.495940
     15          7           0       22.228566   -0.792265    2.462687
     16          6           0       21.829456    0.137065    3.399055
     17          6           0       22.131634   -0.455290    4.696824
     18          6           0       22.477046   -1.820616    4.437358
     19          6           0       22.526686   -2.001185    3.020604
     20          6           0       21.963283    0.321149    5.945590
     21          6           0       22.885314   -2.829919    5.566609
     22          8           0       23.389146   -3.949538    5.344040
     23          6           0       22.746553   -2.435376    7.013872
     24          7           0       22.492086   -2.464286   -0.039172
     25          6           0       22.846290   -3.409473    0.964293
     26          6           0       23.427563   -4.661381    0.347253
     27          6           0       22.769746   -4.604071   -1.030129
     28          6           0       22.412737   -3.136805   -1.220896
     29          6           0       24.991513   -4.639774    0.277668
     30          6           0       21.463000   -5.425219   -1.103708
     31          6           0       21.556137   -6.894757   -1.415586
     32          7           0       21.893978   -0.387652   -1.746488
     33          6           0       21.839624   -1.270346   -2.756930
     34          6           0       21.656528   -0.567668   -3.992471
     35          6           0       21.447790    0.750430   -3.646248
     36          6           0       21.558933    0.811204   -2.248429
     37          6           0       21.608592   -1.260895   -5.309314
     38          6           0       21.167530    2.014837   -4.179424
     39          8           0       20.961541    2.384958   -5.319142
     40          6           0       21.103463    2.975112   -2.900632
     41          6           0       22.093807    4.067241   -3.099878
     42          8           0       23.296443    3.966902   -3.119397
     43          8           0       21.498215    5.263444   -3.115560
     44          6           0       22.407671    6.464869   -3.259547
     45          1           0       21.467707    2.201625    3.932353
     46          1           0       23.163078   -4.000965    2.913611
     47          1           0       22.146061   -3.151856   -3.423733
     48          1           0       22.115980    4.562188   -0.152549
     49          1           0       20.562482    3.752814    2.246900
     50          1           0       22.220364    4.692553    3.631500
     51          1           0       22.877218    5.346589    2.038428
     52          1           0       23.376448    3.814905    2.746238
     53          1           0       19.187778    3.871267    0.266241
     54          1           0       19.794737    4.669851   -1.180617
     55          1           0       20.509238    6.119579    1.347581
     56          1           0       18.796069    6.076905    0.972892
     57          1           0       22.954172    0.502491    6.362388
     58          1           0       21.241448   -0.234455    6.544242
     59          1           0       21.471393    1.273261    5.745999
     60          1           0       23.016855   -3.274939    7.654326
     61          1           0       21.670664   -2.315160    7.148031
     62          1           0       23.263654   -1.530805    7.332888
     63          1           0       23.141008   -5.548867    0.912161
     64          1           0       23.429793   -4.917332   -1.838762
     65          1           0       25.340346   -3.966275   -0.504191
     66          1           0       25.376840   -5.646619    0.114594
     67          1           0       25.317553   -4.299374    1.259865
     68          1           0       20.730922   -4.996942   -1.787178
     69          1           0       20.916457   -5.321189   -0.166283
     70          1           0       21.115199   -7.420039   -0.568864
     71          1           0       22.625703   -7.092282   -1.342416
     72          1           0       21.157725   -7.178156   -2.389916
     73          1           0       20.575703   -1.435834   -5.607854
     74          1           0       22.234227   -2.142005   -5.455157
     75          1           0       21.996225   -0.534226   -6.023524
     76          1           0       20.097987    3.391804   -2.837258
     77          1           0       23.189414    6.362980   -2.506498
     78          1           0       21.905048    7.411293   -3.058458
     79          1           0       22.824167    6.446315   -4.266905
     80         12           0      -21.482290   -0.765075    0.013400
     81          6           0      -23.467152    1.798999    1.299471
     82          6           0      -19.375305    1.487687   -1.236619
     83          6           0      -20.467833   -3.140777   -2.225353
     84          6           0      -23.743893   -3.082844    1.297678
     85          7           0      -21.342638    1.422729    0.175989
     86          6           0      -22.236843    2.219540    0.748422
     87          6           0      -21.684786    3.690924    0.745609
     88          6           0      -20.439749    3.569485   -0.165358
     89          6           0      -20.369742    2.074722   -0.463139
     90          6           0      -20.590967    4.314060   -1.583552
     91          6           0      -21.312920    4.280972    2.181189
     92          6           0      -21.736797    5.701237    2.336373
     93          1           0      -20.731658    6.734508    2.821436
     94          7           0      -20.092018   -0.807547   -1.497403
     95          6           0      -19.285483    0.239457   -1.857238
     96          6           0      -18.216166   -0.270289   -2.726872
     97          6           0      -18.548398   -1.624859   -3.008439
     98          6           0      -19.788587   -1.882795   -2.257971
     99          6           0      -17.067229    0.629057   -3.284687
    100          6           0      -17.830054   -2.625622   -3.963037
    101          8           0      -18.187705   -3.784641   -4.140837
    102          6           0      -16.622540   -2.154864   -4.681752
    103          7           0      -22.019778   -2.742136   -0.424283
    104          6           0      -21.517466   -3.549684   -1.449112
    105          6           0      -22.366779   -4.843383   -1.553660
    106          6           0      -22.917382   -5.025735   -0.071630
    107          6           0      -22.868164   -3.510771    0.275612
    108          6           0      -23.427597   -4.786824   -2.673843
    109          6           0      -22.078119   -5.831161    0.879116
    110          6           0      -20.863754   -5.240398    1.531750
    111          7           0      -23.137823   -0.753936    1.248196
    112          6           0      -23.988845   -1.752116    1.662979
    113          6           0      -25.075751   -1.234934    2.497550
    114          6           0      -24.981786    0.217034    2.308210
    115          6           0      -23.779575    0.423119    1.525583
    116          6           0      -26.130077   -2.004374    3.111065
    117          6           0      -25.603924    1.505418    2.588075
    118          8           0      -26.610931    1.803065    3.112455
    119          6           0      -24.574183    2.601718    1.994868
    120          6           0      -25.222224    3.670955    1.152057
    121          8           0      -25.358217    3.626365   -0.067038
    122          8           0      -25.547157    4.748430    1.975535
    123          6           0      -26.167931    5.926919    1.343945
    124          1           0      -18.496228    2.049001   -1.561163
    125          1           0      -20.104765   -3.843027   -2.979169
    126          1           0      -24.356110   -3.866135    1.748643
    127          1           0      -22.366177    4.384642    0.252470
    128          1           0      -19.506201    3.962881    0.236879
    129          1           0      -20.186745    5.318322   -1.454807
    130          1           0      -21.614981    4.466943   -1.923343
    131          1           0      -19.985700    3.771657   -2.310826
    132          1           0      -20.239279    4.244503    2.366503
    133          1           0      -21.715795    3.733298    3.033273
    134          1           0      -22.470677    5.650307    3.140227
    135          1           0      -22.233053    6.181640    1.493604
    136          1           0      -17.436609    1.023433   -4.230911
    137          1           0      -16.129234    0.079195   -3.365298
    138          1           0      -16.950338    1.577485   -2.759279
    139          1           0      -16.566509   -1.155626   -5.113303
    140          1           0      -16.400631   -2.831818   -5.506358
    141          1           0      -15.738434   -2.399674   -4.092394
    142          1           0      -21.624222   -5.615216   -1.754061
    143          1           0      -23.921696   -5.448530   -0.052094
    144          1           0      -24.456607   -4.998606   -2.383285
    145          1           0      -23.132929   -5.313399   -3.581860
    146          1           0      -23.494434   -3.773086   -3.068376
    147          1           0      -21.690257   -6.758187    0.458609
    148          1           0      -22.724756   -6.155737    1.694481
    149          1           0      -21.259391   -4.903915    2.489889
    150          1           0      -20.437965   -4.364193    1.042311
    151          1           0      -20.110110   -6.018229    1.658810
    152          1           0      -26.342125   -1.510229    4.059371
    153          1           0      -25.727962   -2.997847    3.308045
    154          1           0      -27.018014   -1.997021    2.479684
    155          1           0      -24.118732    3.101957    2.849530
    156          1           0      -27.025906    5.566212    0.775968
    157          1           0      -25.482981    6.394022    0.636789
    158          1           0      -26.509298    6.754369    1.966174
 ---------------------------------------------------------------------

 SCF Done:  E(RPBE1PBE) =  -4067.40776895     A.U. after   16 cycles

 Excitation energies and oscillator strengths:

 Excited State   1:      Singlet-A      1.7979 eV  689.62 nm  f=0.0000  <S**2>=0.000
     312 -> 313        0.70711
 This state for optimization and/or second-order correction.
 Total Energy, E(TD-HF/TD-DFT) =  -4067.34169871
 Copying the excited state density for this state as the 1-particle RhoCI density.

 Excited State   2:      Singlet-A      1.8106 eV  684.79 nm  f=0.3687  <S**2>=0.000
     309 -> 315       -0.15520
     311 -> 313        0.69949
     311 <- 313       -0.12510

 Excited State   3:      Singlet-A      1.8399 eV  673.85 nm  f=0.3689  <S**2>=0.000
     310 -> 316       -0.17108
     312 -> 314        0.69447
     312 <- 314       -0.11327

 Excited State   4:      Singlet-A      2.0570 eV  602.73 nm  f=0.0000  <S**2>=0.000
     311 -> 314        0.70711

 Excited State   5:      Singlet-A      2.2534 eV  550.20 nm  f=0.1035  <S**2>=0.000
     309 -> 313        0.64875
     311 -> 315        0.26387

 The electronic state is 1-A.
 Alpha  occ. eigenvalues --  -46.91353 -46.90932 -19.25634 -19.25523 -19.20246
 Alpha  occ. eigenvalues --  -19.19778 -19.19507 -19.19478 -19.18914 -19.18913
 Alpha  occ. eigenvalues --  -14.42175 -14.41645 -14.41398 -14.41041 -14.38944
 Alpha  occ. eigenvalues --  -14.38926 -14.38626 -14.38490 -10.36630 -10.35481
 Alpha  occ. eigenvalues --  -10.32850 -10.32548 -10.32509 -10.31983 -10.29792
 Alpha  occ. eigenvalues --  -10.29505 -10.29057 -10.29029 -10.28980 -10.28410
 Alpha  occ. eigenvalues --  -10.28401 -10.28310 -10.27871 -10.27843 -10.27669
 Alpha  occ. eigenvalues --  -10.27372 -10.27363 -10.27242 -10.27183 -10.27145
 Alpha  occ. eigenvalues --  -10.27004 -10.26597 -10.26595 -10.26555 -10.26420
 Alpha  occ. eigenvalues --  -10.26252 -10.26221 -10.26108 -10.25983 -10.25960
 Alpha  occ. eigenvalues --  -10.25763 -10.25756 -10.25639 -10.25636 -10.25633
 Alpha  occ. eigenvalues --  -10.25627 -10.25534 -10.25404 -10.25248 -10.25103
 Alpha  occ. eigenvalues --  -10.25057 -10.24990 -10.24971 -10.24932 -10.24576
 Alpha  occ. eigenvalues --  -10.24479 -10.24332 -10.24304 -10.24088 -10.24043
 Alpha  occ. eigenvalues --  -10.23808 -10.23743 -10.23546 -10.23479 -10.23452
 Alpha  occ. eigenvalues --  -10.23303 -10.23283 -10.23226 -10.23225 -10.23184
 Alpha  occ. eigenvalues --  -10.23163 -10.23120 -10.23046 -10.22586 -10.22547
 Alpha  occ. eigenvalues --  -10.21971  -3.13630  -3.13286  -1.86475  -1.86131
 Alpha  occ. eigenvalues --   -1.85981  -1.85882  -1.85679  -1.85508  -1.11648
 Alpha  occ. eigenvalues --   -1.09843  -1.07641  -1.05100  -1.04961  -1.03125
 Alpha  occ. eigenvalues --   -1.02214  -1.01924  -1.00083  -0.99811  -0.98552
 Alpha  occ. eigenvalues --   -0.98232  -0.97764  -0.97593  -0.96815  -0.96752
 Alpha  occ. eigenvalues --   -0.87643  -0.86154  -0.83417  -0.83336  -0.83153
 Alpha  occ. eigenvalues --   -0.82963  -0.82870  -0.82386  -0.82223  -0.81522
 Alpha  occ. eigenvalues --   -0.81451  -0.81258  -0.80926  -0.80622  -0.78669
 Alpha  occ. eigenvalues --   -0.78472  -0.78297  -0.77872  -0.76835  -0.76834
 Alpha  occ. eigenvalues --   -0.76086  -0.75851  -0.75532  -0.75299  -0.74939
 Alpha  occ. eigenvalues --   -0.74734  -0.72772  -0.72592  -0.71890  -0.71574
 Alpha  occ. eigenvalues --   -0.71549  -0.71057  -0.70501  -0.70116  -0.69619
 Alpha  occ. eigenvalues --   -0.69245  -0.67669  -0.66703  -0.66290  -0.65937
 Alpha  occ. eigenvalues --   -0.63900  -0.63611  -0.63350  -0.62953  -0.62697
 Alpha  occ. eigenvalues --   -0.62118  -0.61165  -0.60590  -0.60269  -0.60144
 Alpha  occ. eigenvalues --   -0.59431  -0.59222  -0.59194  -0.58816  -0.58728
 Alpha  occ. eigenvalues --   -0.58570  -0.56655  -0.56378  -0.54840  -0.54769
 Alpha  occ. eigenvalues --   -0.54611  -0.54114  -0.53742  -0.53528  -0.53463
 Alpha  occ. eigenvalues --   -0.52926  -0.52775  -0.52438  -0.52323  -0.51639
 Alpha  occ. eigenvalues --   -0.51177  -0.50487  -0.50457  -0.50087  -0.49838
 Alpha  occ. eigenvalues --   -0.49692  -0.49342  -0.49263  -0.48853  -0.48615
 Alpha  occ. eigenvalues --   -0.48194  -0.48049  -0.48014  -0.47938  -0.47492
 Alpha  occ. eigenvalues --   -0.47427  -0.47308  -0.47075  -0.46835  -0.46743
 Alpha  occ. eigenvalues --   -0.46339  -0.46312  -0.46251  -0.46179  -0.45927
 Alpha  occ. eigenvalues --   -0.45900  -0.45767  -0.45040  -0.45003  -0.44917
 Alpha  occ. eigenvalues --   -0.44766  -0.44641  -0.44616  -0.44477  -0.44302
 Alpha  occ. eigenvalues --   -0.44180  -0.44154  -0.43853  -0.43845  -0.43607
 Alpha  occ. eigenvalues --   -0.43437  -0.43292  -0.42997  -0.42997  -0.42762
 Alpha  occ. eigenvalues --   -0.42671  -0.42462  -0.42398  -0.42175  -0.41871
 Alpha  occ. eigenvalues --   -0.41670  -0.41633  -0.41419  -0.41358  -0.41343
 Alpha  occ. eigenvalues --   -0.41152  -0.41018  -0.40877  -0.40811  -0.40590
 Alpha  occ. eigenvalues --   -0.40456  -0.40242  -0.40211  -0.39976  -0.39821
 Alpha  occ. eigenvalues --   -0.39710  -0.39486  -0.39459  -0.39170  -0.39025
 Alpha  occ. eigenvalues --   -0.38971  -0.38600  -0.38595  -0.38589  -0.38377
 Alpha  occ. eigenvalues --   -0.38243  -0.38199  -0.38107  -0.37735  -0.37713
 Alpha  occ. eigenvalues --   -0.37528  -0.36910  -0.36765  -0.36739  -0.36572
 Alpha  occ. eigenvalues --   -0.36427  -0.36386  -0.36333  -0.36199  -0.36032
 Alpha  occ. eigenvalues --   -0.36017  -0.35814  -0.35616  -0.35416  -0.35358
 Alpha  occ. eigenvalues --   -0.35187  -0.34950  -0.34769  -0.34058  -0.33637
 Alpha  occ. eigenvalues --   -0.33391  -0.33013  -0.33010  -0.32707  -0.32502
 Alpha  occ. eigenvalues --   -0.32009  -0.31949  -0.31707  -0.31641  -0.31527
 Alpha  occ. eigenvalues --   -0.31456  -0.30956  -0.29540  -0.29523  -0.29260
 Alpha  occ. eigenvalues --   -0.29141  -0.28500  -0.28379  -0.27093  -0.26815
 Alpha  occ. eigenvalues --   -0.26233  -0.26230  -0.26042  -0.26018  -0.25686
 Alpha  occ. eigenvalues --   -0.25441  -0.25166  -0.24841  -0.21495  -0.20925
 Alpha  occ. eigenvalues --   -0.18814  -0.18453
 Alpha virt. eigenvalues --   -0.11544  -0.10955  -0.05138  -0.04923  -0.03865
 Alpha virt. eigenvalues --   -0.03852  -0.02097  -0.01949  -0.00177   0.00137
 Alpha virt. eigenvalues --    0.00162   0.00964   0.01339   0.01394   0.01694

 Mulliken charges:
               1
     1  Mg  12.000000
     2  C    6.000000
     3  C    6.000000
     4  C    6.000000
     5  C    6.000000
     6  N    7.000000
     7  C    6.000000
     8  C    6.000000
     9  C    6.000000
    10  C    6.000000
    11  C    6.000000
    12  C    6.000000
    13  C    6.000000
    14  H    1.000000
    15  N    7.000000
    16  C    6.000000
    17  C    6.000000
    18  C    6.000000
    19  C    6.000000
    20  C    6.000000
    21  C    6.000000
    22  O    8.000000
    23  C    6.000000
    24  N    7.000000
    25  C    6.000000
    26  C    6.000000
    27  C    6.000000
    28  C    6.000000
    29  C    6.000000
    30  C    6.000000
    31  C    6.000000
    32  N    7.000000
    33  C    6.000000
    34  C    6.000000
    35  C    6.000000
    36  C    6.000000
    37  C    6.000000
    38  C    6.000000
    39  O    8.000000
    40  C    6.000000
    41  C    6.000000
    42  O    8.000000
    43  O    8.000000
    44  C    6.000000
    45  H    1.000000
    46  H    1.000000
    47  H    1.000000
    48  H    1.000000
    49  H    1.000000
    50  H    1.000000
    51  H    1.000000
    52  H    1.000000
    53  H    1.000000
    54  H    1.000000
    55  H    1.000000
    56  H    1.000000
    57  H    1.000000
    58  H    1.000000
    59  H    1.000000
    60  H    1.000000
    61  H    1.000000
    62  H    1.000000
    63  H    1.000000
    64  H    1.000000
    65  H    1.000000
    66  H    1.000000
    67  H    1.000000
    68  H    1.000000
    69  H    1.000000
    70  H    1.000000
    71  H    1.000000
    72  H    1.000000
    73  H    1.000000
    74  H    1.000000
    75  H    1.000000
    76  H    1.000000
    77  H    1.000000
    78  H    1.000000
    79  H    1.000000
    80  Mg  12.000000
    81  C    6.000000
    82  C    6.000000
    83  C    6.000000
    84  C    6.000000
    85  N    7.000000
    86  C    6.000000
    87  C    6.000000
    88  C    6.000000
    89  C    6.000000
    90  C    6.000000
    91  C    6.000000
    92  C    6.000000
    93  H    1.000000
    94  N    7.000000
    95  C    6.000000
    96  C    6.000000
    97  C    6.000000
    98  C    6.000000
    99  C    6.000000
   100  C    6.000000
   101  O    8.000000
   102  C    6.000000
   103  N    7.000000
   104  C    6.000000
   105  C    6.000000
   106  C    6.000000
   107  C    6.000000
   108  C    6.000000
   109  C    6.000000
   110  C    6.000000
   111  N    7.000000
   112  C    6.000000
   113  C    6.000000
   114  C    6.000000
   115  C    6.000000
   116  C    6.000000
   117  C    6.000000
   118  O    8.000000
   119  C    6.000000
   120  C    6.000000
   121  O    8.000000
   122  O    8.000000
   123  C    6.000000
   124  H    1.000000
   125  H    1.000000
   126  H    1.000000
   127  H    1.000000
   128  H    1.000000
   129  H    1.000000
   130  H    1.000000
   131  H    1.000000
   132  H    1.000000
   133  H    1.000000
   134  H    1.000000
   135  H    1.000000
   136  H    1.000000
   137  H    1.000000
   138  H    1.000000
   139  H    1.000000
   140  H    1.000000
   141  H    1.000000
   142  H    1.000000
   143  H    1.000000
   144  H    1.000000
   145  H    1.000000
   146  H    1.000000
   147  H    1.000000
   148  H    1.000000
   149  H    1.000000
   150  H    1.000000
   151  H    1.000000
   152  H    1.000000
   153  H    1.000000
   154  H    1.000000
   155  H    1.000000
   156  H    1.000000
   157  H    1.000000
   158  H    1.000000
 Sum of Mulliken charges = 624.00000

 Dipole moment (field-independent basis, Debye):
    X=              0.0000    Y=             -0.0000    Z=              0.0000  Tot=              0.0000
 Quadrupole moment (field-independent basis, Debye-Ang):
   XX=              0.0000   YY=             -0.0000   ZZ=              0.0000
   XY=             -0.0000   XZ=              0.0000   YZ=             -0.0000

 Normal termination of Gaussian 16 at Fri Oct 15 04:15:39 2021.
