 Gaussian 16, Revision A.03,
 Gaussian 16:  ES64L-G16RevA.03 25-Dec-2016

 --------------------------------------------------------
 #p PBE1PBE/Def2SVP td=(nstates=5) density=(transition=1)
 --------------------------------------------------------

 --------------------------------
 TDDFT excited states in gaussian
 --------------------------------
 Symbolic Z-matrix:
 Charge =  0 Multiplicity = 1

                         Standard orientation:
 ---------------------------------------------------------------------
 Center     Atomic      Atomic             Coordinates (Angstroms)
 Number     Number       Type             X           Y           Z
 ---------------------------------------------------------------------
      1         12           0      -27.059674    0.159841   -0.251163
      2          6           0      -23.651949   -0.056153    0.701457
      3          6           0      -26.261144   -1.581641   -3.054235
      4          6           0      -30.390925   -0.334009   -0.718351
      5          6           0      -27.748297    1.454084    2.889454
      6          7           0      -25.129458   -0.815428   -0.906665
      7          6           0      -23.840568   -0.712590   -0.454703
      8          6           0      -22.873318   -1.353467   -1.379177
      9          6           0      -23.720144   -1.528448   -2.726378
     10          6           0      -25.106664   -1.317811   -2.221399
     11          6           0      -23.291342   -0.539235   -3.798092
     12          6           0      -22.364241   -2.631002   -0.693343
     13          6           0      -20.794624   -2.807579   -0.541564
     14          1           0      -20.066055   -4.075062   -1.081360
     15          7           0      -28.225991   -0.765186   -1.677551
     16          6           0      -27.678326   -1.359845   -2.822742
     17          6           0      -28.759840   -1.681528   -3.704670
     18          6           0      -30.000913   -1.365779   -3.055313
     19          6           0      -29.563492   -0.724163   -1.786640
     20          6           0      -28.492429   -2.250014   -5.092369
     21          6           0      -31.414194   -1.582315   -3.548270
     22          8           0      -31.472895   -2.002647   -4.740056
     23          6           0      -32.749102   -1.459763   -2.760353
     24          7           0      -28.866223    0.515826    0.918315
     25          6           0      -30.118986    0.253245    0.485250
     26          6           0      -31.212014    0.597435    1.531453
     27          6           0      -30.353634    1.280070    2.651662
     28          6           0      -28.862640    1.015618    2.132145
     29          6           0      -32.253105    1.505874    0.902318
     30          6           0      -30.541365    0.727503    4.031588
     31          6           0      -31.209474    1.682014    4.983672
     32          7           0      -26.013754    0.776667    1.372865
     33          6           0      -26.374569    1.346299    2.600504
     34          6           0      -25.283316    1.805804    3.296273
     35          6           0      -24.180646    1.310680    2.570607
     36          6           0      -24.680485    0.631148    1.462084
     37          6           0      -25.376297    2.747050    4.478542
     38          6           0      -22.694937    1.325389    2.507421
     39          8           0      -21.913829    1.857225    3.233714
     40          6           0      -22.381813    0.346681    1.313118
     41          6           0      -21.231566    0.951215    0.537804
     42          8           0      -20.067156    0.555240    0.590699
     43          8           0      -21.695586    1.999399   -0.293608
     44          6           0      -20.643096    2.533491   -1.157462
     45          1           0      -25.992161   -1.939048   -4.050663
     46          1           0      -31.471799   -0.381441   -0.870370
     47          1           0      -27.895850    1.647863    3.953340
     48          1           0      -22.028873   -0.683538   -1.541565
     49          1           0      -23.546675   -2.534657   -3.106958
     50          1           0      -23.033439    0.441129   -3.399859
     51          1           0      -24.144653   -0.352093   -4.450819
     52          1           0      -22.495172   -0.908627   -4.444398
     53          1           0      -22.754298   -3.474749   -1.262410
     54          1           0      -22.814370   -2.817008    0.281793
     55          1           0      -20.712077   -2.802023    0.545601
     56          1           0      -20.275779   -1.887943   -0.809489
     57          1           0      -27.814845   -3.102408   -5.043088
     58          1           0      -27.995138   -1.457513   -5.651475
     59          1           0      -29.338534   -2.673621   -5.635188
     60          1           0      -32.838224   -0.387121   -2.591293
     61          1           0      -32.646350   -1.999154   -1.818687
     62          1           0      -33.596057   -1.880498   -3.302992
     63          1           0      -31.750643   -0.269378    1.913520
     64          1           0      -30.463667    2.362721    2.595085
     65          1           0      -32.577838    1.040549   -0.028492
     66          1           0      -31.781608    2.466389    0.692005
     67          1           0      -33.112476    1.823539    1.491589
     68          1           0      -29.606897    0.472616    4.531497
     69          1           0      -31.100704   -0.204092    4.115167
     70          1           0      -32.073301    1.175650    5.412602
     71          1           0      -31.624657    2.556791    4.483183
     72          1           0      -30.548947    2.081330    5.754054
     73          1           0      -24.383828    3.184480    4.591672
     74          1           0      -25.653729    2.231223    5.397502
     75          1           0      -26.140693    3.470292    4.195303
     76          1           0      -21.918330   -0.493961    1.830749
     77          1           0      -21.072497    2.956258   -2.065848
     78          1           0      -20.014323    1.738527   -1.555918
     79          1           0      -19.998528    3.252854   -0.651590
     80         12           0       26.216769   -0.768444    0.079173
     81          6           0       26.890247    2.380727   -1.224299
     82          6           0       23.386329    0.647787    1.497825
     83          6           0       25.805554   -3.685962    1.777771
     84          6           0       29.175557   -1.930887   -1.281046
     85          7           0       25.284858    1.298534    0.170615
     86          6           0       25.711998    2.449634   -0.473693
     87          6           0       24.837568    3.723926   -0.149004
     88          6           0       23.922276    3.136730    0.994289
     89          6           0       24.225955    1.594476    0.930417
     90          6           0       24.063324    3.613458    2.442854
     91          6           0       24.114916    4.230282   -1.410752
     92          6           0       24.622283    5.507823   -2.026076
     93          1           0       23.567553    6.458099   -2.620287
     94          7           0       24.720064   -1.533360    1.293013
     95          6           0       23.638913   -0.796548    1.664357
     96          6           0       22.840318   -1.682080    2.534111
     97          6           0       23.540772   -2.884172    2.719928
     98          6           0       24.711218   -2.778966    1.938374
     99          6           0       21.482232   -1.299490    2.963776
    100          6           0       23.213375   -4.072266    3.576189
    101          8           0       23.882002   -5.142984    3.565564
    102          6           0       22.135829   -4.106459    4.514373
    103          7           0       27.256769   -2.536504    0.164124
    104          6           0       26.885869   -3.613506    0.909138
    105          6           0       27.821982   -4.753020    0.809870
    106          6           0       28.887843   -4.233790   -0.220745
    107          6           0       28.451020   -2.828576   -0.400679
    108          6           0       28.510135   -5.402797    2.046303
    109          6           0       29.047319   -5.118716   -1.554128
    110          6           0       28.129912   -4.949932   -2.801532
    111          7           0       27.769496   -0.000273   -0.988178
    112          6           0       28.885387   -0.592253   -1.505947
    113          6           0       29.539747    0.287937   -2.372140
    114          6           0       28.799714    1.520752   -2.200978
    115          6           0       27.723949    1.270359   -1.372592
    116          6           0       30.735892    0.001036   -3.277877
    117          6           0       28.718809    2.856154   -2.719287
    118          8           0       29.311662    3.474326   -3.579945
    119          6           0       27.573003    3.543507   -1.896911
    120          6           0       28.151597    4.500989   -0.933524
    121          8           0       28.141472    4.399116    0.312981
    122          8           0       28.763688    5.564065   -1.499456
    123          6           0       29.181625    6.725049   -0.641702
    124          1           0       22.533043    1.114172    1.993375
    125          1           0       25.749990   -4.630892    2.322609
    126          1           0       30.025185   -2.266495   -1.880173
    127          1           0       25.388301    4.461776    0.435349
    128          1           0       22.898500    3.301599    0.658572
    129          1           0       24.484793    2.819943    3.060399
    130          1           0       23.049542    3.698367    2.831399
    131          1           0       24.634971    4.531592    2.582651
    132          1           0       23.095702    4.441865   -1.085311
    133          1           0       24.061853    3.407623   -2.123855
    134          1           0       25.304846    5.232735   -2.830581
    135          1           0       25.237429    6.131145   -1.376951
    136          1           0       20.829874   -2.052422    2.523367
    137          1           0       21.094989   -0.310902    2.713765
    138          1           0       21.408650   -1.375570    4.048595
    139          1           0       22.183898   -3.152248    5.038380
    140          1           0       22.142449   -5.038338    5.078282
    141          1           0       21.172430   -4.041578    4.008588
    142          1           0       27.153788   -5.483612    0.354897
    143          1           0       29.861111   -4.179597    0.265595
    144          1           0       28.177079   -6.427950    2.208522
    145          1           0       28.262254   -4.865904    2.962572
    146          1           0       29.598758   -5.373157    2.001664
    147          1           0       28.850859   -6.123929   -1.180625
    148          1           0       30.109942   -4.981480   -1.754941
    149          1           0       27.467644   -4.084820   -2.781151
    150          1           0       27.604453   -5.845430   -3.134526
    151          1           0       28.838443   -4.817441   -3.618116
    152          1           0       31.568755    0.676274   -3.078902
    153          1           0       30.426025    0.205288   -4.302621
    154          1           0       31.067566   -1.037608   -3.275885
    155          1           0       27.027286    4.191645   -2.582845
    156          1           0       29.341168    7.434362   -1.453933
    157          1           0       30.071696    6.555954   -0.036556
    158          1           0       28.363784    7.003236    0.023738
 ---------------------------------------------------------------------

 SCF Done:  E(RPBE1PBE) =  -4067.38129822     A.U. after   17 cycles

 Excitation energies and oscillator strengths:

 Excited State   1:      Singlet-A      1.8154 eV  682.96 nm  f=0.0000  <S**2>=0.000
     312 -> 313        0.70711
 This state for optimization and/or second-order correction.
 Total Energy, E(TD-HF/TD-DFT) =  -4067.31458338
 Copying the excited state density for this state as the 1-particle RhoCI density.

 Excited State   2:      Singlet-A      1.8485 eV  670.73 nm  f=0.3418  <S**2>=0.000
     309 -> 315        0.16637
     311 -> 313        0.69420
     311 <- 313       -0.11257

 Excited State   3:      Singlet-A      1.8654 eV  664.64 nm  f=0.3697  <S**2>=0.000
     310 -> 316        0.17020
     312 -> 314        0.69166
     312 <- 314       -0.10906

 Excited State   4:      Singlet-A      2.1729 eV  570.60 nm  f=0.0000  <S**2>=0.000
     311 -> 314        0.70711

 Excited State   5:      Singlet-A      2.2251 eV  557.22 nm  f=0.1303  <S**2>=0.000
     310 -> 314        0.65909
     312 -> 316       -0.23848

 The electronic state is 1-A.
 Alpha  occ. eigenvalues --  -46.92438 -46.90919 -19.26315 -19.24657 -19.21290
 Alpha  occ. eigenvalues --  -19.20124 -19.18544 -19.18491 -19.18486 -19.18153
 Alpha  occ. eigenvalues --  -14.41951 -14.41708 -14.41450 -14.41387 -14.39730
 Alpha  occ. eigenvalues --  -14.39170 -14.38753 -14.38041 -10.37444 -10.35510
 Alpha  occ. eigenvalues --  -10.32858 -10.32703 -10.31572 -10.31337 -10.29709
 Alpha  occ. eigenvalues --  -10.29204 -10.28934 -10.28927 -10.28722 -10.28564
 Alpha  occ. eigenvalues --  -10.28559 -10.28325 -10.28307 -10.28306 -10.28236
 Alpha  occ. eigenvalues --  -10.28126 -10.27773 -10.27664 -10.26816 -10.26675
 Alpha  occ. eigenvalues --  -10.26365 -10.26354 -10.26268 -10.26210 -10.26207
 Alpha  occ. eigenvalues --  -10.26152 -10.26054 -10.26041 -10.25992 -10.25961
 Alpha  occ. eigenvalues --  -10.25950 -10.25940 -10.25842 -10.25617 -10.25458
 Alpha  occ. eigenvalues --  -10.25438 -10.25325 -10.25294 -10.25233 -10.25091
 Alpha  occ. eigenvalues --  -10.25064 -10.24937 -10.24900 -10.24816 -10.24695
 Alpha  occ. eigenvalues --  -10.24666 -10.24648 -10.24462 -10.24373 -10.24335
 Alpha  occ. eigenvalues --  -10.24297 -10.24248 -10.24082 -10.23982 -10.23793
 Alpha  occ. eigenvalues --  -10.23755 -10.23589 -10.23479 -10.23443 -10.23399
 Alpha  occ. eigenvalues --  -10.23140 -10.22926 -10.22884 -10.22828 -10.22642
 Alpha  occ. eigenvalues --  -10.22397  -3.14580  -3.13211  -1.87401  -1.86959
 Alpha  occ. eigenvalues --   -1.86808  -1.86064  -1.85589  -1.85439  -1.10370
 Alpha  occ. eigenvalues --   -1.09855  -1.06881  -1.04307  -1.02828  -1.02587
 Alpha  occ. eigenvalues --   -1.02336  -0.99905  -0.99858  -0.99511  -0.98976
 Alpha  occ. eigenvalues --   -0.98745  -0.98020  -0.97846  -0.97431  -0.96856
 Alpha  occ. eigenvalues --   -0.87721  -0.87467  -0.84224  -0.83661  -0.83390
 Alpha  occ. eigenvalues --   -0.83253  -0.82714  -0.82594  -0.82218  -0.81818
 Alpha  occ. eigenvalues --   -0.81442  -0.81309  -0.80441  -0.80264  -0.79127
 Alpha  occ. eigenvalues --   -0.78642  -0.78609  -0.77919  -0.76963  -0.76958
 Alpha  occ. eigenvalues --   -0.76692  -0.76125  -0.75283  -0.75043  -0.74859
 Alpha  occ. eigenvalues --   -0.74857  -0.72866  -0.72170  -0.71810  -0.71777
 Alpha  occ. eigenvalues --   -0.71213  -0.71121  -0.70828  -0.70494  -0.69895
 Alpha  occ. eigenvalues --   -0.69631  -0.68016  -0.67539  -0.66700  -0.65759
 Alpha  occ. eigenvalues --   -0.64475  -0.63808  -0.63404  -0.63107  -0.62420
 Alpha  occ. eigenvalues --   -0.62150  -0.61709  -0.61486  -0.60722  -0.60182
 Alpha  occ. eigenvalues --   -0.59970  -0.59658  -0.59529  -0.59482  -0.59195
 Alpha  occ. eigenvalues --   -0.58892  -0.57712  -0.56056  -0.55105  -0.54656
 Alpha  occ. eigenvalues --   -0.54476  -0.54238  -0.54159  -0.53701  -0.53671
 Alpha  occ. eigenvalues --   -0.53246  -0.52745  -0.52232  -0.51820  -0.51410
 Alpha  occ. eigenvalues --   -0.50860  -0.50754  -0.50368  -0.50239  -0.50098
 Alpha  occ. eigenvalues --   -0.49460  -0.49447  -0.49008  -0.48905  -0.48479
 Alpha  occ. eigenvalues --   -0.48381  -0.48256  -0.47838  -0.47814  -0.47419
 Alpha  occ. eigenvalues --   -0.47243  -0.47082  -0.46999  -0.46865  -0.46572
 Alpha  occ. eigenvalues --   -0.46542  -0.46490  -0.46228  -0.45760  -0.45644
 Alpha  occ. eigenvalues --   -0.45550  -0.45390  -0.45176  -0.44942  -0.44862
 Alpha  occ. eigenvalues --   -0.44777  -0.44701  -0.44526  -0.44328  -0.44303
 Alpha  occ. eigenvalues --   -0.44184  -0.43981  -0.43613  -0.43585  -0.43425
 Alpha  occ. eigenvalues --   -0.43327  -0.43027  -0.43024  -0.42793  -0.42677
 Alpha  occ. eigenvalues --   -0.42585  -0.42447  -0.42399  -0.41914  -0.41876
 Alpha  occ. eigenvalues --   -0.41657  -0.41414  -0.41353  -0.41197  -0.41163
 Alpha  occ. eigenvalues --   -0.40971  -0.40848  -0.40760  -0.40678  -0.40505
 Alpha  occ. eigenvalues --   -0.40411  -0.40236  -0.40158  -0.40108  -0.40056
 Alpha  occ. eigenvalues --   -0.39971  -0.39903  -0.39706  -0.39568  -0.39026
 Alpha  occ. eigenvalues --   -0.38972  -0.38767  -0.38703  -0.38558  -0.38525
 Alpha  occ. eigenvalues --   -0.38515  -0.38165  -0.38163  -0.37747  -0.37649
 Alpha  occ. eigenvalues --   -0.37595  -0.37346  -0.37332  -0.37290  -0.37242
 Alpha  occ. eigenvalues --   -0.36929  -0.36591  -0.36430  -0.36430  -0.36236
 Alpha  occ. eigenvalues --   -0.36234  -0.36038  -0.35979  -0.35619  -0.35156
 Alpha  occ. eigenvalues --   -0.35079  -0.34787  -0.34584  -0.34075  -0.33804
 Alpha  occ. eigenvalues --   -0.33787  -0.33224  -0.33206  -0.32817  -0.32795
 Alpha  occ. eigenvalues --   -0.32415  -0.32227  -0.31896  -0.31572  -0.31480
 Alpha  occ. eigenvalues --   -0.31456  -0.30502  -0.30327  -0.29880  -0.29513
 Alpha  occ. eigenvalues --   -0.28879  -0.28764  -0.27548  -0.27447  -0.26645
 Alpha  occ. eigenvalues --   -0.26187  -0.25695  -0.25617  -0.25512  -0.25188
 Alpha  occ. eigenvalues --   -0.25123  -0.25001  -0.24872  -0.21403  -0.20594
 Alpha  occ. eigenvalues --   -0.19300  -0.18689
 Alpha virt. eigenvalues --   -0.11769  -0.11066  -0.05392  -0.04862  -0.04007
 Alpha virt. eigenvalues --   -0.03496  -0.02139  -0.02013  -0.00979  -0.00495
 Alpha virt. eigenvalues --    0.00633   0.00694   0.00857   0.01369   0.01456

 Mulliken charges:
               1
     1  Mg  12.000000
     2  C    6.000000
     3  C    6.000000
     4  C    6.000000
     5  C    6.000000
     6  N    7.000000
     7  C    6.000000
     8  C    6.000000
     9  C    6.000000
    10  C    6.000000
    11  C    6.000000
    12  C    6.000000
    13  C    6.000000
    14  H    1.000000
    15  N    7.000000
    16  C    6.000000
    17  C    6.000000
    18  C    6.000000
    19  C    6.000000
    20  C    6.000000
    21  C    6.000000
    22  O    8.000000
    23  C    6.000000
    24  N    7.000000
    25  C    6.000000
    26  C    6.000000
    27  C    6.000000
    28  C    6.000000
    29  C    6.000000
    30  C    6.000000
    31  C    6.000000
    32  N    7.000000
    33  C    6.000000
    34  C    6.000000
    35  C    6.000000
    36  C    6.000000
    37  C    6.000000
    38  C    6.000000
    39  O    8.000000
    40  C    6.000000
    41  C    6.000000
    42  O    8.000000
    43  O    8.000000
    44  C    6.000000
    45  H    1.000000
    46  H    1.000000
    47  H    1.000000
    48  H    1.000000
    49  H    1.000000
    50  H    1.000000
    51  H    1.000000
    52  H    1.000000
    53  H    1.000000
    54  H    1.000000
    55  H    1.000000
    56  H    1.000000
    57  H    1.000000
    58  H    1.000000
    59  H    1.000000
    60  H    1.000000
    61  H    1.000000
    62  H    1.000000
    63  H    1.000000
    64  H    1.000000
    65  H    1.000000
    66  H    1.000000
    67  H    1.000000
    68  H    1.000000
    69  H    1.000000
    70  H    1.000000
    71  H    1.000000
    72  H    1.000000
    73  H    1.000000
    74  H    1.000000
    75  H    1.000000
    76  H    1.000000
    77  H    1.000000
    78  H    1.000000
    79  H    1.000000
    80  Mg  12.000000
    81  C    6.000000
    82  C    6.000000
    83  C    6.000000
    84  C    6.000000
    85  N    7.000000
    86  C    6.000000
    87  C    6.000000
    88  C    6.000000
    89  C    6.000000
    90  C    6.000000
    91  C    6.000000
    92  C    6.000000
    93  H    1.000000
    94  N    7.000000
    95  C    6.000000
    96  C    6.000000
    97  C    6.000000
    98  C    6.000000
    99  C    6.000000
   100  C    6.000000
   101  O    8.000000
   102  C    6.000000
   103  N    7.000000
   104  C    6.000000
   105  C    6.000000
   106  C    6.000000
   107  C    6.000000
   108  C    6.000000
   109  C    6.000000
   110  C    6.000000
   111  N    7.000000
   112  C    6.000000
   113  C    6.000000
   114  C    6.000000
   115  C    6.000000
   116  C    6.000000
   117  C    6.000000
   118  O    8.000000
   119  C    6.000000
   120  C    6.000000
   121  O    8.000000
   122  O    8.000000
   123  C    6.000000
   124  H    1.000000
   125  H    1.000000
   126  H    1.000000
   127  H    1.000000
   128  H    1.000000
   129  H    1.000000
   130  H    1.000000
   131  H    1.000000
   132  H    1.000000
   133  H    1.000000
   134  H    1.000000
   135  H    1.000000
   136  H    1.000000
   137  H    1.000000
   138  H    1.000000
   139  H    1.000000
   140  H    1.000000
   141  H    1.000000
   142  H    1.000000
   143  H    1.000000
   144  H    1.000000
   145  H    1.000000
   146  H    1.000000
   147  H    1.000000
   148  H    1.000000
   149  H    1.000000
   150  H    1.000000
   151  H    1.000000
   152  H    1.000000
   153  H    1.000000
   154  H    1.000000
   155  H    1.000000
   156  H    1.000000
   157  H    1.000000
   158  H    1.000000
 Sum of Mulliken charges = 624.00000

 Dipole moment (field-independent basis, Debye):
    X=             -0.0000    Y=             -0.0000    Z=             -0.0000  Tot=              0.0000
 Quadrupole moment (field-independent basis, Debye-Ang):
   XX=              0.0000   YY=             -0.0000   ZZ=              0.0000
   XY=              0.0000   XZ=              0.0000   YZ=              0.0000

 Normal termination of Gaussian 16 at Thu Oct 14 22:02:59 2021.
