 Gaussian 16, Revision A.03,
 Gaussian 16:  ES64L-G16RevA.03 25-Dec-2016

 --------------------------------------------------------
 #p PBE1PBE/Def2SVP td=(nstates=5) density=(transition=1)
 --------------------------------------------------------

 --------------------------------
 TDDFT excited states in gaussian
 --------------------------------
 Symbolic Z-matrix:
 Charge =  0 Multiplicity = 1

                         Standard orientation:
 ---------------------------------------------------------------------
 Center     Atomic      Atomic             Coordinates (Angstroms)
 Number     Number       Type             X           Y           Z
 ---------------------------------------------------------------------
      1         12           0      -21.728826    0.216016   -0.764044
      2          6           0      -18.329629   -0.837656   -0.652788
      3          6           0      -22.716826   -3.062987   -0.832925
      4          6           0      -24.944693    1.216102    0.187314
      5          6           0      -20.662634    3.498170   -0.101348
      6          7           0      -20.518215   -1.760179   -0.479518
      7          6           0      -19.206324   -1.949751   -0.695743
      8          6           0      -18.968389   -3.390373   -1.109940
      9          6           0      -20.379960   -4.152204   -1.106235
     10          6           0      -21.283126   -2.829229   -0.925686
     11          6           0      -20.569395   -4.855661   -2.468968
     12          6           0      -17.955993   -4.057392   -0.192756
     13          6           0      -18.026102   -3.691052    1.308800
     14          1           0      -18.588261   -4.774573    2.269133
     15          7           0      -23.638792   -0.788749   -0.453680
     16          6           0      -23.766514   -2.158756   -0.527559
     17          6           0      -25.168815   -2.422280   -0.443406
     18          6           0      -25.877888   -1.224252   -0.048967
     19          6           0      -24.845710   -0.159809   -0.128631
     20          6           0      -25.739047   -3.820827   -0.494488
     21          6           0      -27.309837   -1.109786    0.476213
     22          8           0      -27.981732   -2.110800    0.634448
     23          6           0      -27.927269    0.135961    0.820128
     24          7           0      -22.662081    2.059133    0.041506
     25          6           0      -23.968545    2.222685    0.188489
     26          6           0      -24.353201    3.618169    0.652372
     27          6           0      -22.904873    4.222049    0.903934
     28          6           0      -22.013902    3.263767    0.199264
     29          6           0      -25.208601    4.448527   -0.424225
     30          6           0      -22.640916    4.408910    2.468741
     31          6           0      -22.532036    5.783608    3.065286
     32          7           0      -19.966211    1.178677   -0.687319
     33          6           0      -19.685256    2.551624   -0.533779
     34          6           0      -18.242241    2.808594   -0.697212
     35          6           0      -17.734965    1.511103   -0.764625
     36          6           0      -18.765289    0.515528   -0.634052
     37          6           0      -17.482640    4.168729   -0.873289
     38          6           0      -16.468059    0.781448   -0.878343
     39          8           0      -15.286355    1.144884   -0.998322
     40          6           0      -16.783907   -0.749934   -0.830198
     41          6           0      -16.056786   -1.116548    0.417326
     42          8           0      -16.256410   -0.639479    1.504961
     43          8           0      -15.064047   -1.955772    0.136446
     44          6           0      -14.243530   -2.530701    1.259006
     45          1           0      -23.033881   -4.057630   -1.152798
     46          1           0      -25.903307    1.678672    0.430538
     47          1           0      -20.437445    4.517186    0.221780
     48          1           0      -18.538094   -3.200857   -2.093345
     49          1           0      -20.475355   -4.852722   -0.276184
     50          1           0      -20.679010   -5.924391   -2.285937
     51          1           0      -19.726458   -4.752677   -3.152794
     52          1           0      -21.501957   -4.465961   -2.876205
     53          1           0      -16.947175   -3.817722   -0.528941
     54          1           0      -18.084908   -5.140072   -0.204255
     55          1           0      -18.703354   -2.889878    1.604365
     56          1           0      -16.998210   -3.443461    1.574071
     57          1           0      -24.955691   -4.576191   -0.561815
     58          1           0      -26.473627   -3.846975   -1.300084
     59          1           0      -26.355998   -3.949984    0.394086
     60          1           0      -27.473060    0.668501    1.655986
     61          1           0      -28.968274   -0.041188    1.089686
     62          1           0      -27.794176    0.726289   -0.087106
     63          1           0      -24.844309    3.643428    1.624810
     64          1           0      -23.034896    5.237488    0.529234
     65          1           0      -25.419341    3.815781   -1.286882
     66          1           0      -24.582016    5.273264   -0.764316
     67          1           0      -26.126195    4.908842   -0.054615
     68          1           0      -21.662805    4.020633    2.752949
     69          1           0      -23.396294    3.889548    3.056864
     70          1           0      -21.507201    6.102682    3.255206
     71          1           0      -23.055906    5.611258    4.006053
     72          1           0      -23.165553    6.537893    2.598290
     73          1           0      -17.431878    4.646918    0.104521
     74          1           0      -18.019543    4.738119   -1.632169
     75          1           0      -16.453985    3.951740   -1.160619
     76          1           0      -16.396625   -1.164341   -1.761718
     77          1           0      -13.427039   -1.875908    1.564304
     78          1           0      -13.809997   -3.491328    0.977933
     79          1           0      -14.956359   -2.688175    2.068417
     80         12           0       20.875875    0.704680   -0.442550
     81          6           0       21.512953   -2.757272    0.232305
     82          6           0       17.714158    0.243891    1.077414
     83          6           0       20.534452    4.041547   -0.347488
     84          6           0       24.209981    1.065990   -1.258989
     85          7           0       19.709664   -1.062075    0.546525
     86          6           0       20.247835   -2.309837    0.693629
     87          6           0       19.381538   -3.131018    1.635457
     88          6           0       18.083913   -2.219295    1.617694
     89          6           0       18.464626   -0.901712    1.058186
     90          6           0       16.831869   -2.768635    0.854898
     91          6           0       20.133606   -3.373195    2.983375
     92          6           0       20.130651   -4.814377    3.640463
     93          1           0       19.499655   -5.018002    5.029618
     94          7           0       19.345481    1.940771    0.059743
     95          6           0       18.107269    1.586605    0.657552
     96          6           0       17.273009    2.761227    0.831992
     97          6           0       18.119647    3.867971    0.416200
     98          6           0       19.384395    3.281798    0.013770
     99          6           0       15.947774    2.683941    1.467559
    100          6           0       17.641020    5.330246    0.420729
    101          8           0       16.492264    5.541649    0.908105
    102          6           0       18.440441    6.536710   -0.115610
    103          7           0       22.237329    2.422477   -0.496977
    104          6           0       21.830744    3.672129   -0.612672
    105          6           0       23.027298    4.543250   -0.820622
    106          6           0       24.166000    3.546972   -1.166901
    107          6           0       23.529274    2.222807   -0.876129
    108          6           0       22.961154    5.749380   -1.852204
    109          6           0       25.543648    3.763036   -0.351835
    110          6           0       26.812562    4.169996   -1.140309
    111          7           0       22.466551   -0.544662   -0.701829
    112          6           0       23.741115   -0.273779   -1.030002
    113          6           0       24.527350   -1.451518   -1.081446
    114          6           0       23.665788   -2.455652   -0.633691
    115          6           0       22.411294   -1.851670   -0.365901
    116          6           0       25.928325   -1.664628   -1.493883
    117          6           0       23.662629   -3.854013   -0.332617
    118          8           0       24.585364   -4.636415   -0.376812
    119          6           0       22.165469   -4.112666    0.329584
    120          6           0       21.437611   -5.113924   -0.459061
    121          8           0       21.391306   -5.161458   -1.694825
    122          8           0       20.809956   -5.946549    0.442773
    123          6           0       20.018089   -7.037573   -0.122839
    124          1           0       16.725371    0.165582    1.531953
    125          1           0       20.516720    5.127600   -0.238295
    126          1           0       25.197039    1.088645   -1.725922
    127          1           0       19.111103   -4.035218    1.089518
    128          1           0       17.983244   -2.086671    2.695542
    129          1           0       16.560373   -2.027616    0.101684
    130          1           0       15.951249   -2.905729    1.482055
    131          1           0       16.991443   -3.684434    0.284914
    132          1           0       19.583532   -2.677821    3.616998
    133          1           0       21.172066   -3.044318    3.015557
    134          1           0       21.179276   -5.110861    3.656210
    135          1           0       19.733336   -5.517102    2.908687
    136          1           0       16.093707    2.164976    2.415204
    137          1           0       15.289331    2.046492    0.877829
    138          1           0       15.370892    3.604594    1.559171
    139          1           0       19.258015    6.732437    0.578392
    140          1           0       17.673750    7.260399   -0.390346
    141          1           0       18.843475    6.156100   -1.054725
    142          1           0       23.217774    5.039175    0.130349
    143          1           0       24.193658    3.613281   -2.254605
    144          1           0       23.669982    6.478253   -1.458459
    145          1           0       21.935337    6.115665   -1.889506
    146          1           0       23.312732    5.357497   -2.806785
    147          1           0       25.689140    2.810826    0.158024
    148          1           0       25.332649    4.451557    0.466302
    149          1           0       27.676505    3.552741   -0.897572
    150          1           0       27.032814    5.216105   -0.925955
    151          1           0       26.675483    4.168782   -2.221816
    152          1           0       26.126257   -2.710489   -1.726468
    153          1           0       26.400945   -1.337851   -0.567446
    154          1           0       26.207402   -0.853183   -2.165905
    155          1           0       22.234720   -4.314857    1.397827
    156          1           0       20.588753   -7.615978   -0.849755
    157          1           0       19.111451   -6.636971   -0.578687
    158          1           0       19.738022   -7.717430    0.681844
 ---------------------------------------------------------------------

 SCF Done:  E(RPBE1PBE) =  -4067.32009220     A.U. after   16 cycles

 Excitation energies and oscillator strengths:

 Excited State   1:      Singlet-A      1.8532 eV  669.04 nm  f=0.3632  <S**2>=0.000
     309 -> 315       -0.19361
     311 -> 314        0.68567
 This state for optimization and/or second-order correction.
 Total Energy, E(TD-HF/TD-DFT) =  -4067.25198952
 Copying the excited state density for this state as the 1-particle RhoCI density.

 Excited State   2:      Singlet-A      1.8633 eV  665.40 nm  f=0.3623  <S**2>=0.000
     310 -> 316       -0.17995
     312 -> 313        0.69091
     312 <- 313       -0.10892

 Excited State   3:      Singlet-A      1.9963 eV  621.06 nm  f=0.0000  <S**2>=0.000
     311 -> 313        0.70711

 Excited State   4:      Singlet-A      2.0003 eV  619.84 nm  f=0.0000  <S**2>=0.000
     312 -> 314        0.70710

 Excited State   5:      Singlet-A      2.2158 eV  559.54 nm  f=0.0718  <S**2>=0.000
     309 -> 314        0.63258
     311 -> 315        0.30037

 The electronic state is 1-A.
 Alpha  occ. eigenvalues --  -46.93585 -46.92279 -19.26848 -19.25705 -19.20709
 Alpha  occ. eigenvalues --  -19.19955 -19.19133 -19.19077 -19.18411 -19.18259
 Alpha  occ. eigenvalues --  -14.41928 -14.41462 -14.41377 -14.40955 -14.39846
 Alpha  occ. eigenvalues --  -14.39591 -14.39436 -14.39197 -10.37017 -10.35736
 Alpha  occ. eigenvalues --  -10.32572 -10.32463 -10.32187 -10.31411 -10.29773
 Alpha  occ. eigenvalues --  -10.29670 -10.29609 -10.29144 -10.28917 -10.28800
 Alpha  occ. eigenvalues --  -10.28553 -10.28507 -10.28482 -10.28357 -10.28268
 Alpha  occ. eigenvalues --  -10.28103 -10.28035 -10.28021 -10.27712 -10.27473
 Alpha  occ. eigenvalues --  -10.27424 -10.26745 -10.26715 -10.26574 -10.26542
 Alpha  occ. eigenvalues --  -10.26469 -10.26311 -10.26284 -10.26036 -10.26019
 Alpha  occ. eigenvalues --  -10.25889 -10.25782 -10.25760 -10.25685 -10.25661
 Alpha  occ. eigenvalues --  -10.25592 -10.25557 -10.25431 -10.25412 -10.25351
 Alpha  occ. eigenvalues --  -10.25181 -10.25090 -10.25089 -10.25062 -10.24900
 Alpha  occ. eigenvalues --  -10.24891 -10.24791 -10.24727 -10.24564 -10.24439
 Alpha  occ. eigenvalues --  -10.24315 -10.24287 -10.24169 -10.24146 -10.24093
 Alpha  occ. eigenvalues --  -10.23993 -10.23887 -10.23687 -10.23657 -10.23560
 Alpha  occ. eigenvalues --  -10.23507 -10.22971 -10.22926 -10.22515 -10.22470
 Alpha  occ. eigenvalues --  -10.22276  -3.15479  -3.14412  -1.88280  -1.87883
 Alpha  occ. eigenvalues --   -1.87678  -1.87242  -1.86774  -1.86653  -1.11827
 Alpha  occ. eigenvalues --   -1.11231  -1.05566  -1.04931  -1.03575  -1.02895
 Alpha  occ. eigenvalues --   -1.02519  -1.01973  -1.00103  -0.99393  -0.99217
 Alpha  occ. eigenvalues --   -0.98324  -0.98278  -0.97087  -0.97021  -0.96226
 Alpha  occ. eigenvalues --   -0.87473  -0.86308  -0.83660  -0.83253  -0.83054
 Alpha  occ. eigenvalues --   -0.82601  -0.82563  -0.82404  -0.82278  -0.81806
 Alpha  occ. eigenvalues --   -0.81406  -0.80482  -0.80330  -0.79614  -0.78929
 Alpha  occ. eigenvalues --   -0.78914  -0.78337  -0.78098  -0.77084  -0.76968
 Alpha  occ. eigenvalues --   -0.76837  -0.76200  -0.75686  -0.75433  -0.74781
 Alpha  occ. eigenvalues --   -0.74605  -0.72570  -0.72242  -0.71946  -0.71640
 Alpha  occ. eigenvalues --   -0.71181  -0.70697  -0.70568  -0.70562  -0.69698
 Alpha  occ. eigenvalues --   -0.69304  -0.67657  -0.67306  -0.66653  -0.66186
 Alpha  occ. eigenvalues --   -0.64155  -0.63830  -0.63231  -0.62931  -0.62839
 Alpha  occ. eigenvalues --   -0.62538  -0.61205  -0.61141  -0.60578  -0.60140
 Alpha  occ. eigenvalues --   -0.60012  -0.59640  -0.59624  -0.59340  -0.59280
 Alpha  occ. eigenvalues --   -0.58572  -0.57487  -0.57009  -0.54851  -0.54707
 Alpha  occ. eigenvalues --   -0.54544  -0.54042  -0.53856  -0.53597  -0.53459
 Alpha  occ. eigenvalues --   -0.53083  -0.52909  -0.52403  -0.52211  -0.51839
 Alpha  occ. eigenvalues --   -0.50763  -0.50750  -0.50411  -0.50364  -0.50146
 Alpha  occ. eigenvalues --   -0.49601  -0.49483  -0.49427  -0.49113  -0.49105
 Alpha  occ. eigenvalues --   -0.48462  -0.48305  -0.48086  -0.47958  -0.47695
 Alpha  occ. eigenvalues --   -0.47550  -0.47207  -0.47086  -0.46931  -0.46667
 Alpha  occ. eigenvalues --   -0.46595  -0.46416  -0.46307  -0.46083  -0.45917
 Alpha  occ. eigenvalues --   -0.45864  -0.45217  -0.45157  -0.44950  -0.44810
 Alpha  occ. eigenvalues --   -0.44568  -0.44510  -0.44365  -0.44284  -0.44215
 Alpha  occ. eigenvalues --   -0.44038  -0.44022  -0.43811  -0.43527  -0.43470
 Alpha  occ. eigenvalues --   -0.43146  -0.43126  -0.42923  -0.42550  -0.42451
 Alpha  occ. eigenvalues --   -0.42422  -0.42346  -0.42316  -0.42148  -0.41964
 Alpha  occ. eigenvalues --   -0.41742  -0.41639  -0.41613  -0.41362  -0.41333
 Alpha  occ. eigenvalues --   -0.41125  -0.41038  -0.40779  -0.40679  -0.40533
 Alpha  occ. eigenvalues --   -0.40362  -0.40291  -0.40091  -0.40044  -0.39929
 Alpha  occ. eigenvalues --   -0.39816  -0.39776  -0.39569  -0.39303  -0.39142
 Alpha  occ. eigenvalues --   -0.38765  -0.38575  -0.38559  -0.38423  -0.38354
 Alpha  occ. eigenvalues --   -0.38343  -0.38087  -0.37989  -0.37912  -0.37756
 Alpha  occ. eigenvalues --   -0.37751  -0.37636  -0.37260  -0.37216  -0.36883
 Alpha  occ. eigenvalues --   -0.36417  -0.36344  -0.36219  -0.36124  -0.36116
 Alpha  occ. eigenvalues --   -0.35906  -0.35720  -0.35691  -0.35271  -0.35172
 Alpha  occ. eigenvalues --   -0.35012  -0.34965  -0.34735  -0.33927  -0.33735
 Alpha  occ. eigenvalues --   -0.33656  -0.33213  -0.32934  -0.32633  -0.32574
 Alpha  occ. eigenvalues --   -0.32411  -0.32102  -0.31777  -0.31511  -0.31419
 Alpha  occ. eigenvalues --   -0.30853  -0.30716  -0.29912  -0.29282  -0.29264
 Alpha  occ. eigenvalues --   -0.29132  -0.28836  -0.28628  -0.27021  -0.26983
 Alpha  occ. eigenvalues --   -0.26106  -0.26023  -0.25704  -0.25535  -0.25374
 Alpha  occ. eigenvalues --   -0.25190  -0.24893  -0.24491  -0.21231  -0.21138
 Alpha  occ. eigenvalues --   -0.18991  -0.18936
 Alpha virt. eigenvalues --   -0.11342  -0.11272  -0.05934  -0.05212  -0.03972
 Alpha virt. eigenvalues --   -0.03918  -0.02072  -0.02032  -0.01672  -0.00541
 Alpha virt. eigenvalues --   -0.00180   0.00409   0.00904   0.00957   0.01841

 Mulliken charges:
               1
     1  Mg  11.994595
     2  C    5.988661
     3  C    6.023769
     4  C    6.012871
     5  C    5.981642
     6  N    6.993775
     7  C    6.026735
     8  C    5.998987
     9  C    6.013573
    10  C    5.959811
    11  C    6.000844
    12  C    5.997318
    13  C    5.992903
    14  H    1.012904
    15  N    7.008150
    16  C    5.959225
    17  C    5.982020
    18  C    5.989598
    19  C    5.965014
    20  C    6.002973
    21  C    5.988557
    22  O    7.982912
    23  C    6.003668
    24  N    6.996447
    25  C    5.973884
    26  C    6.012142
    27  C    5.985796
    28  C    6.036838
    29  C    6.002573
    30  C    5.999301
    31  C    5.998390
    32  N    6.996770
    33  C    6.039557
    34  C    6.026316
    35  C    6.001614
    36  C    6.029694
    37  C    6.004215
    38  C    6.016134
    39  O    8.031862
    40  C    5.999867
    41  C    6.006360
    42  O    8.002466
    43  O    8.001336
    44  C    5.998395
    45  H    0.993521
    46  H    0.990469
    47  H    1.008831
    48  H    0.994490
    49  H    0.994581
    50  H    0.995914
    51  H    0.989949
    52  H    1.003954
    53  H    0.995143
    54  H    1.007256
    55  H    0.999953
    56  H    0.996179
    57  H    0.982262
    58  H    0.982034
    59  H    0.984542
    60  H    0.989485
    61  H    0.988419
    62  H    0.993620
    63  H    0.998426
    64  H    1.004347
    65  H    1.003253
    66  H    0.988500
    67  H    0.998614
    68  H    0.996547
    69  H    1.012489
    70  H    0.997581
    71  H    1.004809
    72  H    1.004380
    73  H    1.015453
    74  H    1.013909
    75  H    1.009765
    76  H    1.009338
    77  H    1.001788
    78  H    1.005571
    79  H    1.004164
    80  Mg  12.000022
    81  C    5.999080
    82  C    6.001093
    83  C    6.001048
    84  C    5.998746
    85  N    7.000291
    86  C    6.001734
    87  C    5.999479
    88  C    6.000539
    89  C    5.998081
    90  C    6.000171
    91  C    5.999519
    92  C    5.999957
    93  H    1.000656
    94  N    7.000231
    95  C    5.996950
    96  C    5.998673
    97  C    5.999219
    98  C    5.997823
    99  C    6.000249
   100  C    5.999164
   101  O    7.998404
   102  C    5.999882
   103  N    7.000000
   104  C    5.997899
   105  C    6.000693
   106  C    5.999296
   107  C    6.002270
   108  C    6.000071
   109  C    5.999879
   110  C    5.999913
   111  N    6.999948
   112  C    6.002318
   113  C    6.001931
   114  C    6.000249
   115  C    6.001932
   116  C    6.000128
   117  C    6.001089
   118  O    8.001843
   119  C    6.000268
   120  C    6.000358
   121  O    8.000276
   122  O    8.000176
   123  C    5.999841
   124  H    0.999365
   125  H    0.999513
   126  H    1.000500
   127  H    0.999981
   128  H    0.999856
   129  H    1.000281
   130  H    0.999834
   131  H    0.999185
   132  H    1.000781
   133  H    0.999688
   134  H    0.999814
   135  H    0.999993
   136  H    0.998714
   137  H    0.998591
   138  H    0.999020
   139  H    0.999327
   140  H    0.999163
   141  H    0.999502
   142  H    0.999943
   143  H    1.000164
   144  H    0.999686
   145  H    1.000464
   146  H    0.999563
   147  H    0.999633
   148  H    1.000626
   149  H    0.999901
   150  H    1.000405
   151  H    1.000093
   152  H    1.000888
   153  H    1.001286
   154  H    1.001270
   155  H    1.000663
   156  H    1.000165
   157  H    1.000388
   158  H    1.000363
 Sum of Mulliken charges = 624.00000

 Dipole moment (field-independent basis, Debye):
    X=              9.3158    Y=              4.0710    Z=             -0.1314  Tot=             10.1674
 Quadrupole moment (field-independent basis, Debye-Ang):
   XX=           -356.7130   YY=              1.6629   ZZ=              0.7733
   XY=           -107.9988   XZ=             -4.5801   YZ=             -3.1514

 Normal termination of Gaussian 16 at Wed Oct 13 23:22:08 2021.
