 Gaussian 16, Revision A.03,
 Gaussian 16:  ES64L-G16RevA.03 25-Dec-2016

 --------------------------------------------------------
 #p PBE1PBE/Def2SVP td=(nstates=5) density=(transition=1)
 --------------------------------------------------------

 --------------------------------
 TDDFT excited states in gaussian
 --------------------------------
 Symbolic Z-matrix:
 Charge =  0 Multiplicity = 1

                         Standard orientation:
 ---------------------------------------------------------------------
 Center     Atomic      Atomic             Coordinates (Angstroms)
 Number     Number       Type             X           Y           Z
 ---------------------------------------------------------------------
      1         12           0      -30.277844    0.229818    0.229413
      2          6           0      -27.606437   -1.818889   -0.857227
      3          6           0      -30.334990    1.515731   -2.789916
      4          6           0      -31.956048    2.729794    1.595347
      5          6           0      -29.462713   -0.872566    3.507932
      6          7           0      -29.141971   -0.317360   -1.652571
      7          6           0      -28.220398   -1.174660   -1.901632
      8          6           0      -27.996908   -1.316365   -3.421324
      9          6           0      -28.527456    0.093555   -3.997669
     10          6           0      -29.346541    0.530058   -2.712468
     11          6           0      -27.425783    1.145669   -4.416665
     12          6           0      -28.896427   -2.517679   -4.023485
     13          6           0      -28.383411   -3.361825   -5.234832
     14          1           0      -27.416441   -2.626367   -6.234294
     15          7           0      -31.222666    1.792731   -0.530550
     16          6           0      -31.158732    2.119652   -1.876724
     17          6           0      -32.005354    3.343293   -2.105164
     18          6           0      -32.515552    3.673737   -0.780637
     19          6           0      -31.941322    2.770052    0.219891
     20          6           0      -32.122612    3.973445   -3.480146
     21          6           0      -33.492429    4.774698   -0.430857
     22          8           0      -33.865579    5.045726    0.718972
     23          6           0      -34.082852    5.570565   -1.523321
     24          7           0      -30.756333    0.800746    2.335888
     25          6           0      -31.429444    1.912863    2.569353
     26          6           0      -31.918226    1.947200    4.085389
     27          6           0      -31.032351    0.729947    4.694164
     28          6           0      -30.402641    0.155758    3.427894
     29          6           0      -31.732467    3.336678    4.779963
     30          6           0      -31.770047   -0.373034    5.521984
     31          6           0      -31.478731   -0.429251    6.999620
     32          7           0      -28.980216   -1.243386    1.187210
     33          6           0      -28.800450   -1.534919    2.524776
     34          6           0      -27.741934   -2.442766    2.681391
     35          6           0      -27.219697   -2.547296    1.378267
     36          6           0      -27.951607   -1.795468    0.489915
     37          6           0      -27.250524   -3.045476    3.899775
     38          6           0      -26.232293   -3.255056    0.659739
     39          8           0      -25.391801   -4.156831    0.925362
     40          6           0      -26.270672   -2.595097   -0.791470
     41          6           0      -26.123580   -3.639437   -1.836489
     42          8           0      -26.882924   -4.574478   -2.081886
     43          8           0      -24.969420   -3.299386   -2.610352
     44          6           0      -24.611721   -4.202942   -3.711270
     45          1           0      -30.411427    1.813401   -3.838179
     46          1           0      -32.564651    3.527868    2.024119
     47          1           0      -29.273174   -1.263512    4.510439
     48          1           0      -26.922043   -1.258740   -3.590938
     49          1           0      -29.049833   -0.097771   -4.934388
     50          1           0      -26.436866    0.866453   -4.053734
     51          1           0      -27.614917    2.123339   -3.973740
     52          1           0      -27.437549    1.166551   -5.506345
     53          1           0      -29.900223   -2.167681   -4.264815
     54          1           0      -29.112835   -3.212427   -3.211704
     55          1           0      -29.181957   -3.762693   -5.859941
     56          1           0      -27.696632   -4.104048   -4.826071
     57          1           0      -33.152384    4.235357   -3.725840
     58          1           0      -31.730683    3.341185   -4.276882
     59          1           0      -31.420842    4.803682   -3.555755
     60          1           0      -33.309683    6.063932   -2.112980
     61          1           0      -34.761460    6.317341   -1.111002
     62          1           0      -34.709276    5.018310   -2.223830
     63          1           0      -32.958448    1.642042    4.198467
     64          1           0      -30.145304    1.089705    5.217610
     65          1           0      -31.198762    4.021926    4.121162
     66          1           0      -31.256127    3.032538    5.712224
     67          1           0      -32.725091    3.672794    5.076863
     68          1           0      -31.476003   -1.337791    5.108014
     69          1           0      -32.845748   -0.279775    5.371415
     70          1           0      -30.900901    0.477511    7.173512
     71          1           0      -30.825912   -1.284909    7.176036
     72          1           0      -32.373263   -0.388698    7.619891
     73          1           0      -28.112923   -3.483115    4.401900
     74          1           0      -26.940920   -2.354446    4.683872
     75          1           0      -26.530096   -3.826890    3.657242
     76          1           0      -25.450059   -1.880170   -0.859258
     77          1           0      -23.672143   -3.896827   -4.171998
     78          1           0      -25.325133   -4.056827   -4.522528
     79          1           0      -24.472460   -5.209030   -3.317087
     80         12           0       30.110207    0.385544   -0.191914
     81          6           0       27.100810   -1.448171   -0.256008
     82          6           0       28.292921    3.106651   -0.925186
     83          6           0       32.862704    2.047655    0.392689
     84          6           0       31.591095   -2.525390    1.258570
     85          7           0       27.928657    0.765124   -0.501769
     86          6           0       26.886580   -0.097117   -0.567780
     87          6           0       25.573456    0.562425   -0.937519
     88          6           0       26.099289    1.978261   -1.406389
     89          6           0       27.533720    2.006456   -0.920756
     90          6           0       25.998883    2.244965   -2.964955
     91          6           0       24.376697    0.690482    0.102798
     92          6           0       24.596696    0.473846    1.623581
     93          1           0       23.726839    1.324080    2.623189
     94          7           0       30.512037    2.349865   -0.405001
     95          6           0       29.639597    3.329073   -0.602525
     96          6           0       30.348158    4.633961   -0.500681
     97          6           0       31.777998    4.284587   -0.266908
     98          6           0       31.750544    2.835346   -0.067218
     99          6           0       29.713992    5.963758   -0.807876
    100          6           0       32.913431    5.265304   -0.132648
    101          8           0       32.682869    6.460278   -0.300541
    102          6           0       34.389561    4.902647    0.273130
    103          7           0       32.010320   -0.142105    0.835836
    104          6           0       32.947776    0.735381    0.734267
    105          6           0       34.291839    0.059610    1.259590
    106          6           0       33.761796   -1.292739    1.740612
    107          6           0       32.323135   -1.340336    1.263205
    108          6           0       35.495708   -0.051331    0.309243
    109          6           0       33.678662   -1.421421    3.349101
    110          6           0       34.628996   -2.439207    4.006088
    111          7           0       29.533977   -1.553810    0.457051
    112          6           0       30.237885   -2.643735    0.896485
    113          6           0       29.397436   -3.867845    0.839435
    114          6           0       28.084221   -3.431357    0.505303
    115          6           0       28.292372   -2.021164    0.181332
    116          6           0       29.793485   -5.293381    1.284531
    117          6           0       26.715778   -3.776881    0.309850
    118          8           0       26.036129   -4.792523    0.536713
    119          6           0       26.021069   -2.518782   -0.270487
    120          6           0       25.448439   -2.918399   -1.633467
    121          8           0       24.329214   -3.132016   -2.017304
    122          8           0       26.480937   -2.819342   -2.572431
    123          6           0       26.136116   -3.050372   -4.009642
    124          1           0       27.675033    3.977004   -1.156564
    125          1           0       33.769111    2.641150    0.534800
    126          1           0       32.124881   -3.457630    1.452827
    127          1           0       25.239534    0.026474   -1.825790
    128          1           0       25.500673    2.757428   -0.934296
    129          1           0       25.623827    1.365384   -3.487111
    130          1           0       27.051207    2.305016   -3.240474
    131          1           0       25.415587    3.148013   -3.145811
    132          1           0       23.598312    0.004479   -0.231544
    133          1           0       23.919410    1.674250   -0.008285
    134          1           0       25.646699    0.705510    1.802406
    135          1           0       24.294345   -0.511762    1.976166
    136          1           0       30.439407    6.766024   -0.941309
    137          1           0       28.955220    6.124319   -0.041071
    138          1           0       29.127387    5.765713   -1.705574
    139          1           0       34.945451    4.127944   -0.256345
    140          1           0       34.372005    4.518630    1.293098
    141          1           0       35.052513    5.765744    0.219934
    142          1           0       34.730209    0.629906    2.077854
    143          1           0       34.290748   -2.200301    1.447602
    144          1           0       35.286773    0.392854   -0.664103
    145          1           0       35.835496   -1.082554    0.207528
    146          1           0       36.370590    0.502142    0.650357
    147          1           0       32.685859   -1.724806    3.678537
    148          1           0       33.876947   -0.419370    3.730083
    149          1           0       34.246140   -2.929630    4.901422
    150          1           0       35.490982   -1.855138    4.328373
    151          1           0       34.806167   -3.163243    3.210707
    152          1           0       30.711518   -5.356653    1.867835
    153          1           0       29.935100   -5.830523    0.347022
    154          1           0       28.933317   -5.745448    1.777720
    155          1           0       25.210067   -2.217237    0.391597
    156          1           0       25.323211   -3.736278   -4.246997
    157          1           0       27.034347   -3.524372   -4.404928
    158          1           0       25.985887   -2.184233   -4.654429
 ---------------------------------------------------------------------

 SCF Done:  E(RPBE1PBE) =  -4067.32854434     A.U. after   16 cycles

 Excitation energies and oscillator strengths:

 Excited State   1:      Singlet-A      1.9112 eV  648.73 nm  f=0.3944  <S**2>=0.000
     309 -> 316        0.17704
     312 -> 313        0.69113
     312 <- 313       -0.10568
 This state for optimization and/or second-order correction.
 Total Energy, E(TD-HF/TD-DFT) =  -4067.25830957
 Copying the excited state density for this state as the 1-particle RhoCI density.

 Excited State   2:      Singlet-A      1.9488 eV  636.21 nm  f=0.3540  <S**2>=0.000
     310 -> 315       -0.20425
     311 -> 314        0.68088

 Excited State   3:      Singlet-A      2.0845 eV  594.78 nm  f=0.0000  <S**2>=0.000
     311 -> 313        0.70711

 Excited State   4:      Singlet-A      2.1202 eV  584.77 nm  f=0.0000  <S**2>=0.000
     312 -> 314        0.70711

 Excited State   5:      Singlet-A      2.2125 eV  560.39 nm  f=0.0834  <S**2>=0.000
     310 -> 314        0.64637
     311 -> 315        0.26598

 The electronic state is 1-A.
 Alpha  occ. eigenvalues --  -46.93455 -46.92786 -19.25207 -19.24615 -19.20572
 Alpha  occ. eigenvalues --  -19.20402 -19.19518 -19.19175 -19.18966 -19.18759
 Alpha  occ. eigenvalues --  -14.41825 -14.41652 -14.41299 -14.41146 -14.40007
 Alpha  occ. eigenvalues --  -14.39879 -14.39659 -14.38296 -10.36850 -10.36292
 Alpha  occ. eigenvalues --  -10.32914 -10.32660 -10.32200 -10.31662 -10.29241
 Alpha  occ. eigenvalues --  -10.29106 -10.29058 -10.28726 -10.28674 -10.28660
 Alpha  occ. eigenvalues --  -10.28547 -10.28501 -10.28398 -10.28394 -10.28341
 Alpha  occ. eigenvalues --  -10.28302 -10.28067 -10.27936 -10.27924 -10.27795
 Alpha  occ. eigenvalues --  -10.27627 -10.27624 -10.26853 -10.26836 -10.26738
 Alpha  occ. eigenvalues --  -10.26590 -10.26509 -10.26485 -10.26481 -10.26289
 Alpha  occ. eigenvalues --  -10.26154 -10.26070 -10.26067 -10.25888 -10.25749
 Alpha  occ. eigenvalues --  -10.25584 -10.25484 -10.25483 -10.25465 -10.25422
 Alpha  occ. eigenvalues --  -10.25406 -10.25220 -10.25139 -10.25122 -10.25099
 Alpha  occ. eigenvalues --  -10.24937 -10.24773 -10.24621 -10.24453 -10.24378
 Alpha  occ. eigenvalues --  -10.24139 -10.24032 -10.24030 -10.23992 -10.23962
 Alpha  occ. eigenvalues --  -10.23886 -10.23857 -10.23672 -10.23624 -10.23349
 Alpha  occ. eigenvalues --  -10.23296 -10.23208 -10.23062 -10.23011 -10.22845
 Alpha  occ. eigenvalues --  -10.22387  -3.15514  -3.14822  -1.88342  -1.87886
 Alpha  occ. eigenvalues --   -1.87740  -1.87665  -1.87205  -1.87032  -1.10749
 Alpha  occ. eigenvalues --   -1.08676  -1.04449  -1.04094  -1.03882  -1.02058
 Alpha  occ. eigenvalues --   -1.02033  -1.01536  -1.01396  -1.00433  -0.99855
 Alpha  occ. eigenvalues --   -0.99425  -0.98700  -0.98225  -0.98026  -0.96082
 Alpha  occ. eigenvalues --   -0.87843  -0.87366  -0.84168  -0.83830  -0.83178
 Alpha  occ. eigenvalues --   -0.82935  -0.82870  -0.82625  -0.82190  -0.81902
 Alpha  occ. eigenvalues --   -0.81639  -0.81114  -0.81103  -0.79890  -0.79188
 Alpha  occ. eigenvalues --   -0.78589  -0.78264  -0.78189  -0.77169  -0.76997
 Alpha  occ. eigenvalues --   -0.76226  -0.76022  -0.75784  -0.75111  -0.75016
 Alpha  occ. eigenvalues --   -0.74781  -0.73273  -0.72832  -0.72048  -0.71981
 Alpha  occ. eigenvalues --   -0.71331  -0.71271  -0.70940  -0.70220  -0.69786
 Alpha  occ. eigenvalues --   -0.69576  -0.67737  -0.67702  -0.66883  -0.66742
 Alpha  occ. eigenvalues --   -0.64008  -0.63580  -0.63405  -0.63062  -0.62946
 Alpha  occ. eigenvalues --   -0.62309  -0.62067  -0.61619  -0.61308  -0.60429
 Alpha  occ. eigenvalues --   -0.60162  -0.60089  -0.60024  -0.59994  -0.59409
 Alpha  occ. eigenvalues --   -0.59156  -0.57658  -0.55825  -0.55127  -0.55074
 Alpha  occ. eigenvalues --   -0.54888  -0.54725  -0.54042  -0.53905  -0.53177
 Alpha  occ. eigenvalues --   -0.53031  -0.52738  -0.52314  -0.51874  -0.51666
 Alpha  occ. eigenvalues --   -0.51487  -0.51019  -0.50409  -0.50340  -0.50138
 Alpha  occ. eigenvalues --   -0.50000  -0.49603  -0.49057  -0.48830  -0.48548
 Alpha  occ. eigenvalues --   -0.48507  -0.48271  -0.48091  -0.47735  -0.47536
 Alpha  occ. eigenvalues --   -0.47530  -0.47366  -0.47073  -0.47020  -0.46654
 Alpha  occ. eigenvalues --   -0.46613  -0.46298  -0.46092  -0.46091  -0.45745
 Alpha  occ. eigenvalues --   -0.45725  -0.45633  -0.45498  -0.45206  -0.45061
 Alpha  occ. eigenvalues --   -0.44981  -0.44654  -0.44477  -0.44416  -0.44234
 Alpha  occ. eigenvalues --   -0.44071  -0.43769  -0.43707  -0.43478  -0.43423
 Alpha  occ. eigenvalues --   -0.43259  -0.43219  -0.43141  -0.43037  -0.42903
 Alpha  occ. eigenvalues --   -0.42648  -0.42601  -0.42468  -0.42319  -0.42302
 Alpha  occ. eigenvalues --   -0.42173  -0.42012  -0.41885  -0.41688  -0.41659
 Alpha  occ. eigenvalues --   -0.41528  -0.41346  -0.41091  -0.41066  -0.40890
 Alpha  occ. eigenvalues --   -0.40770  -0.40582  -0.40302  -0.40228  -0.40144
 Alpha  occ. eigenvalues --   -0.40117  -0.39730  -0.39659  -0.39015  -0.38989
 Alpha  occ. eigenvalues --   -0.38804  -0.38785  -0.38732  -0.38399  -0.38393
 Alpha  occ. eigenvalues --   -0.38137  -0.38136  -0.37912  -0.37784  -0.37687
 Alpha  occ. eigenvalues --   -0.37487  -0.37044  -0.36964  -0.36846  -0.36766
 Alpha  occ. eigenvalues --   -0.36470  -0.36370  -0.36303  -0.36140  -0.35965
 Alpha  occ. eigenvalues --   -0.35863  -0.35808  -0.35645  -0.35592  -0.35515
 Alpha  occ. eigenvalues --   -0.35268  -0.35007  -0.34896  -0.34107  -0.33968
 Alpha  occ. eigenvalues --   -0.33816  -0.33492  -0.33263  -0.32874  -0.32693
 Alpha  occ. eigenvalues --   -0.32436  -0.31968  -0.31556  -0.31534  -0.31311
 Alpha  occ. eigenvalues --   -0.31036  -0.30672  -0.30053  -0.29786  -0.29413
 Alpha  occ. eigenvalues --   -0.29088  -0.28949  -0.28787  -0.27432  -0.27416
 Alpha  occ. eigenvalues --   -0.26579  -0.26146  -0.26043  -0.25943  -0.25893
 Alpha  occ. eigenvalues --   -0.25288  -0.25064  -0.25010  -0.21413  -0.21107
 Alpha  occ. eigenvalues --   -0.19308  -0.19182
 Alpha virt. eigenvalues --   -0.11426  -0.11169  -0.06064  -0.05528  -0.04775
 Alpha virt. eigenvalues --   -0.04420  -0.02651  -0.02141  -0.01448  -0.00538
 Alpha virt. eigenvalues --   -0.00027   0.00179   0.00525   0.01158   0.01257

 Mulliken charges:
               1
     1  Mg  11.999989
     2  C    5.999961
     3  C    6.000093
     4  C    6.000027
     5  C    5.999998
     6  N    7.000036
     7  C    6.000054
     8  C    5.999985
     9  C    6.000048
    10  C    5.999826
    11  C    6.000019
    12  C    5.999992
    13  C    5.999995
    14  H    1.000022
    15  N    7.000005
    16  C    5.999850
    17  C    5.999886
    18  C    5.999982
    19  C    5.999919
    20  C    6.000019
    21  C    5.999952
    22  O    7.999872
    23  C    6.000035
    24  N    6.999981
    25  C    5.999919
    26  C    6.000047
    27  C    5.999948
    28  C    6.000139
    29  C    6.000009
    30  C    5.999965
    31  C    6.000014
    32  N    7.000042
    33  C    6.000070
    34  C    6.000127
    35  C    5.999960
    36  C    6.000100
    37  C    5.999980
    38  C    6.000137
    39  O    8.000142
    40  C    5.999961
    41  C    6.000036
    42  O    8.000020
    43  O    8.000000
    44  C    5.999990
    45  H    0.999948
    46  H    0.999976
    47  H    1.000036
    48  H    0.999998
    49  H    0.999973
    50  H    0.999957
    51  H    1.000004
    52  H    0.999977
    53  H    1.000035
    54  H    0.999980
    55  H    1.000011
    56  H    0.999997
    57  H    0.999922
    58  H    0.999927
    59  H    0.999899
    60  H    0.999967
    61  H    0.999927
    62  H    0.999964
    63  H    0.999979
    64  H    0.999996
    65  H    1.000009
    66  H    0.999963
    67  H    0.999993
    68  H    0.999989
    69  H    1.000038
    70  H    1.000011
    71  H    0.999995
    72  H    1.000015
    73  H    1.000083
    74  H    1.000108
    75  H    1.000072
    76  H    1.000036
    77  H    1.000033
    78  H    1.000015
    79  H    1.000019
    80  Mg  12.003305
    81  C    6.011559
    82  C    5.982470
    83  C    5.981938
    84  C    6.016276
    85  N    6.999186
    86  C    5.972266
    87  C    6.011569
    88  C    5.990826
    89  C    6.027370
    90  C    5.998599
    91  C    5.998647
    92  C    6.007965
    93  H    0.990317
    94  N    6.994037
    95  C    6.043889
    96  C    6.029512
    97  C    6.005347
    98  C    6.037455
    99  C    5.999447
   100  C    6.010262
   101  O    8.016915
   102  C    5.998257
   103  N    7.002636
   104  C    6.026362
   105  C    5.993019
   106  C    6.004139
   107  C    5.969996
   108  C    5.999335
   109  C    6.005868
   110  C    5.999996
   111  N    6.999181
   112  C    5.966623
   113  C    5.968239
   114  C    5.994357
   115  C    5.978603
   116  C    5.999622
   117  C    5.981334
   118  O    7.966436
   119  C    6.000543
   120  C    5.998836
   121  O    7.990808
   122  O    8.002625
   123  C    6.002724
   124  H    1.007977
   125  H    1.007973
   126  H    0.993624
   127  H    0.999279
   128  H    1.001164
   129  H    1.013140
   130  H    0.995539
   131  H    1.001449
   132  H    1.002048
   133  H    0.991270
   134  H    0.996508
   135  H    1.004847
   136  H    1.014551
   137  H    1.021020
   138  H    1.020448
   139  H    1.010753
   140  H    1.009424
   141  H    1.011364
   142  H    0.999913
   143  H    1.001317
   144  H    0.996878
   145  H    1.009414
   146  H    0.999974
   147  H    1.004080
   148  H    0.987385
   149  H    1.000041
   150  H    0.994124
   151  H    1.001156
   152  H    0.981498
   153  H    0.982345
   154  H    0.986244
   155  H    0.989857
   156  H    0.996729
   157  H    0.997581
   158  H    0.990388
 Sum of Mulliken charges = 624.00000

 Dipole moment (field-independent basis, Debye):
    X=              3.1731    Y=              9.8419    Z=             -1.3842  Tot=             10.4330
 Quadrupole moment (field-independent basis, Debye-Ang):
   XX=            184.0598   YY=              8.2036   ZZ=             -1.9786
   XY=            295.9865   XZ=            -43.0290   YZ=             -0.1854

 Normal termination of Gaussian 16 at Thu Oct 14 08:00:49 2021.
