 Gaussian 16, Revision A.03,
 Gaussian 16:  ES64L-G16RevA.03 25-Dec-2016

 --------------------------------------------------------
 #p PBE1PBE/Def2SVP td=(nstates=5) density=(transition=1)
 --------------------------------------------------------

 --------------------------------
 TDDFT excited states in gaussian
 --------------------------------
 Symbolic Z-matrix:
 Charge =  0 Multiplicity = 1

                         Standard orientation:
 ---------------------------------------------------------------------
 Center     Atomic      Atomic             Coordinates (Angstroms)
 Number     Number       Type             X           Y           Z
 ---------------------------------------------------------------------
      1         12           0       10.877242   -0.435186   -0.134334
      2          6           0        8.161400    1.295939   -1.175548
      3          6           0       10.716871    1.164840    2.944454
      4          6           0       13.597394   -2.162282    0.904600
      5          6           0       11.330644   -1.655948   -3.341703
      6          7           0        9.528969    0.932584    0.728751
      7          6           0        8.483707    1.566522    0.139737
      8          6           0        7.657944    2.352113    1.124807
      9          6           0        8.631034    2.523392    2.352516
     10          6           0        9.695458    1.434684    1.995481
     11          6           0        9.222244    3.949818    2.713820
     12          6           0        6.351073    1.553949    1.570653
     13          6           0        5.218283    2.497300    2.072365
     14          1           0        5.521054    3.870415    2.695284
     15          7           0       12.092615   -0.463129    1.657443
     16          6           0       11.807369    0.297016    2.821922
     17          6           0       12.773080   -0.003824    3.835428
     18          6           0       13.658653   -0.980699    3.255403
     19          6           0       13.096101   -1.236080    1.881277
     20          6           0       12.748224    0.542625    5.219807
     21          6           0       14.878712   -1.661623    3.865465
     22          8           0       15.679600   -2.427871    3.253726
     23          6           0       15.216768   -1.414635    5.325916
     24          7           0       12.302859   -1.663476   -1.081972
     25          6           0       13.248175   -2.431391   -0.400168
     26          6           0       13.870590   -3.586502   -1.236581
     27          6           0       13.026982   -3.378499   -2.616014
     28          6           0       12.152850   -2.206040   -2.359243
     29          6           0       15.380074   -3.349116   -1.372782
     30          6           0       12.301010   -4.603727   -3.087934
     31          6           0       12.657825   -5.009126   -4.489466
     32          7           0       10.103333   -0.210614   -1.917875
     33          6           0       10.332497   -0.771238   -3.168256
     34          6           0        9.398235   -0.270061   -4.106832
     35          6           0        8.517231    0.600104   -3.410200
     36          6           0        8.908858    0.531361   -2.056523
     37          6           0        9.263570   -0.581663   -5.547902
     38          6           0        7.442559    1.557302   -3.556094
     39          8           0        6.811415    2.006333   -4.492837
     40          6           0        7.147508    1.977186   -2.038474
     41          6           0        6.852699    3.427349   -1.899508
     42          8           0        7.439761    4.334981   -2.430898
     43          8           0        5.792326    3.681218   -1.116969
     44          6           0        5.483554    5.129762   -0.948467
     45          1           0       10.680610    1.843125    3.799628
     46          1           0       14.546371   -2.608744    1.208574
     47          1           0       11.334212   -2.079937   -4.347947
     48          1           0        7.469460    3.372072    0.790180
     49          1           0        8.130460    2.137642    3.240036
     50          1           0        8.744456    4.673496    2.053331
     51          1           0       10.302044    4.078519    2.658517
     52          1           0        8.983930    4.125504    3.763011
     53          1           0        6.708692    0.862486    2.333801
     54          1           0        6.002550    0.996990    0.700837
     55          1           0        4.701817    1.868760    2.798063
     56          1           0        4.512361    2.586523    1.247068
     57          1           0       12.078776    0.038802    5.917089
     58          1           0       12.494960    1.596036    5.107060
     59          1           0       13.741085    0.656442    5.653964
     60          1           0       15.776218   -0.479527    5.347328
     61          1           0       15.876586   -2.236886    5.601671
     62          1           0       14.345498   -1.321639    5.974494
     63          1           0       13.719553   -4.494210   -0.652202
     64          1           0       13.726803   -3.116958   -3.410424
     65          1           0       15.745386   -2.386724   -1.013777
     66          1           0       15.683019   -3.585690   -2.392486
     67          1           0       15.852711   -4.065294   -0.699996
     68          1           0       11.219431   -4.474102   -3.128645
     69          1           0       12.434514   -5.483105   -2.457751
     70          1           0       12.896988   -6.068225   -4.581078
     71          1           0       13.525098   -4.458881   -4.853421
     72          1           0       11.816406   -4.659323   -5.088312
     73          1           0       10.187039   -0.826280   -6.073596
     74          1           0        9.065617    0.393709   -5.993319
     75          1           0        8.507204   -1.353000   -5.693384
     76          1           0        6.201890    1.442714   -1.943114
     77          1           0        4.976473    5.545276   -1.820441
     78          1           0        6.352649    5.695640   -0.612555
     79          1           0        4.775926    5.230902   -0.125221
     80         12           0      -10.985245   -0.532751    0.283602
     81          6           0       -9.019460    2.385584    0.078419
     82          6           0      -11.542552   -0.208407   -3.007120
     83          6           0      -12.347458   -3.495679    0.498183
     84          6           0       -9.619091   -0.952594    3.558937
     85          7           0      -10.300622    0.914259   -1.277394
     86          6           0       -9.586081    2.058828   -1.162796
     87          6           0       -9.456488    2.828000   -2.461864
     88          6           0      -10.529694    2.067602   -3.339905
     89          6           0      -10.834049    0.821697   -2.534104
     90          6           0      -11.840518    2.898301   -3.659314
     91          6           0       -8.064252    2.967760   -3.218855
     92          6           0       -6.857607    2.055094   -2.873657
     93          1           0       -5.878503    1.654400   -4.039662
     94          7           0      -11.957164   -1.619923   -1.108828
     95          6           0      -11.997662   -1.395783   -2.415403
     96          6           0      -12.657389   -2.551125   -3.082570
     97          6           0      -13.050080   -3.468864   -1.975907
     98          6           0      -12.428304   -2.870082   -0.794474
     99          6           0      -13.010631   -2.590865   -4.544943
    100          6           0      -13.790196   -4.771403   -2.132949
    101          8           0      -14.183077   -5.094787   -3.251151
    102          6           0      -14.060209   -5.811991   -0.984297
    103          7           0      -10.899860   -2.132243    1.826147
    104          6           0      -11.705842   -3.118620    1.634903
    105          6           0      -11.717888   -3.989617    2.969201
    106          6           0      -10.652172   -3.263807    3.792986
    107          6           0      -10.333073   -2.010493    3.000959
    108          6           0      -13.045070   -4.193791    3.718647
    109          6           0       -9.254021   -4.067103    3.895942
    110          6           0       -8.862742   -4.587466    5.291211
    111          7           0       -9.579360    0.409115    1.568384
    112          6           0       -9.225080    0.211792    2.876847
    113          6           0       -8.489642    1.390542    3.403850
    114          6           0       -8.262357    2.246334    2.289102
    115          6           0       -9.061413    1.617136    1.239080
    116          6           0       -7.878815    1.555733    4.813361
    117          6           0       -7.654664    3.434427    1.789734
    118          8           0       -6.828265    4.243793    2.244607
    119          6           0       -8.180507    3.625625    0.344341
    120          6           0       -8.898107    4.978091    0.309675
    121          8           0       -8.605851    6.044892   -0.161650
    122          8           0      -10.197530    4.780769    0.789344
    123          6           0      -11.137900    5.943291    0.743544
    124          1           0      -11.700503   -0.082102   -4.080402
    125          1           0      -12.851519   -4.464672    0.529505
    126          1           0       -9.431896   -0.972027    4.634258
    127          1           0       -9.858585    3.815370   -2.235609
    128          1           0      -10.092358    1.822302   -4.307830
    129          1           0      -11.817152    3.868304   -3.163811
    130          1           0      -12.593745    2.326892   -3.117979
    131          1           0      -11.983823    2.957006   -4.738413
    132          1           0       -7.751283    4.005896   -3.106640
    133          1           0       -8.236085    2.863996   -4.290749
    134          1           0       -7.289967    1.143002   -2.462190
    135          1           0       -6.119854    2.527058   -2.225486
    136          1           0      -13.717091   -3.381849   -4.795783
    137          1           0      -12.064396   -2.601651   -5.087187
    138          1           0      -13.401957   -1.591948   -4.740433
    139          1           0      -14.525286   -5.507569   -0.045918
    140          1           0      -13.097804   -6.199792   -0.650380
    141          1           0      -14.689361   -6.636481   -1.318448
    142          1           0      -11.434233   -5.022902    2.772161
    143          1           0      -10.869616   -3.013061    4.831812
    144          1           0      -13.878184   -3.710794    3.207775
    145          1           0      -12.976269   -3.867335    4.756875
    146          1           0      -13.358481   -5.236480    3.770447
    147          1           0       -8.410700   -3.449495    3.590000
    148          1           0       -9.345198   -4.897414    3.195343
    149          1           0       -7.793161   -4.609858    5.501473
    150          1           0       -9.194740   -5.625468    5.310003
    151          1           0       -9.378160   -3.903178    5.965261
    152          1           0       -7.825280    0.641428    5.403454
    153          1           0       -8.550899    2.255404    5.309609
    154          1           0       -6.919783    2.062666    4.709596
    155          1           0       -7.338121    3.641925   -0.346404
    156          1           0      -10.728767    6.948860    0.838732
    157          1           0      -11.750852    5.798971    1.633042
    158          1           0      -11.859604    5.996950   -0.071795
 ---------------------------------------------------------------------

 SCF Done:  E(RPBE1PBE) =  -4067.36315365     A.U. after   16 cycles

 Excitation energies and oscillator strengths:

 Excited State   1:      Singlet-A      1.7762 eV  698.05 nm  f=0.0000  <S**2>=0.000
     312 -> 313        0.70709
 This state for optimization and/or second-order correction.
 Total Energy, E(TD-HF/TD-DFT) =  -4067.29788117
 Copying the excited state density for this state as the 1-particle RhoCI density.

 Excited State   2:      Singlet-A      1.8020 eV  688.03 nm  f=0.3630  <S**2>=0.000
     310 -> 316       -0.16362
     312 -> 314        0.69742
     312 <- 314       -0.11963

 Excited State   3:      Singlet-A      1.9108 eV  648.86 nm  f=0.3991  <S**2>=0.000
     309 -> 315        0.17674
     311 -> 313        0.69115
     311 <- 313       -0.10576

 Excited State   4:      Singlet-A      1.9880 eV  623.67 nm  f=0.0000  <S**2>=0.000
     311 -> 314        0.70710

 Excited State   5:      Singlet-A      2.2172 eV  559.18 nm  f=0.1178  <S**2>=0.000
     310 -> 314        0.65148
     312 -> 316        0.25918

 The electronic state is 1-A.
 Alpha  occ. eigenvalues --  -46.93500 -46.90479 -19.25624 -19.25251 -19.20617
 Alpha  occ. eigenvalues --  -19.19576 -19.19333 -19.19004 -19.18842 -19.18652
 Alpha  occ. eigenvalues --  -14.42197 -14.41867 -14.41347 -14.41218 -14.40055
 Alpha  occ. eigenvalues --  -14.39922 -14.39051 -14.38407 -10.36895 -10.35444
 Alpha  occ. eigenvalues --  -10.32952 -10.32716 -10.32268 -10.32164 -10.29145
 Alpha  occ. eigenvalues --  -10.29100 -10.29097 -10.29022 -10.28774 -10.28720
 Alpha  occ. eigenvalues --  -10.28595 -10.28574 -10.28550 -10.28377 -10.28165
 Alpha  occ. eigenvalues --  -10.27976 -10.27840 -10.27680 -10.27671 -10.27649
 Alpha  occ. eigenvalues --  -10.27473 -10.26863 -10.26782 -10.26702 -10.26617
 Alpha  occ. eigenvalues --  -10.26587 -10.26528 -10.26432 -10.26245 -10.25974
 Alpha  occ. eigenvalues --  -10.25937 -10.25915 -10.25800 -10.25748 -10.25629
 Alpha  occ. eigenvalues --  -10.25521 -10.25396 -10.25354 -10.25349 -10.25295
 Alpha  occ. eigenvalues --  -10.25262 -10.25261 -10.25154 -10.25138 -10.24986
 Alpha  occ. eigenvalues --  -10.24983 -10.24819 -10.24528 -10.24493 -10.24431
 Alpha  occ. eigenvalues --  -10.24193 -10.24163 -10.24093 -10.24072 -10.24030
 Alpha  occ. eigenvalues --  -10.23722 -10.23567 -10.23278 -10.23190 -10.23164
 Alpha  occ. eigenvalues --  -10.23042 -10.23014 -10.22941 -10.22931 -10.22904
 Alpha  occ. eigenvalues --  -10.22506  -3.15559  -3.12908  -1.88387  -1.87931
 Alpha  occ. eigenvalues --   -1.87785  -1.85742  -1.85263  -1.85179  -1.11933
 Alpha  occ. eigenvalues --   -1.10794  -1.04771  -1.04486  -1.03941  -1.02102
 Alpha  occ. eigenvalues --   -1.02016  -1.01936  -1.01445  -0.99467  -0.99005
 Alpha  occ. eigenvalues --   -0.98747  -0.98150  -0.98069  -0.97263  -0.95963
 Alpha  occ. eigenvalues --   -0.87890  -0.87632  -0.84217  -0.83947  -0.83225
 Alpha  occ. eigenvalues --   -0.83017  -0.82897  -0.82716  -0.82673  -0.81940
 Alpha  occ. eigenvalues --   -0.81443  -0.81157  -0.80628  -0.79929  -0.79231
 Alpha  occ. eigenvalues --   -0.78573  -0.78244  -0.77979  -0.77206  -0.76648
 Alpha  occ. eigenvalues --   -0.76062  -0.75787  -0.75278  -0.75155  -0.74823
 Alpha  occ. eigenvalues --   -0.74673  -0.72882  -0.72525  -0.72028  -0.72024
 Alpha  occ. eigenvalues --   -0.71528  -0.71364  -0.70986  -0.70722  -0.69827
 Alpha  occ. eigenvalues --   -0.69502  -0.67786  -0.67251  -0.66927  -0.66203
 Alpha  occ. eigenvalues --   -0.64054  -0.63607  -0.63407  -0.63120  -0.62982
 Alpha  occ. eigenvalues --   -0.62454  -0.62104  -0.61360  -0.61018  -0.60197
 Alpha  occ. eigenvalues --   -0.60182  -0.60039  -0.59696  -0.59453  -0.59229
 Alpha  occ. eigenvalues --   -0.58575  -0.57704  -0.56772  -0.55175  -0.54933
 Alpha  occ. eigenvalues --   -0.54797  -0.54340  -0.54091  -0.53447  -0.53217
 Alpha  occ. eigenvalues --   -0.52912  -0.52779  -0.52435  -0.52213  -0.51711
 Alpha  occ. eigenvalues --   -0.51062  -0.50595  -0.50451  -0.50183  -0.49731
 Alpha  occ. eigenvalues --   -0.49635  -0.49634  -0.49496  -0.49105  -0.48557
 Alpha  occ. eigenvalues --   -0.48419  -0.48319  -0.47855  -0.47587  -0.47511
 Alpha  occ. eigenvalues --   -0.47411  -0.47393  -0.46980  -0.46802  -0.46655
 Alpha  occ. eigenvalues --   -0.46582  -0.46508  -0.46330  -0.46144  -0.45801
 Alpha  occ. eigenvalues --   -0.45794  -0.45670  -0.45649  -0.45260  -0.44907
 Alpha  occ. eigenvalues --   -0.44686  -0.44538  -0.44456  -0.44354  -0.44137
 Alpha  occ. eigenvalues --   -0.44118  -0.43753  -0.43517  -0.43498  -0.43351
 Alpha  occ. eigenvalues --   -0.43269  -0.43186  -0.42986  -0.42949  -0.42744
 Alpha  occ. eigenvalues --   -0.42650  -0.42606  -0.42365  -0.42291  -0.42216
 Alpha  occ. eigenvalues --   -0.41941  -0.41897  -0.41747  -0.41737  -0.41394
 Alpha  occ. eigenvalues --   -0.41303  -0.41237  -0.41133  -0.40947  -0.40811
 Alpha  occ. eigenvalues --   -0.40604  -0.40572  -0.40279  -0.40161  -0.39882
 Alpha  occ. eigenvalues --   -0.39701  -0.39645  -0.39473  -0.39261  -0.39060
 Alpha  occ. eigenvalues --   -0.38839  -0.38762  -0.38615  -0.38438  -0.38291
 Alpha  occ. eigenvalues --   -0.38185  -0.38037  -0.37960  -0.37901  -0.37729
 Alpha  occ. eigenvalues --   -0.37135  -0.37081  -0.37058  -0.37002  -0.36892
 Alpha  occ. eigenvalues --   -0.36718  -0.36637  -0.36345  -0.36194  -0.36155
 Alpha  occ. eigenvalues --   -0.35846  -0.35838  -0.35641  -0.35629  -0.35244
 Alpha  occ. eigenvalues --   -0.35193  -0.35162  -0.34947  -0.34889  -0.34153
 Alpha  occ. eigenvalues --   -0.33854  -0.33309  -0.33116  -0.32889  -0.32734
 Alpha  occ. eigenvalues --   -0.32562  -0.32148  -0.32004  -0.31953  -0.31578
 Alpha  occ. eigenvalues --   -0.31463  -0.31328  -0.30098  -0.29741  -0.29461
 Alpha  occ. eigenvalues --   -0.29307  -0.29135  -0.28300  -0.27478  -0.26907
 Alpha  occ. eigenvalues --   -0.26633  -0.26204  -0.25931  -0.25849  -0.25432
 Alpha  occ. eigenvalues --   -0.25362  -0.25109  -0.25104  -0.21459  -0.21109
 Alpha  occ. eigenvalues --   -0.19227  -0.18617
 Alpha virt. eigenvalues --   -0.11473  -0.11318  -0.05573  -0.05044  -0.04823
 Alpha virt. eigenvalues --   -0.04005  -0.02695  -0.02048  -0.01490   0.00145
 Alpha virt. eigenvalues --    0.00215   0.00509   0.00996   0.01218   0.01304

 Mulliken charges:
               1
     1  Mg  12.000000
     2  C    6.000000
     3  C    6.000000
     4  C    6.000000
     5  C    6.000000
     6  N    7.000000
     7  C    6.000000
     8  C    6.000000
     9  C    6.000000
    10  C    6.000000
    11  C    6.000000
    12  C    6.000000
    13  C    6.000000
    14  H    1.000000
    15  N    7.000000
    16  C    6.000000
    17  C    6.000000
    18  C    6.000000
    19  C    6.000000
    20  C    6.000000
    21  C    6.000000
    22  O    8.000000
    23  C    6.000000
    24  N    7.000000
    25  C    6.000000
    26  C    6.000000
    27  C    6.000000
    28  C    6.000000
    29  C    6.000000
    30  C    6.000000
    31  C    6.000000
    32  N    7.000000
    33  C    6.000000
    34  C    6.000000
    35  C    6.000000
    36  C    6.000000
    37  C    6.000000
    38  C    6.000000
    39  O    8.000000
    40  C    6.000000
    41  C    6.000000
    42  O    8.000000
    43  O    8.000000
    44  C    6.000000
    45  H    1.000000
    46  H    1.000000
    47  H    1.000000
    48  H    1.000000
    49  H    1.000000
    50  H    1.000000
    51  H    1.000000
    52  H    1.000000
    53  H    1.000000
    54  H    1.000000
    55  H    1.000000
    56  H    1.000000
    57  H    1.000000
    58  H    1.000000
    59  H    1.000000
    60  H    1.000000
    61  H    1.000000
    62  H    1.000000
    63  H    1.000000
    64  H    1.000000
    65  H    1.000000
    66  H    1.000000
    67  H    1.000000
    68  H    1.000000
    69  H    1.000000
    70  H    1.000000
    71  H    1.000000
    72  H    1.000000
    73  H    1.000000
    74  H    1.000000
    75  H    1.000000
    76  H    1.000000
    77  H    1.000000
    78  H    1.000000
    79  H    1.000000
    80  Mg  12.000000
    81  C    6.000000
    82  C    6.000000
    83  C    6.000000
    84  C    6.000000
    85  N    7.000000
    86  C    6.000000
    87  C    6.000000
    88  C    6.000000
    89  C    6.000000
    90  C    6.000000
    91  C    6.000000
    92  C    6.000000
    93  H    1.000000
    94  N    7.000000
    95  C    6.000000
    96  C    6.000000
    97  C    6.000000
    98  C    6.000000
    99  C    6.000000
   100  C    6.000000
   101  O    8.000000
   102  C    6.000000
   103  N    7.000000
   104  C    6.000000
   105  C    6.000000
   106  C    6.000000
   107  C    6.000000
   108  C    6.000000
   109  C    6.000000
   110  C    6.000000
   111  N    7.000000
   112  C    6.000000
   113  C    6.000000
   114  C    6.000000
   115  C    6.000000
   116  C    6.000000
   117  C    6.000000
   118  O    8.000000
   119  C    6.000000
   120  C    6.000000
   121  O    8.000000
   122  O    8.000000
   123  C    6.000000
   124  H    1.000000
   125  H    1.000000
   126  H    1.000000
   127  H    1.000000
   128  H    1.000000
   129  H    1.000000
   130  H    1.000000
   131  H    1.000000
   132  H    1.000000
   133  H    1.000000
   134  H    1.000000
   135  H    1.000000
   136  H    1.000000
   137  H    1.000000
   138  H    1.000000
   139  H    1.000000
   140  H    1.000000
   141  H    1.000000
   142  H    1.000000
   143  H    1.000000
   144  H    1.000000
   145  H    1.000000
   146  H    1.000000
   147  H    1.000000
   148  H    1.000000
   149  H    1.000000
   150  H    1.000000
   151  H    1.000000
   152  H    1.000000
   153  H    1.000000
   154  H    1.000000
   155  H    1.000000
   156  H    1.000000
   157  H    1.000000
   158  H    1.000000
 Sum of Mulliken charges = 624.00000

 Dipole moment (field-independent basis, Debye):
    X=             -0.0000    Y=             -0.0000    Z=             -0.0000  Tot=              0.0000
 Quadrupole moment (field-independent basis, Debye-Ang):
   XX=             -0.0000   YY=              0.0000   ZZ=              0.0000
   XY=             -0.0000   XZ=             -0.0000   YZ=              0.0000

 Normal termination of Gaussian 16 at Fri Oct 15 02:43:42 2021.
