 Gaussian 16, Revision A.03,
 Gaussian 16:  ES64L-G16RevA.03 25-Dec-2016

 --------------------------------------------------------
 #p PBE1PBE/Def2SVP td=(nstates=5) density=(transition=1)
 --------------------------------------------------------

 --------------------------------
 TDDFT excited states in gaussian
 --------------------------------
 Symbolic Z-matrix:
 Charge =  0 Multiplicity = 1

                         Standard orientation:
 ---------------------------------------------------------------------
 Center     Atomic      Atomic             Coordinates (Angstroms)
 Number     Number       Type             X           Y           Z
 ---------------------------------------------------------------------
      1         12           0      -18.468001    0.395862    0.392031
      2          6           0      -15.650373   -0.729611   -1.108302
      3          6           0      -19.990336   -2.676667   -0.161872
      4          6           0      -21.288178    1.523939    1.887193
      5          6           0      -17.135175    3.588701    0.503379
      6          7           0      -17.807990   -1.432895   -0.416417
      7          6           0      -16.623576   -1.705391   -1.019986
      8          6           0      -16.458849   -3.170556   -1.329110
      9          6           0      -17.936489   -3.716071   -1.279068
     10          6           0      -18.628354   -2.527128   -0.535094
     11          6           0      -18.660708   -4.191811   -2.607201
     12          6           0      -15.566149   -3.909704   -0.233436
     13          6           0      -14.889274   -5.198522   -0.786269
     14          1           0      -15.505229   -6.008954   -1.939068
     15          7           0      -20.444429   -0.408565    0.759468
     16          6           0      -20.832866   -1.736217    0.440637
     17          6           0      -22.180869   -1.954483    0.871385
     18          6           0      -22.605718   -0.716164    1.472236
     19          6           0      -21.397754    0.180556    1.390852
     20          6           0      -22.901703   -3.253435    0.777305
     21          6           0      -23.948671   -0.356618    2.098002
     22          8           0      -24.289522    0.792696    2.505041
     23          6           0      -25.011264   -1.431856    2.249526
     24          7           0      -19.152217    2.283208    1.031460
     25          6           0      -20.297692    2.477342    1.805005
     26          6           0      -20.359892    3.847963    2.539034
     27          6           0      -18.920632    4.450038    2.065943
     28          6           0      -18.339401    3.407868    1.182343
     29          6           0      -21.575553    4.633573    2.030676
     30          6           0      -18.028070    4.877553    3.193548
     31          6           0      -17.583291    6.308862    3.096155
     32          7           0      -16.875262    1.348544   -0.229227
     33          6           0      -16.398307    2.648414   -0.114666
     34          6           0      -15.120952    2.754728   -0.716337
     35          6           0      -14.759102    1.462326   -1.182611
     36          6           0      -15.803928    0.606325   -0.775008
     37          6           0      -14.239916    3.938702   -0.834223
     38          6           0      -13.790472    0.712790   -1.952276
     39          8           0      -12.770411    0.987634   -2.553439
     40          6           0      -14.349240   -0.784711   -1.843649
     41          6           0      -14.204140   -1.536781   -3.117434
     42          8           0      -14.442724   -1.128408   -4.225190
     43          8           0      -13.721594   -2.777817   -2.949542
     44          6           0      -13.580170   -3.559830   -4.210680
     45          1           0      -20.425391   -3.605530   -0.536902
     46          1           0      -22.244671    1.910862    2.244543
     47          1           0      -16.598324    4.534690    0.599301
     48          1           0      -16.144870   -3.346338   -2.357865
     49          1           0      -17.970667   -4.541721   -0.568994
     50          1           0      -17.922632   -4.153020   -3.408435
     51          1           0      -19.551625   -3.649326   -2.919558
     52          1           0      -19.015308   -5.205335   -2.418819
     53          1           0      -16.256985   -4.101420    0.587782
     54          1           0      -14.799205   -3.203747    0.085426
     55          1           0      -14.819270   -5.820887    0.106030
     56          1           0      -13.856495   -4.927374   -1.003637
     57          1           0      -22.689525   -3.972490    1.568596
     58          1           0      -22.650415   -3.649518   -0.205803
     59          1           0      -23.976493   -3.138639    0.639944
     60          1           0      -25.518447   -1.486143    1.286360
     61          1           0      -25.698947   -1.039837    2.998466
     62          1           0      -24.615167   -2.416675    2.497825
     63          1           0      -20.519622    3.616482    3.592195
     64          1           0      -19.102047    5.344015    1.468335
     65          1           0      -22.096414    4.204130    1.174628
     66          1           0      -21.290053    5.676840    1.897922
     67          1           0      -22.315902    4.579867    2.829385
     68          1           0      -17.090732    4.322584    3.234532
     69          1           0      -18.454277    4.742929    4.187773
     70          1           0      -17.714734    6.862251    4.025546
     71          1           0      -18.140271    6.846500    2.329270
     72          1           0      -16.560565    6.243259    2.723742
     73          1           0      -14.741789    4.903654   -0.911551
     74          1           0      -13.858498    3.861409   -1.852789
     75          1           0      -13.503674    3.936981   -0.030382
     76          1           0      -13.584451   -1.153549   -1.159541
     77          1           0      -12.698899   -3.262756   -4.780971
     78          1           0      -14.508025   -3.582947   -4.782459
     79          1           0      -13.415344   -4.604082   -3.944088
     80         12           0       18.974174   -0.258763   -0.111448
     81          6           0       15.436028   -0.680733   -0.282195
     82          6           0       18.530643    2.473927   -1.941113
     83          6           0       22.055703    0.782332    0.806049
     84          6           0       18.867709   -2.618935    2.556595
     85          7           0       17.269834    0.670856   -1.072010
     86          6           0       15.907962    0.299956   -1.099388
     87          6           0       15.026451    1.264241   -1.954049
     88          6           0       16.101078    2.239080   -2.513395
     89          6           0       17.413045    1.725588   -1.883293
     90          6           0       16.002917    2.202644   -4.047590
     91          6           0       13.844473    2.030746   -1.217679
     92          6           0       12.425143    1.672905   -1.643091
     93          1           0       11.518616    2.821984   -2.129606
     94          7           0       20.167465    1.304350   -0.557467
     95          6           0       19.774089    2.373169   -1.362540
     96          6           0       20.859160    3.236308   -1.601835
     97          6           0       21.966385    2.722922   -0.951995
     98          6           0       21.470775    1.593645   -0.191420
     99          6           0       20.904765    4.544462   -2.475641
    100          6           0       23.341680    3.339414   -1.055878
    101          8           0       23.620633    4.240790   -1.789269
    102          6           0       24.492147    2.608654   -0.203762
    103          7           0       20.262400   -0.774117    1.498212
    104          6           0       21.504659   -0.213599    1.619355
    105          6           0       22.129389   -0.763897    2.966273
    106          6           0       21.226134   -1.906777    3.458996
    107          6           0       20.017035   -1.764173    2.457827
    108          6           0       23.599670   -1.066329    2.904659
    109          6           0       20.747946   -1.602556    4.873293
    110          6           0       20.310720   -2.768042    5.720322
    111          7           0       17.518661   -1.615634    0.784419
    112          6           0       17.642182   -2.510855    1.820052
    113          6           0       16.422542   -3.207023    2.014820
    114          6           0       15.470389   -2.600464    1.161762
    115          6           0       16.196442   -1.552376    0.528725
    116          6           0       16.128320   -4.241733    3.025544
    117          6           0       14.085317   -2.518379    0.678806
    118          8           0       13.127692   -3.254576    0.951734
    119          6           0       13.990547   -1.287186   -0.301925
    120          6           0       13.776972   -1.766556   -1.641423
    121          8           0       14.708225   -2.287941   -2.299374
    122          8           0       12.474502   -1.579096   -1.931712
    123          6           0       12.016089   -1.808289   -3.329333
    124          1           0       18.427899    3.358861   -2.573162
    125          1           0       23.074497    1.106882    1.028339
    126          1           0       18.804372   -3.435717    3.278160
    127          1           0       14.577314    0.714806   -2.781334
    128          1           0       15.975676    3.266718   -2.173668
    129          1           0       16.860085    2.756063   -4.430023
    130          1           0       15.101572    2.638786   -4.478030
    131          1           0       16.050536    1.187242   -4.442627
    132          1           0       13.954415    3.061263   -1.555456
    133          1           0       13.971223    1.964362   -0.137057
    134          1           0       11.953007    1.167869   -0.799704
    135          1           0       12.468426    0.979624   -2.483824
    136          1           0       21.305778    5.318956   -1.821526
    137          1           0       19.913883    4.839800   -2.820299
    138          1           0       21.441298    4.466637   -3.421214
    139          1           0       25.421825    3.102853   -0.484252
    140          1           0       24.409864    1.570198   -0.525484
    141          1           0       24.156957    2.782637    0.818680
    142          1           0       22.032194    0.083069    3.646381
    143          1           0       21.654179   -2.909160    3.455587
    144          1           0       23.812795   -1.869743    3.609258
    145          1           0       24.105376   -0.139971    3.177826
    146          1           0       23.976099   -1.273482    1.903596
    147          1           0       19.941841   -0.868941    4.904054
    148          1           0       21.497923   -1.065772    5.454203
    149          1           0       20.571992   -3.731889    5.283852
    150          1           0       19.227014   -2.713226    5.825641
    151          1           0       20.643839   -2.642727    6.750532
    152          1           0       17.021314   -4.805583    3.297094
    153          1           0       15.389744   -4.897178    2.563389
    154          1           0       15.776776   -3.696929    3.902033
    155          1           0       13.291089   -0.510166    0.006490
    156          1           0       11.009216   -2.182379   -3.138303
    157          1           0       12.645952   -2.492927   -3.896588
    158          1           0       11.808015   -0.867958   -3.840921
 ---------------------------------------------------------------------

 SCF Done:  E(RPBE1PBE) =  -4067.37802077     A.U. after   16 cycles

 Excitation energies and oscillator strengths:

 Excited State   1:      Singlet-A      1.8022 eV  687.95 nm  f=0.3748  <S**2>=0.000
     309 -> 316       -0.16348
     312 -> 313        0.69743
     312 <- 313       -0.11963
 This state for optimization and/or second-order correction.
 Total Energy, E(TD-HF/TD-DFT) =  -4067.31178987
 Copying the excited state density for this state as the 1-particle RhoCI density.

 Excited State   2:      Singlet-A      1.8689 eV  663.41 nm  f=0.3665  <S**2>=0.000
     310 -> 315        0.16692
     311 -> 314        0.69417
     311 <- 314       -0.10954

 Excited State   3:      Singlet-A      1.9331 eV  641.39 nm  f=0.0000  <S**2>=0.000
     311 -> 313        0.70710

 Excited State   4:      Singlet-A      1.9372 eV  640.03 nm  f=0.0000  <S**2>=0.000
     312 -> 314        0.70710

 Excited State   5:      Singlet-A      2.2176 eV  559.09 nm  f=0.1186  <S**2>=0.000
     309 -> 313        0.65146
     312 -> 316        0.25926

 The electronic state is 1-A.
 Alpha  occ. eigenvalues --  -46.91929 -46.90560 -19.27142 -19.25771 -19.19918
 Alpha  occ. eigenvalues --  -19.19717 -19.19430 -19.19130 -19.18973 -19.18719
 Alpha  occ. eigenvalues --  -14.42284 -14.41956 -14.41764 -14.41296 -14.39129
 Alpha  occ. eigenvalues --  -14.39083 -14.38490 -14.38234 -10.36494 -10.35574
 Alpha  occ. eigenvalues --  -10.32689 -10.32497 -10.32334 -10.32262 -10.30047
 Alpha  occ. eigenvalues --  -10.29470 -10.29270 -10.29235 -10.29112 -10.28665
 Alpha  occ. eigenvalues --  -10.28487 -10.28453 -10.28432 -10.28241 -10.27960
 Alpha  occ. eigenvalues --  -10.27727 -10.27554 -10.27026 -10.26860 -10.26674
 Alpha  occ. eigenvalues --  -10.26671 -10.26512 -10.26497 -10.26321 -10.26158
 Alpha  occ. eigenvalues --  -10.26078 -10.26002 -10.25918 -10.25860 -10.25848
 Alpha  occ. eigenvalues --  -10.25657 -10.25630 -10.25616 -10.25480 -10.25479
 Alpha  occ. eigenvalues --  -10.25458 -10.25385 -10.25360 -10.25352 -10.25214
 Alpha  occ. eigenvalues --  -10.25067 -10.25062 -10.25027 -10.25019 -10.24709
 Alpha  occ. eigenvalues --  -10.24563 -10.24533 -10.24335 -10.24300 -10.23825
 Alpha  occ. eigenvalues --  -10.23645 -10.23579 -10.23543 -10.23430 -10.23429
 Alpha  occ. eigenvalues --  -10.23269 -10.23258 -10.23223 -10.23100 -10.23027
 Alpha  occ. eigenvalues --  -10.23000 -10.22992 -10.22981 -10.22821 -10.22645
 Alpha  occ. eigenvalues --  -10.22561  -3.14101  -3.12989  -1.86917  -1.86455
 Alpha  occ. eigenvalues --   -1.86350  -1.85824  -1.85344  -1.85260  -1.12074
 Alpha  occ. eigenvalues --   -1.11404  -1.06595  -1.04870  -1.03535  -1.02183
 Alpha  occ. eigenvalues --   -1.02082  -1.02072  -0.99093  -0.98666  -0.98230
 Alpha  occ. eigenvalues --   -0.97859  -0.97471  -0.97344  -0.96368  -0.96041
 Alpha  occ. eigenvalues --   -0.87726  -0.86617  -0.84015  -0.83962  -0.83550
 Alpha  occ. eigenvalues --   -0.83095  -0.82963  -0.82826  -0.82019  -0.81633
 Alpha  occ. eigenvalues --   -0.81524  -0.81014  -0.80820  -0.80709  -0.79037
 Alpha  occ. eigenvalues --   -0.78654  -0.78562  -0.78073  -0.77517  -0.76751
 Alpha  occ. eigenvalues --   -0.76145  -0.75878  -0.75487  -0.75384  -0.74750
 Alpha  occ. eigenvalues --   -0.74504  -0.72599  -0.72104  -0.72080  -0.71640
 Alpha  occ. eigenvalues --   -0.71637  -0.70896  -0.70834  -0.70555  -0.69585
 Alpha  occ. eigenvalues --   -0.69427  -0.67334  -0.67251  -0.66288  -0.66159
 Alpha  occ. eigenvalues --   -0.63531  -0.63498  -0.63048  -0.63021  -0.62569
 Alpha  occ. eigenvalues --   -0.62209  -0.61609  -0.61103  -0.60269  -0.60058
 Alpha  occ. eigenvalues --   -0.59991  -0.59785  -0.59505  -0.59314  -0.59138
 Alpha  occ. eigenvalues --   -0.58671  -0.56893  -0.56836  -0.54873  -0.54637
 Alpha  occ. eigenvalues --   -0.54438  -0.54213  -0.53892  -0.53539  -0.53016
 Alpha  occ. eigenvalues --   -0.52994  -0.52812  -0.52532  -0.52306  -0.51814
 Alpha  occ. eigenvalues --   -0.50926  -0.50677  -0.50549  -0.49863  -0.49737
 Alpha  occ. eigenvalues --   -0.49575  -0.49567  -0.49267  -0.48881  -0.48512
 Alpha  occ. eigenvalues --   -0.48421  -0.47955  -0.47743  -0.47603  -0.47471
 Alpha  occ. eigenvalues --   -0.47432  -0.47086  -0.46921  -0.46890  -0.46734
 Alpha  occ. eigenvalues --   -0.46666  -0.46598  -0.46240  -0.46089  -0.45887
 Alpha  occ. eigenvalues --   -0.45830  -0.45735  -0.45175  -0.45032  -0.44977
 Alpha  occ. eigenvalues --   -0.44800  -0.44644  -0.44472  -0.44419  -0.44343
 Alpha  occ. eigenvalues --   -0.44233  -0.43743  -0.43579  -0.43558  -0.43459
 Alpha  occ. eigenvalues --   -0.43071  -0.43059  -0.42933  -0.42843  -0.42686
 Alpha  occ. eigenvalues --   -0.42677  -0.42370  -0.42199  -0.41995  -0.41987
 Alpha  occ. eigenvalues --   -0.41825  -0.41652  -0.41391  -0.41329  -0.41105
 Alpha  occ. eigenvalues --   -0.41043  -0.40993  -0.40766  -0.40672  -0.40301
 Alpha  occ. eigenvalues --   -0.40031  -0.39976  -0.39890  -0.39733  -0.39553
 Alpha  occ. eigenvalues --   -0.39552  -0.39487  -0.39354  -0.39085  -0.38871
 Alpha  occ. eigenvalues --   -0.38856  -0.38700  -0.38391  -0.38377  -0.38302
 Alpha  occ. eigenvalues --   -0.38111  -0.38107  -0.37989  -0.37888  -0.37650
 Alpha  occ. eigenvalues --   -0.37359  -0.37233  -0.37150  -0.37138  -0.36803
 Alpha  occ. eigenvalues --   -0.36796  -0.36774  -0.36576  -0.36508  -0.36265
 Alpha  occ. eigenvalues --   -0.35909  -0.35732  -0.35514  -0.35331  -0.35282
 Alpha  occ. eigenvalues --   -0.35259  -0.35185  -0.35081  -0.34959  -0.34064
 Alpha  occ. eigenvalues --   -0.33369  -0.33230  -0.33159  -0.32980  -0.32646
 Alpha  occ. eigenvalues --   -0.32604  -0.32233  -0.32186  -0.32044  -0.31753
 Alpha  occ. eigenvalues --   -0.31591  -0.31047  -0.29823  -0.29406  -0.29393
 Alpha  occ. eigenvalues --   -0.29091  -0.28571  -0.28418  -0.27376  -0.26995
 Alpha  occ. eigenvalues --   -0.26138  -0.25936  -0.25761  -0.25518  -0.25505
 Alpha  occ. eigenvalues --   -0.25430  -0.25191  -0.24737  -0.21192  -0.21157
 Alpha  occ. eigenvalues --   -0.18861  -0.18698
 Alpha virt. eigenvalues --   -0.11399  -0.11222  -0.05237  -0.05128  -0.04083
 Alpha virt. eigenvalues --   -0.03700  -0.02130  -0.01667  -0.00505   0.00024
 Alpha virt. eigenvalues --    0.00119   0.00581   0.00850   0.01200   0.01254

 Mulliken charges:
               1
     1  Mg  12.004205
     2  C    5.978484
     3  C    5.999503
     4  C    6.030779
     5  C    6.015380
     6  N    6.985576
     7  C    6.031831
     8  C    5.988327
     9  C    6.009514
    10  C    5.968287
    11  C    6.004472
    12  C    5.997423
    13  C    5.999928
    14  H    1.005821
    15  N    7.003181
    16  C    5.962186
    17  C    5.986151
    18  C    5.978985
    19  C    5.970113
    20  C    6.003702
    21  C    5.986589
    22  O    7.962222
    23  C    6.004995
    24  N    7.020046
    25  C    5.967177
    26  C    6.009276
    27  C    5.988512
    28  C    6.018169
    29  C    5.999778
    30  C    5.993658
    31  C    5.999727
    32  N    6.997339
    33  C    6.019164
    34  C    6.035154
    35  C    6.000859
    36  C    6.029325
    37  C    5.997049
    38  C    6.013808
    39  O    8.023530
    40  C    6.003446
    41  C    6.003318
    42  O    8.002121
    43  O    8.001887
    44  C    5.998556
    45  H    0.985366
    46  H    1.001356
    47  H    1.014861
    48  H    0.999121
    49  H    0.996551
    50  H    0.985104
    51  H    1.000582
    52  H    0.996760
    53  H    1.011085
    54  H    0.992751
    55  H    1.002256
    56  H    0.995673
    57  H    0.981813
    58  H    0.987195
    59  H    0.986305
    60  H    0.989938
    61  H    0.985642
    62  H    0.993075
    63  H    1.003738
    64  H    1.004105
    65  H    1.004986
    66  H    0.992578
    67  H    1.005167
    68  H    0.998211
    69  H    1.012447
    70  H    1.007141
    71  H    1.003914
    72  H    0.995994
    73  H    1.016540
    74  H    1.015360
    75  H    1.021173
    76  H    1.003507
    77  H    1.000419
    78  H    1.005004
    79  H    1.004730
    80  Mg  12.000032
    81  C    5.999938
    82  C    5.999862
    83  C    6.000149
    84  C    6.000234
    85  N    7.000032
    86  C    5.999975
    87  C    6.000034
    88  C    5.999925
    89  C    6.000185
    90  C    5.999994
    91  C    6.000031
    92  C    6.000143
    93  H    0.999648
    94  N    6.999986
    95  C    6.000196
    96  C    6.000060
    97  C    6.000127
    98  C    6.000062
    99  C    6.000016
   100  C    6.000065
   101  O    8.000125
   102  C    6.000037
   103  N    7.000043
   104  C    6.000049
   105  C    5.999985
   106  C    6.000043
   107  C    5.999771
   108  C    5.999977
   109  C    6.000002
   110  C    5.999993
   111  N    7.000018
   112  C    5.999784
   113  C    5.999888
   114  C    5.999951
   115  C    5.999863
   116  C    5.999979
   117  C    5.999856
   118  O    7.999797
   119  C    5.999945
   120  C    6.000004
   121  O    8.000037
   122  O    7.999927
   123  C    6.000070
   124  H    1.000025
   125  H    1.000099
   126  H    1.000023
   127  H    0.999948
   128  H    0.999969
   129  H    1.000023
   130  H    0.999935
   131  H    1.000065
   132  H    0.999917
   133  H    1.000010
   134  H    0.999948
   135  H    1.000019
   136  H    1.000084
   137  H    1.000027
   138  H    1.000119
   139  H    1.000130
   140  H    1.000054
   141  H    1.000033
   142  H    1.000025
   143  H    1.000068
   144  H    1.000113
   145  H    1.000021
   146  H    1.000036
   147  H    0.999955
   148  H    1.000014
   149  H    1.000045
   150  H    0.999986
   151  H    1.000041
   152  H    1.000004
   153  H    0.999942
   154  H    0.999897
   155  H    0.999833
   156  H    0.999847
   157  H    1.000051
   158  H    0.999861
 Sum of Mulliken charges = 624.00000

 Dipole moment (field-independent basis, Debye):
    X=              8.7046    Y=              5.5303    Z=             -1.8255  Tot=             10.4731
 Quadrupole moment (field-independent basis, Debye-Ang):
   XX=           -323.5482   YY=              7.1811   ZZ=              0.5861
   XY=            -99.3657   XZ=             35.7052   YZ=              1.3865

 Normal termination of Gaussian 16 at Fri Oct 15 02:17:55 2021.
