 Gaussian 16, Revision A.03,
 Gaussian 16:  ES64L-G16RevA.03 25-Dec-2016

 --------------------------------------------------------
 #p PBE1PBE/Def2SVP td=(nstates=5) density=(transition=1)
 --------------------------------------------------------

 --------------------------------
 TDDFT excited states in gaussian
 --------------------------------
 Symbolic Z-matrix:
 Charge =  0 Multiplicity = 1

                         Standard orientation:
 ---------------------------------------------------------------------
 Center     Atomic      Atomic             Coordinates (Angstroms)
 Number     Number       Type             X           Y           Z
 ---------------------------------------------------------------------
      1         12           0      -20.511780   -0.520805    0.188885
      2          6           0      -19.677320    2.510753   -1.418460
      3          6           0      -20.601498    1.106645    3.192469
      4          6           0      -20.611842   -3.471409    1.656540
      5          6           0      -19.910159   -2.171309   -2.893280
      6          7           0      -20.282460    1.612053    0.767894
      7          6           0      -19.970413    2.608183   -0.037415
      8          6           0      -20.248754    3.911920    0.688666
      9          6           0      -20.104721    3.515164    2.208407
     10          6           0      -20.334845    1.962974    2.082200
     11          6           0      -18.728141    4.001661    2.801787
     12          6           0      -21.684183    4.439270    0.433887
     13          6           0      -21.908379    5.991132    0.708415
     14          1           0      -20.784528    6.892882    1.226069
     15          7           0      -20.797386   -1.083380    2.095353
     16          6           0      -20.891555   -0.268361    3.252509
     17          6           0      -21.188194   -1.142423    4.411445
     18          6           0      -21.106267   -2.508660    3.960322
     19          6           0      -20.829869   -2.449767    2.508519
     20          6           0      -21.503541   -0.633602    5.773711
     21          6           0      -21.286450   -3.893829    4.695006
     22          8           0      -21.271540   -4.991342    4.121186
     23          6           0      -21.342593   -3.900565    6.195186
     24          7           0      -20.176092   -2.568615   -0.505704
     25          6           0      -20.327614   -3.601105    0.280528
     26          6           0      -20.190670   -4.941140   -0.386302
     27          6           0      -19.950577   -4.538223   -1.883740
     28          6           0      -20.108136   -2.986719   -1.799081
     29          6           0      -19.154249   -5.823377    0.315836
     30          6           0      -20.941603   -5.139290   -2.872542
     31          6           0      -20.358769   -5.625557   -4.247700
     32          7           0      -19.975955   -0.002996   -1.849111
     33          6           0      -19.813828   -0.798783   -3.000107
     34          6           0      -19.654262    0.055615   -4.126204
     35          6           0      -19.413342    1.352411   -3.570259
     36          6           0      -19.664987    1.273793   -2.223942
     37          6           0      -19.770201   -0.359600   -5.564814
     38          6           0      -19.181358    2.800482   -3.788697
     39          8           0      -18.963029    3.409407   -4.815343
     40          6           0      -19.098502    3.504511   -2.351595
     41          6           0      -19.580409    4.916336   -2.426506
     42          8           0      -20.675090    5.282213   -2.738718
     43          8           0      -18.537738    5.826990   -2.172738
     44          6           0      -18.620780    7.134738   -2.857097
     45          1           0      -20.456972    1.512645    4.196255
     46          1           0      -20.772171   -4.489066    2.016973
     47          1           0      -19.806407   -2.705420   -3.840150
     48          1           0      -19.555890    4.605779    0.212757
     49          1           0      -20.901088    3.949645    2.813600
     50          1           0      -18.141762    4.502962    2.032478
     51          1           0      -18.190693    3.071342    2.985649
     52          1           0      -18.810954    4.698979    3.635542
     53          1           0      -22.303756    3.870246    1.128230
     54          1           0      -21.944099    4.174682   -0.591008
     55          1           0      -22.746258    6.023778    1.406492
     56          1           0      -22.286720    6.385120   -0.235154
     57          1           0      -21.692318    0.430219    5.913186
     58          1           0      -20.695028   -0.816124    6.481037
     59          1           0      -22.422868   -1.157487    6.036591
     60          1           0      -22.342814   -3.755933    6.603247
     61          1           0      -20.653113   -3.080141    6.398002
     62          1           0      -20.898785   -4.845975    6.505964
     63          1           0      -21.190135   -5.355772   -0.255600
     64          1           0      -18.956616   -4.785443   -2.254567
     65          1           0      -18.393149   -5.263339    0.860018
     66          1           0      -18.641144   -6.351406   -0.486941
     67          1           0      -19.605489   -6.529442    1.013289
     68          1           0      -21.732020   -4.429764   -3.116729
     69          1           0      -21.481817   -5.879395   -2.282383
     70          1           0      -19.315197   -5.333825   -4.364570
     71          1           0      -20.953288   -5.097982   -4.993271
     72          1           0      -20.415104   -6.685459   -4.497934
     73          1           0      -19.142546   -1.246864   -5.649344
     74          1           0      -19.416291    0.381668   -6.281546
     75          1           0      -20.793235   -0.669640   -5.780203
     76          1           0      -18.048970    3.663740   -2.106223
     77          1           0      -18.735759    7.903184   -2.092510
     78          1           0      -19.436795    7.173590   -3.579539
     79          1           0      -17.665843    7.247887   -3.370252
     80         12           0       19.733564   -0.731876    0.012884
     81          6           0       21.707674    2.290472    0.289793
     82          6           0       17.686504    0.667630    2.083707
     83          6           0       18.231022   -3.660182   -0.160137
     84          6           0       22.521239   -2.395618   -1.621275
     85          7           0       19.671306    1.353480    0.974757
     86          6           0       20.539380    2.425484    0.985008
     87          6           0       20.018436    3.503693    1.865324
     88          6           0       19.009553    2.766509    2.783115
     89          6           0       18.786948    1.489852    1.938373
     90          6           0       19.561045    2.411440    4.181356
     91          6           0       19.254736    4.558719    1.008228
     92          6           0       19.536268    6.074300    1.344917
     93          1           0       19.208937    7.194969    0.279561
     94          7           0       18.058375   -1.383353    0.872718
     95          6           0       17.270196   -0.648096    1.610864
     96          6           0       16.081226   -1.422415    1.913289
     97          6           0       16.228030   -2.602727    1.147131
     98          6           0       17.559742   -2.585479    0.605375
     99          6           0       14.934766   -0.819957    2.745562
    100          6           0       15.208939   -3.696901    0.991431
    101          8           0       15.461967   -4.665532    0.339438
    102          6           0       13.845848   -3.512016    1.574254
    103          7           0       20.479804   -2.862461   -0.568882
    104          6           0       19.521561   -3.782881   -0.653920
    105          6           0       19.946655   -4.958958   -1.450311
    106          6           0       21.435202   -4.587988   -1.741884
    107          6           0       21.542932   -3.158242   -1.281510
    108          6           0       19.700972   -6.386864   -0.842879
    109          6           0       21.790097   -4.810941   -3.263803
    110          6           0       22.667748   -6.024013   -3.680483
    111          7           0       21.634320   -0.269958   -0.553642
    112          6           0       22.637118   -0.966859   -1.264118
    113          6           0       23.789141   -0.070536   -1.493255
    114          6           0       23.438991    1.150271   -0.932132
    115          6           0       22.193165    1.008198   -0.344908
    116          6           0       25.149579   -0.501535   -2.092866
    117          6           0       23.963326    2.538558   -0.725489
    118          8           0       24.969085    3.113922   -1.068370
    119          6           0       22.919260    3.295967    0.238357
    120          6           0       22.655036    4.615326   -0.205361
    121          8           0       21.708051    4.878198   -0.959788
    122          8           0       23.538266    5.606087    0.212128
    123          6           0       23.200277    7.037456   -0.056962
    124          1           0       16.894875    1.037996    2.737438
    125          1           0       17.706361   -4.611075   -0.273251
    126          1           0       23.363629   -2.877826   -2.119585
    127          1           0       20.815600    3.873379    2.510805
    128          1           0       18.071128    3.281770    2.987041
    129          1           0       18.966530    2.891135    4.959450
    130          1           0       20.587718    2.774571    4.217619
    131          1           0       19.615233    1.342844    4.391255
    132          1           0       18.200428    4.355513    1.196853
    133          1           0       19.476022    4.312400   -0.030063
    134          1           0       20.579716    6.154493    1.648481
    135          1           0       18.905433    6.233393    2.220276
    136          1           0       14.058648   -0.722381    2.103158
    137          1           0       15.152928    0.121987    3.247628
    138          1           0       14.586832   -1.543223    3.482523
    139          1           0       13.315398   -2.667792    1.134571
    140          1           0       13.794918   -3.239620    2.628382
    141          1           0       13.242803   -4.388651    1.336403
    142          1           0       19.402038   -4.929686   -2.394055
    143          1           0       22.083278   -5.143518   -1.063685
    144          1           0       19.124493   -6.233746    0.068849
    145          1           0       20.572132   -7.027056   -0.699427
    146          1           0       19.110718   -6.964127   -1.554746
    147          1           0       22.338827   -3.942060   -3.628201
    148          1           0       20.845296   -4.667703   -3.788132
    149          1           0       22.225543   -6.521256   -4.543639
    150          1           0       22.762444   -6.709770   -2.838366
    151          1           0       23.662165   -5.693215   -3.982558
    152          1           0       24.955649   -1.291603   -2.817778
    153          1           0       25.750049   -0.969965   -1.312706
    154          1           0       25.673788    0.331489   -2.561816
    155          1           0       23.355330    3.334951    1.236135
    156          1           0       22.286840    7.329415    0.463124
    157          1           0       23.293670    7.278549   -1.115174
    158          1           0       23.912040    7.633574    0.513983
 ---------------------------------------------------------------------

 SCF Done:  E(RPBE1PBE) =  -4067.33432511     A.U. after   17 cycles

 Excitation energies and oscillator strengths:

 Excited State   1:      Singlet-A      1.8894 eV  656.20 nm  f=0.3563  <S**2>=0.000
     309 -> 315       -0.18735
     312 -> 314        0.68564
 This state for optimization and/or second-order correction.
 Total Energy, E(TD-HF/TD-DFT) =  -4067.26489019
 Copying the excited state density for this state as the 1-particle RhoCI density.

 Excited State   2:      Singlet-A      1.9445 eV  637.60 nm  f=0.0000  <S**2>=0.000
     312 -> 313        0.70711

 Excited State   3:      Singlet-A      2.1077 eV  588.25 nm  f=0.0000  <S**2>=0.000
     311 -> 314        0.70711

 Excited State   4:      Singlet-A      2.1350 eV  580.72 nm  f=0.0934  <S**2>=0.000
     309 -> 314        0.65946
     312 -> 315        0.23138

 Excited State   5:      Singlet-A      2.4057 eV  515.38 nm  f=0.0000  <S**2>=0.000
     309 -> 313        0.70711

 The electronic state is 1-A.
 Alpha  occ. eigenvalues --  -46.92839 -46.91956 -19.24667 -19.24087 -19.20215
 Alpha  occ. eigenvalues --  -19.20077 -19.19902 -19.19236 -19.18934 -19.18797
 Alpha  occ. eigenvalues --  -14.41500 -14.41193 -14.41156 -14.39741 -14.39690
 Alpha  occ. eigenvalues --  -14.39330 -14.39237 -14.37934 -10.35715 -10.35522
 Alpha  occ. eigenvalues --  -10.33646 -10.33336 -10.32303 -10.32027 -10.29674
 Alpha  occ. eigenvalues --  -10.28892 -10.28824 -10.28512 -10.28511 -10.28225
 Alpha  occ. eigenvalues --  -10.28198 -10.28066 -10.28022 -10.28009 -10.27944
 Alpha  occ. eigenvalues --  -10.27929 -10.27872 -10.27797 -10.27523 -10.27468
 Alpha  occ. eigenvalues --  -10.26661 -10.26646 -10.26524 -10.26478 -10.26295
 Alpha  occ. eigenvalues --  -10.25991 -10.25970 -10.25959 -10.25949 -10.25878
 Alpha  occ. eigenvalues --  -10.25824 -10.25801 -10.25758 -10.25559 -10.25553
 Alpha  occ. eigenvalues --  -10.25467 -10.25449 -10.25414 -10.25343 -10.25202
 Alpha  occ. eigenvalues --  -10.25124 -10.24685 -10.24610 -10.24608 -10.24527
 Alpha  occ. eigenvalues --  -10.24438 -10.23959 -10.23935 -10.23932 -10.23850
 Alpha  occ. eigenvalues --  -10.23717 -10.23713 -10.23689 -10.23661 -10.23499
 Alpha  occ. eigenvalues --  -10.23479 -10.23415 -10.23414 -10.23349 -10.23280
 Alpha  occ. eigenvalues --  -10.23263 -10.23179 -10.23142 -10.23016 -10.22897
 Alpha  occ. eigenvalues --  -10.22604  -3.14942  -3.14000  -1.87768  -1.87322
 Alpha  occ. eigenvalues --   -1.87167  -1.86853  -1.86373  -1.86220  -1.10089
 Alpha  occ. eigenvalues --   -1.08962  -1.06708  -1.05818  -1.04900  -1.04622
 Alpha  occ. eigenvalues --   -1.01984  -1.00907  -1.00499  -0.99726  -0.99621
 Alpha  occ. eigenvalues --   -0.99483  -0.99150  -0.96701  -0.95932  -0.95315
 Alpha  occ. eigenvalues --   -0.86388  -0.85712  -0.83593  -0.83549  -0.83250
 Alpha  occ. eigenvalues --   -0.83123  -0.82301  -0.82019  -0.81977  -0.81787
 Alpha  occ. eigenvalues --   -0.81637  -0.81513  -0.80091  -0.79735  -0.78664
 Alpha  occ. eigenvalues --   -0.78211  -0.78144  -0.77396  -0.76818  -0.76332
 Alpha  occ. eigenvalues --   -0.76062  -0.75954  -0.75324  -0.75088  -0.74724
 Alpha  occ. eigenvalues --   -0.74249  -0.72942  -0.72750  -0.71539  -0.71460
 Alpha  occ. eigenvalues --   -0.71078  -0.70830  -0.70518  -0.69798  -0.69746
 Alpha  occ. eigenvalues --   -0.69446  -0.67372  -0.67044  -0.66181  -0.65541
 Alpha  occ. eigenvalues --   -0.64237  -0.63524  -0.63222  -0.63022  -0.62408
 Alpha  occ. eigenvalues --   -0.61794  -0.61694  -0.60997  -0.60489  -0.60449
 Alpha  occ. eigenvalues --   -0.60079  -0.59621  -0.59609  -0.59086  -0.58831
 Alpha  occ. eigenvalues --   -0.58090  -0.55892  -0.55764  -0.55648  -0.54694
 Alpha  occ. eigenvalues --   -0.54545  -0.53788  -0.53666  -0.53136  -0.52701
 Alpha  occ. eigenvalues --   -0.52571  -0.52237  -0.52207  -0.51803  -0.51531
 Alpha  occ. eigenvalues --   -0.51063  -0.50953  -0.50336  -0.50129  -0.50076
 Alpha  occ. eigenvalues --   -0.49773  -0.48803  -0.48570  -0.48447  -0.47946
 Alpha  occ. eigenvalues --   -0.47806  -0.47769  -0.47694  -0.47412  -0.47372
 Alpha  occ. eigenvalues --   -0.47112  -0.47011  -0.46810  -0.46664  -0.46653
 Alpha  occ. eigenvalues --   -0.46362  -0.46345  -0.45979  -0.45967  -0.45750
 Alpha  occ. eigenvalues --   -0.45384  -0.45075  -0.44966  -0.44929  -0.44876
 Alpha  occ. eigenvalues --   -0.44635  -0.44547  -0.44457  -0.44297  -0.44054
 Alpha  occ. eigenvalues --   -0.44041  -0.43861  -0.43748  -0.43547  -0.43391
 Alpha  occ. eigenvalues --   -0.43006  -0.43004  -0.42981  -0.42705  -0.42504
 Alpha  occ. eigenvalues --   -0.42498  -0.42379  -0.42237  -0.42195  -0.42122
 Alpha  occ. eigenvalues --   -0.41983  -0.41793  -0.41143  -0.41104  -0.41075
 Alpha  occ. eigenvalues --   -0.40955  -0.40942  -0.40605  -0.40414  -0.40385
 Alpha  occ. eigenvalues --   -0.40334  -0.40238  -0.39888  -0.39784  -0.39681
 Alpha  occ. eigenvalues --   -0.39627  -0.39398  -0.39161  -0.39084  -0.38803
 Alpha  occ. eigenvalues --   -0.38687  -0.38561  -0.38270  -0.38186  -0.38062
 Alpha  occ. eigenvalues --   -0.37993  -0.37952  -0.37670  -0.37552  -0.37427
 Alpha  occ. eigenvalues --   -0.37325  -0.37162  -0.37011  -0.36890  -0.36741
 Alpha  occ. eigenvalues --   -0.36605  -0.36473  -0.36316  -0.36238  -0.36064
 Alpha  occ. eigenvalues --   -0.35920  -0.35883  -0.35434  -0.35306  -0.35145
 Alpha  occ. eigenvalues --   -0.35113  -0.34934  -0.34851  -0.34778  -0.33993
 Alpha  occ. eigenvalues --   -0.33687  -0.33300  -0.32781  -0.32664  -0.32558
 Alpha  occ. eigenvalues --   -0.32067  -0.31554  -0.31489  -0.31190  -0.30849
 Alpha  occ. eigenvalues --   -0.30698  -0.30435  -0.29419  -0.29056  -0.28805
 Alpha  occ. eigenvalues --   -0.28467  -0.28358  -0.27714  -0.27252  -0.26687
 Alpha  occ. eigenvalues --   -0.26583  -0.26393  -0.26147  -0.26027  -0.25796
 Alpha  occ. eigenvalues --   -0.25506  -0.25377  -0.24284  -0.20610  -0.20537
 Alpha  occ. eigenvalues --   -0.19129  -0.18915
 Alpha virt. eigenvalues --   -0.11437  -0.11061  -0.05528  -0.04214  -0.04035
 Alpha virt. eigenvalues --   -0.03330  -0.01811  -0.01783  -0.00483  -0.00061
 Alpha virt. eigenvalues --   -0.00041   0.00232   0.01025   0.01304   0.02197

 Mulliken charges:
               1
     1  Mg  11.996265
     2  C    6.014937
     3  C    5.983772
     4  C    5.993580
     5  C    6.013443
     6  N    7.003345
     7  C    5.970601
     8  C    6.004262
     9  C    5.989498
    10  C    6.032842
    11  C    6.000602
    12  C    6.003364
    13  C    6.000024
    14  H    0.996239
    15  N    6.995276
    16  C    6.036142
    17  C    6.020900
    18  C    6.017501
    19  C    6.018735
    20  C    5.995506
    21  C    6.014530
    22  O    8.027672
    23  C    5.997339
    24  N    7.003973
    25  C    6.025943
    26  C    5.994520
    27  C    6.008872
    28  C    5.967291
    29  C    5.994910
    30  C    6.005500
    31  C    6.000014
    32  N    6.999835
    33  C    5.967485
    34  C    5.970358
    35  C    5.995333
    36  C    5.976402
    37  C    5.999536
    38  C    5.985591
    39  O    7.972679
    40  C    5.997172
    41  C    5.994581
    42  O    7.994848
    43  O    7.997630
    44  C    6.001260
    45  H    1.004915
    46  H    1.007186
    47  H    0.992633
    48  H    1.005445
    49  H    1.001618
    50  H    1.011230
    51  H    0.997904
    52  H    1.002097
    53  H    0.987727
    54  H    1.006711
    55  H    0.995286
    56  H    1.002493
    57  H    1.017706
    58  H    1.019031
    59  H    1.014788
    60  H    1.010323
    61  H    1.002128
    62  H    1.013209
    63  H    0.996921
    64  H    0.996724
    65  H    0.998800
    66  H    1.011053
    67  H    0.996979
    68  H    1.000583
    69  H    0.989155
    70  H    1.001703
    71  H    1.002744
    72  H    0.994692
    73  H    0.983643
    74  H    0.986536
    75  H    0.981131
    76  H    0.995551
    77  H    0.994111
    78  H    0.999315
    79  H    0.997825
    80  Mg  12.000057
    81  C    5.999847
    82  C    5.999978
    83  C    6.000115
    84  C    5.999990
    85  N    6.999864
    86  C    6.000267
    87  C    5.999948
    88  C    6.000078
    89  C    5.999764
    90  C    6.000054
    91  C    5.999958
    92  C    5.999975
    93  H    1.000075
    94  N    7.000072
    95  C    5.999724
    96  C    5.999764
    97  C    5.999925
    98  C    5.999710
    99  C    6.000052
   100  C    5.999843
   101  O    7.999794
   102  C    6.000055
   103  N    6.999999
   104  C    5.999725
   105  C    6.000116
   106  C    5.999896
   107  C    6.000167
   108  C    6.000001
   109  C    5.999974
   110  C    6.000005
   111  N    7.000051
   112  C    6.000332
   113  C    6.000321
   114  C    5.999976
   115  C    6.000296
   116  C    5.999984
   117  C    6.000195
   118  O    8.000220
   119  C    6.000006
   120  C    6.000043
   121  O    8.000106
   122  O    7.999988
   123  C    5.999977
   124  H    0.999886
   125  H    0.999941
   126  H    1.000085
   127  H    0.999966
   128  H    0.999992
   129  H    0.999944
   130  H    0.999856
   131  H    0.999995
   132  H    1.000151
   133  H    0.999990
   134  H    0.999947
   135  H    1.000035
   136  H    0.999858
   137  H    0.999821
   138  H    0.999777
   139  H    0.999977
   140  H    0.999889
   141  H    0.999862
   142  H    1.000019
   143  H    1.000006
   144  H    1.000030
   145  H    0.999900
   146  H    1.000001
   147  H    0.999946
   148  H    1.000100
   149  H    1.000062
   150  H    1.000010
   151  H    0.999970
   152  H    1.000181
   153  H    1.000186
   154  H    1.000161
   155  H    1.000052
   156  H    1.000053
   157  H    1.000047
   158  H    1.000021
 Sum of Mulliken charges = 624.00000

 Dipole moment (field-independent basis, Debye):
    X=             -1.5012    Y=             -3.1075    Z=              9.3567  Tot=              9.9728
 Quadrupole moment (field-independent basis, Debye-Ang):
   XX=             68.0104   YY=              1.2558   ZZ=              4.3138
   XY=             64.9854   XZ=           -192.5027   YZ=             -7.2388

 Normal termination of Gaussian 16 at Thu Oct 14 07:26:02 2021.
