 Gaussian 16, Revision A.03,
 Gaussian 16:  ES64L-G16RevA.03 25-Dec-2016

 --------------------------------------------------------
 #p PBE1PBE/Def2SVP td=(nstates=5) density=(transition=1)
 --------------------------------------------------------

 --------------------------------
 TDDFT excited states in gaussian
 --------------------------------
 Symbolic Z-matrix:
 Charge =  0 Multiplicity = 1

                         Standard orientation:
 ---------------------------------------------------------------------
 Center     Atomic      Atomic             Coordinates (Angstroms)
 Number     Number       Type             X           Y           Z
 ---------------------------------------------------------------------
      1         12           0      -20.680769    0.154206    0.129684
      2          6           0      -17.669025    1.422345   -0.824894
      3          6           0      -21.230539   -0.668942   -3.194383
      4          6           0      -23.466979   -1.430694    1.128546
      5          6           0      -19.739556    0.419819    3.510415
      6          7           0      -19.439667    0.130776   -1.754750
      7          6           0      -18.250944    0.758558   -1.855751
      8          6           0      -17.643361    0.614158   -3.203107
      9          6           0      -19.010407    0.258392   -4.061663
     10          6           0      -19.997363   -0.130121   -2.940725
     11          6           0      -19.475076    1.432797   -4.972624
     12          6           0      -16.646064   -0.533498   -3.196210
     13          6           0      -17.125138   -1.982123   -2.719022
     14          1           0      -16.642826   -3.231757   -3.445100
     15          7           0      -22.141463   -0.899548   -0.874044
     16          6           0      -22.272005   -1.017812   -2.280902
     17          6           0      -23.557685   -1.576958   -2.534930
     18          6           0      -24.213826   -1.859326   -1.343253
     19          6           0      -23.327088   -1.372919   -0.272887
     20          6           0      -23.971863   -1.782178   -3.977889
     21          6           0      -25.526611   -2.583695   -1.164055
     22          8           0      -26.088949   -2.959346   -2.222771
     23          6           0      -26.065453   -3.051307    0.068838
     24          7           0      -21.367277   -0.608961    2.060885
     25          6           0      -22.600336   -1.175975    2.196403
     26          6           0      -22.903538   -1.512541    3.676097
     27          6           0      -21.671434   -0.898833    4.422601
     28          6           0      -20.827839   -0.391517    3.265287
     29          6           0      -24.242010   -0.990107    4.152657
     30          6           0      -20.930711   -2.008818    5.342819
     31          6           0      -20.493521   -1.490086    6.717505
     32          7           0      -19.021815    0.803696    1.241235
     33          6           0      -18.844234    1.048101    2.565385
     34          6           0      -17.663731    1.859736    2.685952
     35          6           0      -17.131364    2.106848    1.373316
     36          6           0      -17.993065    1.411449    0.541246
     37          6           0      -16.950120    2.156647    3.960264
     38          6           0      -16.086727    2.655760    0.569903
     39          8           0      -15.148141    3.332697    1.008276
     40          6           0      -16.415794    2.267626   -0.859760
     41          6           0      -16.557923    3.505582   -1.664160
     42          8           0      -15.631692    4.290896   -1.712608
     43          8           0      -17.723638    3.598802   -2.361294
     44          6           0      -17.865616    4.806030   -3.177602
     45          1           0      -21.522352   -0.675944   -4.246533
     46          1           0      -24.474866   -1.730265    1.422711
     47          1           0      -19.460168    0.698996    4.528794
     48          1           0      -17.103902    1.465267   -3.618798
     49          1           0      -18.807942   -0.502823   -4.816219
     50          1           0      -19.510069    1.106565   -6.011428
     51          1           0      -18.715294    2.210911   -4.894676
     52          1           0      -20.431636    1.875988   -4.692690
     53          1           0      -15.770922   -0.190145   -2.644161
     54          1           0      -16.251305   -0.496616   -4.211474
     55          1           0      -18.202631   -2.147289   -2.717138
     56          1           0      -16.688237   -2.037673   -1.722386
     57          1           0      -23.552352   -2.746906   -4.263831
     58          1           0      -23.503451   -1.013751   -4.591608
     59          1           0      -25.042849   -1.765221   -4.182100
     60          1           0      -26.672474   -3.946814   -0.067873
     61          1           0      -26.558109   -2.273297    0.653435
     62          1           0      -25.205848   -3.438192    0.614422
     63          1           0      -22.864782   -2.602295    3.692075
     64          1           0      -21.985980   -0.010256    4.969613
     65          1           0      -24.849909   -0.544161    3.365904
     66          1           0      -24.320621   -0.357988    5.036749
     67          1           0      -24.802929   -1.909219    4.324586
     68          1           0      -20.037169   -2.435236    4.886789
     69          1           0      -21.543581   -2.899028    5.483178
     70          1           0      -21.154166   -1.925026    7.466998
     71          1           0      -20.678580   -0.416185    6.749818
     72          1           0      -19.458655   -1.735940    6.956146
     73          1           0      -17.438552    2.826367    4.667059
     74          1           0      -15.985315    2.564494    3.656394
     75          1           0      -16.773678    1.257567    4.550806
     76          1           0      -15.558968    1.699533   -1.223178
     77          1           0      -17.024834    4.838611   -3.871107
     78          1           0      -17.958636    5.719189   -2.589516
     79          1           0      -18.833757    4.819428   -3.678011
     80         12           0       19.933472   -0.767014   -0.060248
     81          6           0       21.263219    2.358526   -0.151216
     82          6           0       16.803145    0.355876    0.858036
     83          6           0       18.873751   -4.015421    0.159306
     84          6           0       23.258460   -2.093603   -0.585130
     85          7           0       19.208698    1.114072    0.504969
     86          6           0       19.866960    2.336876    0.142577
     87          6           0       18.928813    3.475870    0.190691
     88          6           0       17.667561    2.812710    0.906000
     89          6           0       17.863116    1.318708    0.774445
     90          6           0       17.521249    3.235704    2.452563
     91          6           0       18.717114    4.206160   -1.171086
     92          6           0       18.742698    5.699290   -1.104936
     93          1           0       18.033586    6.351559    0.146699
     94          7           0       18.068285   -1.698724    0.370519
     95          6           0       16.946181   -1.014163    0.731938
     96          6           0       15.907275   -1.967016    0.924243
     97          6           0       16.437603   -3.286342    0.642552
     98          6           0       17.878709   -3.063716    0.285463
     99          6           0       14.511105   -1.566672    1.449074
    100          6           0       15.824562   -4.651546    0.615236
    101          8           0       16.385095   -5.742876    0.464031
    102          6           0       14.254977   -4.682610    0.748893
    103          7           0       20.956875   -2.831984   -0.090238
    104          6           0       20.277926   -3.951995   -0.079522
    105          6           0       21.128493   -5.153005   -0.487869
    106          6           0       22.528216   -4.516332   -0.722002
    107          6           0       22.250072   -3.042655   -0.432312
    108          6           0       21.159493   -6.329097    0.615182
    109          6           0       22.960481   -4.771802   -2.232996
    110          6           0       22.199635   -4.104300   -3.405203
    111          7           0       21.907734   -0.043184   -0.158032
    112          6           0       23.098824   -0.692414   -0.422644
    113          6           0       24.110304    0.363617   -0.631202
    114          6           0       23.503261    1.581445   -0.560949
    115          6           0       22.128819    1.264105   -0.261186
    116          6           0       25.574789    0.108620   -0.731427
    117          6           0       23.663973    3.033028   -0.642092
    118          8           0       24.649750    3.722258   -0.843680
    119          6           0       22.192113    3.571354   -0.364262
    120          6           0       22.246406    4.361794    0.882300
    121          8           0       22.646834    3.998955    2.002110
    122          8           0       21.759977    5.600088    0.515058
    123          6           0       21.539553    6.522849    1.636295
    124          1           0       15.786350    0.673683    1.097378
    125          1           0       18.442010   -5.018675    0.130189
    126          1           0       24.254131   -2.472857   -0.821794
    127          1           0       19.411864    4.193711    0.854825
    128          1           0       16.776742    3.107586    0.352226
    129          1           0       18.133639    4.093415    2.730793
    130          1           0       17.963472    2.422902    3.028494
    131          1           0       16.443710    3.315475    2.590132
    132          1           0       17.753695    3.921417   -1.594084
    133          1           0       19.559282    3.850254   -1.764370
    134          1           0       18.208725    6.171762   -1.928463
    135          1           0       19.676750    6.257811   -1.167325
    136          1           0       13.849005   -1.093228    0.724202
    137          1           0       14.758165   -0.934544    2.301835
    138          1           0       13.897315   -2.424700    1.722371
    139          1           0       13.984129   -4.455714    1.780068
    140          1           0       13.897711   -5.605017    0.291409
    141          1           0       13.747047   -3.971698    0.096871
    142          1           0       20.748178   -5.539435   -1.433156
    143          1           0       23.308274   -4.928380   -0.081759
    144          1           0       20.536763   -7.129263    0.213523
    145          1           0       20.722446   -5.978279    1.550631
    146          1           0       22.102784   -6.815935    0.859449
    147          1           0       23.047070   -5.820501   -2.516844
    148          1           0       23.947932   -4.309215   -2.243750
    149          1           0       22.958123   -3.449128   -3.833850
    150          1           0       21.302821   -3.578587   -3.079809
    151          1           0       21.854322   -4.805892   -4.164527
    152          1           0       25.907090    0.901408   -1.400916
    153          1           0       25.807498   -0.882611   -1.120987
    154          1           0       26.021103    0.419143    0.212381
    155          1           0       22.090807    4.245096   -1.214680
    156          1           0       21.277581    7.447175    1.120607
    157          1           0       22.514281    6.658923    2.104800
    158          1           0       20.865580    6.168911    2.416688
 ---------------------------------------------------------------------

 SCF Done:  E(RPBE1PBE) =  -4067.37155069     A.U. after   16 cycles

 Excitation energies and oscillator strengths:

 Excited State   1:      Singlet-A      1.8281 eV  678.21 nm  f=0.0000  <S**2>=0.000
     312 -> 313        0.70710
 This state for optimization and/or second-order correction.
 Total Energy, E(TD-HF/TD-DFT) =  -4067.30436847
 Copying the excited state density for this state as the 1-particle RhoCI density.

 Excited State   2:      Singlet-A      1.8382 eV  674.48 nm  f=0.3823  <S**2>=0.000
     309 -> 315       -0.17970
     312 -> 314        0.69179
     312 <- 314       -0.10363

 Excited State   3:      Singlet-A      1.8908 eV  655.71 nm  f=0.3725  <S**2>=0.000
     310 -> 316        0.16985
     311 -> 313        0.69193
     311 <- 313       -0.10819

 Excited State   4:      Singlet-A      2.1521 eV  576.11 nm  f=0.0000  <S**2>=0.000
     311 -> 314        0.70710

 Excited State   5:      Singlet-A      2.2081 eV  561.50 nm  f=0.1162  <S**2>=0.000
     310 -> 313        0.66035
     311 -> 316       -0.22032

 The electronic state is 1-A.
 Alpha  occ. eigenvalues --  -46.92622 -46.92503 -19.27088 -19.26338 -19.20536
 Alpha  occ. eigenvalues --  -19.19922 -19.19790 -19.19528 -19.18715 -19.18277
 Alpha  occ. eigenvalues --  -14.41952 -14.41602 -14.41559 -14.41513 -14.39414
 Alpha  occ. eigenvalues --  -14.39206 -14.39064 -14.38413 -10.36585 -10.36550
 Alpha  occ. eigenvalues --  -10.32695 -10.32644 -10.31848 -10.31762 -10.30009
 Alpha  occ. eigenvalues --  -10.29618 -10.29568 -10.29270 -10.29066 -10.28769
 Alpha  occ. eigenvalues --  -10.28711 -10.28492 -10.28358 -10.28092 -10.28056
 Alpha  occ. eigenvalues --  -10.27902 -10.27901 -10.27589 -10.27319 -10.27167
 Alpha  occ. eigenvalues --  -10.26711 -10.26631 -10.26613 -10.26563 -10.26289
 Alpha  occ. eigenvalues --  -10.26287 -10.26279 -10.26246 -10.26177 -10.26132
 Alpha  occ. eigenvalues --  -10.26099 -10.25909 -10.25860 -10.25727 -10.25724
 Alpha  occ. eigenvalues --  -10.25720 -10.25558 -10.25405 -10.25377 -10.25356
 Alpha  occ. eigenvalues --  -10.25157 -10.25063 -10.25010 -10.24950 -10.24938
 Alpha  occ. eigenvalues --  -10.24937 -10.24916 -10.24900 -10.24708 -10.24706
 Alpha  occ. eigenvalues --  -10.24518 -10.24207 -10.24056 -10.24013 -10.23816
 Alpha  occ. eigenvalues --  -10.23706 -10.23686 -10.23322 -10.23109 -10.23107
 Alpha  occ. eigenvalues --  -10.22982 -10.22929 -10.22885 -10.22643 -10.22597
 Alpha  occ. eigenvalues --  -10.22495  -3.14611  -3.14538  -1.87454  -1.87354
 Alpha  occ. eigenvalues --   -1.86975  -1.86931  -1.86834  -1.86743  -1.12244
 Alpha  occ. eigenvalues --   -1.10754  -1.05076  -1.04135  -1.03930  -1.02983
 Alpha  occ. eigenvalues --   -1.02920  -1.02309  -0.99751  -0.99592  -0.99174
 Alpha  occ. eigenvalues --   -0.98577  -0.97583  -0.97419  -0.96300  -0.96009
 Alpha  occ. eigenvalues --   -0.88572  -0.86807  -0.83561  -0.83386  -0.83348
 Alpha  occ. eigenvalues --   -0.83080  -0.83073  -0.82284  -0.82118  -0.81698
 Alpha  occ. eigenvalues --   -0.81237  -0.80549  -0.80381  -0.80209  -0.79425
 Alpha  occ. eigenvalues --   -0.78929  -0.78482  -0.77663  -0.77536  -0.77086
 Alpha  occ. eigenvalues --   -0.76669  -0.75863  -0.75824  -0.75466  -0.75294
 Alpha  occ. eigenvalues --   -0.74112  -0.73011  -0.72326  -0.72278  -0.71659
 Alpha  occ. eigenvalues --   -0.71457  -0.71415  -0.70471  -0.70136  -0.69312
 Alpha  occ. eigenvalues --   -0.69294  -0.67035  -0.66923  -0.66635  -0.66581
 Alpha  occ. eigenvalues --   -0.64456  -0.64170  -0.63660  -0.63634  -0.63266
 Alpha  occ. eigenvalues --   -0.62826  -0.61816  -0.61568  -0.61003  -0.59854
 Alpha  occ. eigenvalues --   -0.59797  -0.59788  -0.59458  -0.59207  -0.58938
 Alpha  occ. eigenvalues --   -0.58927  -0.58439  -0.57109  -0.54815  -0.54812
 Alpha  occ. eigenvalues --   -0.54262  -0.53982  -0.53872  -0.53483  -0.53365
 Alpha  occ. eigenvalues --   -0.53262  -0.53036  -0.52705  -0.52489  -0.52098
 Alpha  occ. eigenvalues --   -0.51324  -0.51167  -0.50541  -0.50452  -0.50079
 Alpha  occ. eigenvalues --   -0.49752  -0.49513  -0.49432  -0.49174  -0.49017
 Alpha  occ. eigenvalues --   -0.48905  -0.48464  -0.48106  -0.47913  -0.47824
 Alpha  occ. eigenvalues --   -0.47725  -0.47656  -0.46994  -0.46966  -0.46903
 Alpha  occ. eigenvalues --   -0.46517  -0.46459  -0.46456  -0.46297  -0.46199
 Alpha  occ. eigenvalues --   -0.46047  -0.45817  -0.45635  -0.45567  -0.45384
 Alpha  occ. eigenvalues --   -0.44780  -0.44518  -0.44266  -0.44231  -0.44078
 Alpha  occ. eigenvalues --   -0.43948  -0.43827  -0.43460  -0.43397  -0.43388
 Alpha  occ. eigenvalues --   -0.43246  -0.43223  -0.43185  -0.43100  -0.42796
 Alpha  occ. eigenvalues --   -0.42741  -0.42327  -0.42291  -0.42069  -0.41985
 Alpha  occ. eigenvalues --   -0.41792  -0.41590  -0.41518  -0.41320  -0.41158
 Alpha  occ. eigenvalues --   -0.41042  -0.40864  -0.40780  -0.40588  -0.40557
 Alpha  occ. eigenvalues --   -0.40461  -0.40297  -0.40014  -0.39930  -0.39609
 Alpha  occ. eigenvalues --   -0.39511  -0.39485  -0.39473  -0.39338  -0.39286
 Alpha  occ. eigenvalues --   -0.38731  -0.38439  -0.38362  -0.38234  -0.37999
 Alpha  occ. eigenvalues --   -0.37720  -0.37705  -0.37665  -0.37636  -0.37418
 Alpha  occ. eigenvalues --   -0.37177  -0.37131  -0.37078  -0.37049  -0.36869
 Alpha  occ. eigenvalues --   -0.36840  -0.36802  -0.36677  -0.36488  -0.36409
 Alpha  occ. eigenvalues --   -0.36121  -0.36055  -0.35836  -0.35647  -0.35352
 Alpha  occ. eigenvalues --   -0.35296  -0.34715  -0.34540  -0.34460  -0.34146
 Alpha  occ. eigenvalues --   -0.33695  -0.32844  -0.32837  -0.32717  -0.32506
 Alpha  occ. eigenvalues --   -0.32498  -0.32133  -0.31986  -0.31719  -0.31460
 Alpha  occ. eigenvalues --   -0.31360  -0.31062  -0.29802  -0.29616  -0.29364
 Alpha  occ. eigenvalues --   -0.29217  -0.29001  -0.28591  -0.27403  -0.26858
 Alpha  occ. eigenvalues --   -0.26319  -0.25932  -0.25635  -0.25617  -0.25466
 Alpha  occ. eigenvalues --   -0.25418  -0.25386  -0.24840  -0.21280  -0.21231
 Alpha  occ. eigenvalues --   -0.19287  -0.18645
 Alpha virt. eigenvalues --   -0.11602  -0.11047  -0.05774  -0.05437  -0.04433
 Alpha virt. eigenvalues --   -0.04070  -0.02387  -0.02256  -0.01411  -0.00848
 Alpha virt. eigenvalues --    0.00087   0.00487   0.00825   0.01062   0.01282

 Mulliken charges:
               1
     1  Mg  12.000000
     2  C    6.000000
     3  C    6.000000
     4  C    6.000000
     5  C    6.000000
     6  N    7.000000
     7  C    6.000000
     8  C    6.000000
     9  C    6.000000
    10  C    6.000000
    11  C    6.000000
    12  C    6.000000
    13  C    6.000000
    14  H    1.000000
    15  N    7.000000
    16  C    6.000000
    17  C    6.000000
    18  C    6.000000
    19  C    6.000000
    20  C    6.000000
    21  C    6.000000
    22  O    8.000000
    23  C    6.000000
    24  N    7.000000
    25  C    6.000000
    26  C    6.000000
    27  C    6.000000
    28  C    6.000000
    29  C    6.000000
    30  C    6.000000
    31  C    6.000000
    32  N    7.000000
    33  C    6.000000
    34  C    6.000000
    35  C    6.000000
    36  C    6.000000
    37  C    6.000000
    38  C    6.000000
    39  O    8.000000
    40  C    6.000000
    41  C    6.000000
    42  O    8.000000
    43  O    8.000000
    44  C    6.000000
    45  H    1.000000
    46  H    1.000000
    47  H    1.000000
    48  H    1.000000
    49  H    1.000000
    50  H    1.000000
    51  H    1.000000
    52  H    1.000000
    53  H    1.000000
    54  H    1.000000
    55  H    1.000000
    56  H    1.000000
    57  H    1.000000
    58  H    1.000000
    59  H    1.000000
    60  H    1.000000
    61  H    1.000000
    62  H    1.000000
    63  H    1.000000
    64  H    1.000000
    65  H    1.000000
    66  H    1.000000
    67  H    1.000000
    68  H    1.000000
    69  H    1.000000
    70  H    1.000000
    71  H    1.000000
    72  H    1.000000
    73  H    1.000000
    74  H    1.000000
    75  H    1.000000
    76  H    1.000000
    77  H    1.000000
    78  H    1.000000
    79  H    1.000000
    80  Mg  12.000000
    81  C    6.000000
    82  C    6.000000
    83  C    6.000000
    84  C    6.000000
    85  N    7.000000
    86  C    6.000000
    87  C    6.000000
    88  C    6.000000
    89  C    6.000000
    90  C    6.000000
    91  C    6.000000
    92  C    6.000000
    93  H    1.000000
    94  N    7.000000
    95  C    6.000000
    96  C    6.000000
    97  C    6.000000
    98  C    6.000000
    99  C    6.000000
   100  C    6.000000
   101  O    8.000000
   102  C    6.000000
   103  N    7.000000
   104  C    6.000000
   105  C    6.000000
   106  C    6.000000
   107  C    6.000000
   108  C    6.000000
   109  C    6.000000
   110  C    6.000000
   111  N    7.000000
   112  C    6.000000
   113  C    6.000000
   114  C    6.000000
   115  C    6.000000
   116  C    6.000000
   117  C    6.000000
   118  O    8.000000
   119  C    6.000000
   120  C    6.000000
   121  O    8.000000
   122  O    8.000000
   123  C    6.000000
   124  H    1.000000
   125  H    1.000000
   126  H    1.000000
   127  H    1.000000
   128  H    1.000000
   129  H    1.000000
   130  H    1.000000
   131  H    1.000000
   132  H    1.000000
   133  H    1.000000
   134  H    1.000000
   135  H    1.000000
   136  H    1.000000
   137  H    1.000000
   138  H    1.000000
   139  H    1.000000
   140  H    1.000000
   141  H    1.000000
   142  H    1.000000
   143  H    1.000000
   144  H    1.000000
   145  H    1.000000
   146  H    1.000000
   147  H    1.000000
   148  H    1.000000
   149  H    1.000000
   150  H    1.000000
   151  H    1.000000
   152  H    1.000000
   153  H    1.000000
   154  H    1.000000
   155  H    1.000000
   156  H    1.000000
   157  H    1.000000
   158  H    1.000000
 Sum of Mulliken charges = 624.00000

 Dipole moment (field-independent basis, Debye):
    X=             -0.0000    Y=             -0.0000    Z=              0.0000  Tot=              0.0000
 Quadrupole moment (field-independent basis, Debye-Ang):
   XX=             -0.0000   YY=              0.0000   ZZ=             -0.0000
   XY=             -0.0000   XZ=             -0.0000   YZ=             -0.0000

 Normal termination of Gaussian 16 at Thu Oct 14 21:33:55 2021.
