 Gaussian 16, Revision A.03,
 Gaussian 16:  ES64L-G16RevA.03 25-Dec-2016

 --------------------------------------------------------
 #p PBE1PBE/Def2SVP td=(nstates=5) density=(transition=1)
 --------------------------------------------------------

 --------------------------------
 TDDFT excited states in gaussian
 --------------------------------
 Symbolic Z-matrix:
 Charge =  0 Multiplicity = 1

                         Standard orientation:
 ---------------------------------------------------------------------
 Center     Atomic      Atomic             Coordinates (Angstroms)
 Number     Number       Type             X           Y           Z
 ---------------------------------------------------------------------
      1         12           0      -27.580618   -0.442623   -0.297668
      2          6           0      -25.679330    2.364010   -0.855995
      3          6           0      -29.012587    1.215235    2.506008
      4          6           0      -29.111328   -3.286060    0.703065
      5          6           0      -25.989225   -2.113455   -2.732093
      6          7           0      -27.357294    1.570975    0.708164
      7          6           0      -26.487416    2.534214    0.272452
      8          6           0      -26.643375    3.823205    1.082464
      9          6           0      -27.585751    3.315797    2.269404
     10          6           0      -28.016642    1.952121    1.814559
     11          6           0      -26.916569    3.370272    3.691700
     12          6           0      -27.297011    5.023930    0.257358
     13          6           0      -26.776984    6.439468    0.329555
     14          1           0      -26.489027    7.020257    1.668333
     15          7           0      -28.941565   -0.987398    1.353703
     16          6           0      -29.522717   -0.154037    2.244469
     17          6           0      -30.538499   -0.816443    2.992036
     18          6           0      -30.618023   -2.143123    2.462662
     19          6           0      -29.471324   -2.188215    1.506950
     20          6           0      -31.215651   -0.071286    4.096674
     21          6           0      -31.479941   -3.303706    2.929647
     22          8           0      -31.263555   -4.469361    2.583950
     23          6           0      -32.645724   -3.060190    3.871920
     24          7           0      -27.446241   -2.499407   -0.833919
     25          6           0      -28.283413   -3.455318   -0.351843
     26          6           0      -28.144631   -4.748650   -1.153129
     27          6           0      -27.258075   -4.289579   -2.372575
     28          6           0      -26.873726   -2.879261   -1.970781
     29          6           0      -27.682137   -6.072722   -0.476277
     30          6           0      -27.904221   -4.421838   -3.814591
     31          6           0      -28.643792   -3.254711   -4.433620
     32          7           0      -26.079812   -0.047092   -1.478212
     33          6           0      -25.577820   -0.737379   -2.552170
     34          6           0      -24.524269   -0.059476   -3.215272
     35          6           0      -24.553402    1.196264   -2.616825
     36          6           0      -25.528284    1.158565   -1.586886
     37          6           0      -23.614273   -0.430787   -4.378876
     38          6           0      -23.980451    2.470159   -2.584395
     39          8           0      -23.054783    2.896263   -3.250220
     40          6           0      -24.662178    3.353463   -1.395379
     41          6           0      -23.610877    3.725311   -0.456578
     42          8           0      -22.954020    2.939756    0.255057
     43          8           0      -23.344229    5.058191   -0.443165
     44          6           0      -22.115061    5.528452    0.205493
     45          1           0      -29.440858    1.851300    3.283001
     46          1           0      -29.793729   -4.130469    0.818570
     47          1           0      -25.726524   -2.476432   -3.727194
     48          1           0      -25.649720    4.172778    1.365625
     49          1           0      -28.458100    3.958913    2.386860
     50          1           0      -27.524213    4.023178    4.317326
     51          1           0      -25.892578    3.691040    3.499476
     52          1           0      -26.942436    2.437112    4.255230
     53          1           0      -28.319591    5.004082    0.634647
     54          1           0      -27.476324    4.734089   -0.777449
     55          1           0      -27.411725    7.099863   -0.261234
     56          1           0      -25.786675    6.405496   -0.123138
     57          1           0      -32.275254   -0.289973    3.969441
     58          1           0      -31.106151    1.005051    3.961670
     59          1           0      -30.900084   -0.318717    5.110804
     60          1           0      -33.238845   -2.178887    3.625981
     61          1           0      -32.308682   -3.159420    4.904654
     62          1           0      -33.311273   -3.905026    3.692157
     63          1           0      -29.176951   -4.987949   -1.409279
     64          1           0      -26.393654   -4.933210   -2.531334
     65          1           0      -26.677214   -6.334697   -0.807024
     66          1           0      -28.375731   -6.843372   -0.812204
     67          1           0      -27.739195   -5.890027    0.596225
     68          1           0      -28.598721   -5.259301   -3.763796
     69          1           0      -27.132441   -4.676414   -4.541337
     70          1           0      -29.639133   -3.540122   -4.774931
     71          1           0      -28.116265   -2.798780   -5.272495
     72          1           0      -28.718454   -2.518631   -3.633155
     73          1           0      -23.896055   -1.416795   -4.750305
     74          1           0      -22.577848   -0.416478   -4.040710
     75          1           0      -23.738789    0.313354   -5.165044
     76          1           0      -24.963926    4.234306   -1.962834
     77          1           0      -21.762431    6.493895   -0.157634
     78          1           0      -21.304093    4.802709    0.258683
     79          1           0      -22.420435    5.797198    1.216860
     80         12           0       26.944363   -0.886060    0.273163
     81          6           0       27.807912    2.457999   -0.348628
     82          6           0       26.691514   -0.285775    3.543826
     83          6           0       26.243880   -4.022243    0.656960
     84          6           0       28.242605   -1.566816   -3.034376
     85          7           0       27.333766    0.890778    1.427936
     86          6           0       27.499422    2.153004    1.013022
     87          6           0       27.656367    3.109776    2.166620
     88          6           0       27.706281    2.135200    3.410996
     89          6           0       27.205402    0.848177    2.784667
     90          6           0       29.064844    1.956215    4.163209
     91          6           0       26.369020    4.075935    2.279331
     92          6           0       26.737607    5.586523    2.446714
     93          1           0       25.441624    6.543344    2.243471
     94          7           0       26.299411   -1.911829    1.793368
     95          6           0       26.208575   -1.494311    3.110253
     96          6           0       25.472639   -2.481536    3.851095
     97          6           0       25.260572   -3.659307    3.023745
     98          6           0       25.839875   -3.213535    1.698964
     99          6           0       25.198521   -2.236751    5.362809
    100          6           0       24.621262   -5.029772    3.216164
    101          8           0       24.451936   -5.895424    2.338532
    102          6           0       24.082702   -5.220432    4.589816
    103          7           0       27.380032   -2.511747   -0.991556
    104          6           0       26.949452   -3.726640   -0.518399
    105          6           0       27.356164   -4.857329   -1.464075
    106          6           0       27.694324   -4.067096   -2.755424
    107          6           0       27.848449   -2.632686   -2.246095
    108          6           0       28.484354   -5.740252   -0.797157
    109          6           0       26.637940   -4.173917   -3.935769
    110          6           0       27.160636   -3.914834   -5.357833
    111          7           0       27.814694    0.190142   -1.404502
    112          6           0       28.261083   -0.235462   -2.618833
    113          6           0       28.633193    0.880305   -3.459604
    114          6           0       28.390069    1.963848   -2.595748
    115          6           0       27.957908    1.500825   -1.344726
    116          6           0       29.158744    0.954751   -4.911652
    117          6           0       28.425212    3.398493   -2.536318
    118          8           0       28.567312    4.257656   -3.366519
    119          6           0       28.197611    3.757503   -0.977165
    120          6           0       27.261546    4.879151   -1.090146
    121          8           0       26.013959    4.856989   -1.242080
    122          8           0       28.029103    5.979888   -1.012133
    123          6           0       27.381100    7.286539   -1.133826
    124          1           0       26.517765   -0.077678    4.601774
    125          1           0       25.939129   -5.066330    0.756254
    126          1           0       28.533129   -1.819383   -4.056266
    127          1           0       28.521327    3.770974    2.107174
    128          1           0       26.987739    2.336243    4.205815
    129          1           0       29.424016    0.947075    3.961461
    130          1           0       28.817767    2.060545    5.219553
    131          1           0       29.892649    2.618489    3.912200
    132          1           0       25.640171    3.810490    3.046022
    133          1           0       25.769101    3.883485    1.389789
    134          1           0       27.493797    5.878622    1.718339
    135          1           0       27.086578    5.872027    3.438797
    136          1           0       24.245800   -1.716162    5.449499
    137          1           0       25.835027   -1.469135    5.804664
    138          1           0       25.383824   -3.068748    6.041779
    139          1           0       23.300225   -4.517195    4.872725
    140          1           0       24.985477   -5.145900    5.197297
    141          1           0       23.693658   -6.222448    4.772869
    142          1           0       26.462036   -5.470781   -1.575815
    143          1           0       28.622204   -4.452302   -3.178121
    144          1           0       29.444170   -5.551066   -1.277679
    145          1           0       28.384114   -6.825003   -0.823573
    146          1           0       28.732109   -5.517185    0.240819
    147          1           0       25.978206   -3.328049   -3.740590
    148          1           0       26.047347   -5.087765   -4.003931
    149          1           0       26.732403   -3.011784   -5.794759
    150          1           0       27.027746   -4.681777   -6.121154
    151          1           0       28.213886   -3.666757   -5.234324
    152          1           0       29.634207   -0.007433   -5.102021
    153          1           0       29.870437    1.772826   -5.030392
    154          1           0       28.280898    1.065601   -5.548119
    155          1           0       29.127136    4.133828   -0.549641
    156          1           0       27.418258    7.781378   -0.163492
    157          1           0       26.393612    7.216837   -1.588774
    158          1           0       28.001443    7.914093   -1.773591
 ---------------------------------------------------------------------

 SCF Done:  E(RPBE1PBE) =  -4067.39340684     A.U. after   16 cycles

 Excitation energies and oscillator strengths:

 Excited State   1:      Singlet-A      1.8754 eV  661.09 nm  f=0.3561  <S**2>=0.000
     309 -> 315       -0.18968
     312 -> 314        0.68783
 This state for optimization and/or second-order correction.
 Total Energy, E(TD-HF/TD-DFT) =  -4067.32448539
 Copying the excited state density for this state as the 1-particle RhoCI density.

 Excited State   2:      Singlet-A      1.8775 eV  660.35 nm  f=0.4082  <S**2>=0.000
     310 -> 316       -0.17164
     311 -> 313        0.69320
     311 <- 313       -0.11024

 Excited State   3:      Singlet-A      1.9238 eV  644.49 nm  f=0.0000  <S**2>=0.000
     312 -> 313        0.70711

 Excited State   4:      Singlet-A      2.1326 eV  581.38 nm  f=0.0000  <S**2>=0.000
     311 -> 314        0.70711

 Excited State   5:      Singlet-A      2.2058 eV  562.09 nm  f=0.1666  <S**2>=0.000
     310 -> 313        0.67015
     311 -> 316        0.21433

 The electronic state is 1-A.
 Alpha  occ. eigenvalues --  -46.92502 -46.90974 -19.25690 -19.25501 -19.19800
 Alpha  occ. eigenvalues --  -19.19278 -19.19046 -19.18919 -19.18743 -19.18669
 Alpha  occ. eigenvalues --  -14.42051 -14.41622 -14.41272 -14.41041 -14.39176
 Alpha  occ. eigenvalues --  -14.39150 -14.39106 -14.38079 -10.35913 -10.35542
 Alpha  occ. eigenvalues --  -10.33015 -10.32442 -10.31827 -10.31730 -10.29429
 Alpha  occ. eigenvalues --  -10.28971 -10.28848 -10.28821 -10.28526 -10.28474
 Alpha  occ. eigenvalues --  -10.28213 -10.28207 -10.28196 -10.28057 -10.27785
 Alpha  occ. eigenvalues --  -10.27709 -10.27689 -10.27688 -10.27678 -10.27591
 Alpha  occ. eigenvalues --  -10.27011 -10.26947 -10.26738 -10.26558 -10.26291
 Alpha  occ. eigenvalues --  -10.26204 -10.26166 -10.26058 -10.25928 -10.25909
 Alpha  occ. eigenvalues --  -10.25817 -10.25791 -10.25747 -10.25654 -10.25591
 Alpha  occ. eigenvalues --  -10.25564 -10.25531 -10.25494 -10.25365 -10.25353
 Alpha  occ. eigenvalues --  -10.25184 -10.25140 -10.25137 -10.25039 -10.24917
 Alpha  occ. eigenvalues --  -10.24482 -10.24434 -10.24290 -10.24272 -10.24118
 Alpha  occ. eigenvalues --  -10.24091 -10.23965 -10.23927 -10.23886 -10.23882
 Alpha  occ. eigenvalues --  -10.23549 -10.23482 -10.23402 -10.23363 -10.23244
 Alpha  occ. eigenvalues --  -10.23200 -10.22827 -10.22823 -10.22450 -10.22414
 Alpha  occ. eigenvalues --  -10.22220  -3.14691  -3.13388  -1.87514  -1.87026
 Alpha  occ. eigenvalues --   -1.86963  -1.86215  -1.85775  -1.85627  -1.10694
 Alpha  occ. eigenvalues --   -1.10610  -1.05551  -1.04711  -1.04131  -1.04012
 Alpha  occ. eigenvalues --   -1.00617  -1.00301  -1.00091  -0.99835  -0.99323
 Alpha  occ. eigenvalues --   -0.98974  -0.98778  -0.98259  -0.98129  -0.97023
 Alpha  occ. eigenvalues --   -0.87090  -0.86991  -0.83412  -0.83318  -0.82533
 Alpha  occ. eigenvalues --   -0.82518  -0.82456  -0.82341  -0.82171  -0.81780
 Alpha  occ. eigenvalues --   -0.81692  -0.81158  -0.80736  -0.80607  -0.78801
 Alpha  occ. eigenvalues --   -0.78580  -0.78105  -0.78038  -0.76934  -0.76678
 Alpha  occ. eigenvalues --   -0.76446  -0.76007  -0.75617  -0.75494  -0.74612
 Alpha  occ. eigenvalues --   -0.74606  -0.72667  -0.72447  -0.71800  -0.71622
 Alpha  occ. eigenvalues --   -0.71404  -0.71196  -0.70547  -0.70224  -0.69849
 Alpha  occ. eigenvalues --   -0.69723  -0.68013  -0.67234  -0.66584  -0.65991
 Alpha  occ. eigenvalues --   -0.64020  -0.63649  -0.63582  -0.63192  -0.62561
 Alpha  occ. eigenvalues --   -0.62292  -0.61608  -0.61536  -0.60466  -0.60038
 Alpha  occ. eigenvalues --   -0.59992  -0.59682  -0.59419  -0.59236  -0.58999
 Alpha  occ. eigenvalues --   -0.58767  -0.56843  -0.56341  -0.54764  -0.54723
 Alpha  occ. eigenvalues --   -0.54408  -0.54363  -0.53748  -0.53652  -0.53252
 Alpha  occ. eigenvalues --   -0.52870  -0.52614  -0.52439  -0.51886  -0.51548
 Alpha  occ. eigenvalues --   -0.50894  -0.50850  -0.50381  -0.50031  -0.49865
 Alpha  occ. eigenvalues --   -0.49588  -0.49332  -0.48866  -0.48606  -0.48478
 Alpha  occ. eigenvalues --   -0.47921  -0.47858  -0.47767  -0.47652  -0.47444
 Alpha  occ. eigenvalues --   -0.47234  -0.47122  -0.47081  -0.46757  -0.46755
 Alpha  occ. eigenvalues --   -0.46619  -0.46213  -0.45987  -0.45939  -0.45577
 Alpha  occ. eigenvalues --   -0.45387  -0.45210  -0.45064  -0.45024  -0.44820
 Alpha  occ. eigenvalues --   -0.44749  -0.44558  -0.44466  -0.44151  -0.44013
 Alpha  occ. eigenvalues --   -0.43874  -0.43706  -0.43671  -0.43504  -0.43416
 Alpha  occ. eigenvalues --   -0.43372  -0.43168  -0.43065  -0.42812  -0.42694
 Alpha  occ. eigenvalues --   -0.42625  -0.42528  -0.42135  -0.42107  -0.41952
 Alpha  occ. eigenvalues --   -0.41818  -0.41599  -0.41581  -0.41207  -0.41187
 Alpha  occ. eigenvalues --   -0.41087  -0.40933  -0.40721  -0.40612  -0.40587
 Alpha  occ. eigenvalues --   -0.40464  -0.40258  -0.40098  -0.39930  -0.39759
 Alpha  occ. eigenvalues --   -0.39635  -0.39231  -0.38900  -0.38837  -0.38776
 Alpha  occ. eigenvalues --   -0.38566  -0.38395  -0.38379  -0.38268  -0.38203
 Alpha  occ. eigenvalues --   -0.37970  -0.37920  -0.37738  -0.37693  -0.37641
 Alpha  occ. eigenvalues --   -0.37411  -0.37121  -0.37028  -0.36850  -0.36778
 Alpha  occ. eigenvalues --   -0.36670  -0.36574  -0.36364  -0.36216  -0.36184
 Alpha  occ. eigenvalues --   -0.36002  -0.36000  -0.35679  -0.35505  -0.35467
 Alpha  occ. eigenvalues --   -0.35185  -0.34961  -0.34750  -0.34502  -0.34476
 Alpha  occ. eigenvalues --   -0.33664  -0.33434  -0.33208  -0.32815  -0.32424
 Alpha  occ. eigenvalues --   -0.32324  -0.32002  -0.31670  -0.31114  -0.30577
 Alpha  occ. eigenvalues --   -0.30460  -0.30341  -0.29744  -0.29441  -0.29166
 Alpha  occ. eigenvalues --   -0.28641  -0.27999  -0.27854  -0.26983  -0.26967
 Alpha  occ. eigenvalues --   -0.26536  -0.26390  -0.26123  -0.25955  -0.25557
 Alpha  occ. eigenvalues --   -0.25553  -0.25394  -0.25195  -0.21094  -0.20825
 Alpha  occ. eigenvalues --   -0.19071  -0.18775
 Alpha virt. eigenvalues --   -0.11464  -0.10991  -0.05728  -0.04781  -0.04452
 Alpha virt. eigenvalues --   -0.03938  -0.01934  -0.01928  -0.00972   0.00160
 Alpha virt. eigenvalues --    0.00188   0.00858   0.00972   0.01506   0.01818

 Mulliken charges:
               1
     1  Mg  12.000030
     2  C    5.999529
     3  C    6.000191
     4  C    6.000503
     5  C    6.000032
     6  N    6.999797
     7  C    6.000660
     8  C    5.999784
     9  C    6.000273
    10  C    5.999306
    11  C    6.000094
    12  C    5.999903
    13  C    5.999997
    14  H    1.000136
    15  N    7.000079
    16  C    5.999165
    17  C    5.999574
    18  C    5.999580
    19  C    5.999309
    20  C    6.000113
    21  C    5.999732
    22  O    7.999299
    23  C    6.000139
    24  N    7.000379
    25  C    5.999183
    26  C    6.000215
    27  C    5.999780
    28  C    6.000475
    29  C    5.999983
    30  C    5.999932
    31  C    5.999900
    32  N    6.999951
    33  C    6.000647
    34  C    6.000613
    35  C    6.000030
    36  C    6.000618
    37  C    5.999978
    38  C    6.000371
    39  O    8.000668
    40  C    6.000174
    41  C    6.000082
    42  O    8.000094
    43  O    8.000051
    44  C    5.999946
    45  H    0.999708
    46  H    0.999971
    47  H    1.000293
    48  H    0.999950
    49  H    0.999960
    50  H    0.999929
    51  H    0.999681
    52  H    1.000032
    53  H    1.000253
    54  H    0.999914
    55  H    1.000050
    56  H    0.999878
    57  H    0.999658
    58  H    0.999679
    59  H    0.999527
    60  H    0.999864
    61  H    0.999778
    62  H    0.999697
    63  H    1.000076
    64  H    1.000051
    65  H    0.999792
    66  H    0.999964
    67  H    1.000109
    68  H    1.000242
    69  H    0.999986
    70  H    1.000218
    71  H    0.999951
    72  H    1.000023
    73  H    1.000337
    74  H    1.000362
    75  H    1.000376
    76  H    1.000147
    77  H    1.000102
    78  H    1.000003
    79  H    1.000145
    80  Mg  11.997766
    81  C    6.015504
    82  C    5.987000
    83  C    5.990730
    84  C    6.015976
    85  N    7.004427
    86  C    5.965563
    87  C    6.012437
    88  C    5.992335
    89  C    6.035543
    90  C    5.998334
    91  C    6.002167
    92  C    6.001317
    93  H    0.996900
    94  N    6.995200
    95  C    6.032388
    96  C    6.021490
    97  C    6.020076
    98  C    6.019840
    99  C    5.997042
   100  C    6.014089
   101  O    8.031778
   102  C    5.994440
   103  N    7.005172
   104  C    6.024175
   105  C    5.994597
   106  C    6.007637
   107  C    5.966604
   108  C    5.995328
   109  C    6.002315
   110  C    6.000769
   111  N    7.001264
   112  C    5.964916
   113  C    5.969786
   114  C    5.999432
   115  C    5.971337
   116  C    5.998272
   117  C    5.983931
   118  O    7.972084
   119  C    5.997759
   120  C    5.997293
   121  O    7.992176
   122  O    7.999663
   123  C    6.002480
   124  H    1.007837
   125  H    1.005521
   126  H    0.991874
   127  H    0.998573
   128  H    0.997779
   129  H    0.999469
   130  H    1.001196
   131  H    1.012727
   132  H    0.987897
   133  H    1.002931
   134  H    1.004518
   135  H    0.994637
   136  H    1.018072
   137  H    1.017186
   138  H    1.015044
   139  H    1.008519
   140  H    1.005902
   141  H    1.014749
   142  H    0.997618
   143  H    0.996371
   144  H    1.011646
   145  H    1.001899
   146  H    0.994690
   147  H    0.998770
   148  H    0.988782
   149  H    1.003065
   150  H    0.994829
   151  H    1.002605
   152  H    0.985070
   153  H    0.986927
   154  H    0.983233
   155  H    0.992527
   156  H    0.993650
   157  H    0.997321
   158  H    0.997233
 Sum of Mulliken charges = 624.00000

 Dipole moment (field-independent basis, Debye):
    X=             -3.1533    Y=             -5.6434    Z=              7.6377  Tot=             10.0063
 Quadrupole moment (field-independent basis, Debye-Ang):
   XX=           -185.7595   YY=              5.8837   ZZ=              3.9252
   XY=           -149.2403   XZ=            214.0538   YZ=             -9.0468

 Normal termination of Gaussian 16 at Fri Oct 15 18:54:12 2021.
