 Gaussian 16, Revision A.03,
 Gaussian 16:  ES64L-G16RevA.03 25-Dec-2016

 --------------------------------------------------------
 #p PBE1PBE/Def2SVP td=(nstates=5) density=(transition=1)
 --------------------------------------------------------

 --------------------------------
 TDDFT excited states in gaussian
 --------------------------------
 Symbolic Z-matrix:
 Charge =  0 Multiplicity = 1

                         Standard orientation:
 ---------------------------------------------------------------------
 Center     Atomic      Atomic             Coordinates (Angstroms)
 Number     Number       Type             X           Y           Z
 ---------------------------------------------------------------------
      1         12           0      -26.791440   -0.603847    0.336345
      2          6           0      -27.834297    2.431790   -0.995839
      3          6           0      -24.701934   -1.012619   -2.274475
      4          6           0      -26.377925   -3.844687    1.211041
      5          6           0      -29.557985   -0.493940    2.547205
      6          7           0      -26.331577    0.654060   -1.317622
      7          6           0      -26.719834    1.933401   -1.650892
      8          6           0      -26.018619    2.391357   -2.959351
      9          6           0      -25.512240    1.028738   -3.525059
     10          6           0      -25.403112    0.182555   -2.265134
     11          6           0      -26.473912    0.350315   -4.563099
     12          6           0      -25.044604    3.527971   -2.598795
     13          6           0      -25.045154    4.657492   -3.557197
     14          1           0      -24.507074    5.911283   -3.033179
     15          7           0      -25.526542   -2.098713   -0.308335
     16          6           0      -24.692675   -2.033664   -1.378347
     17          6           0      -23.759903   -3.129383   -1.295812
     18          6           0      -24.261931   -3.978450   -0.244533
     19          6           0      -25.502463   -3.349018    0.217602
     20          6           0      -22.631195   -3.324934   -2.243543
     21          6           0      -23.791846   -5.381587    0.260200
     22          8           0      -24.338846   -5.974825    1.192052
     23          6           0      -22.544026   -6.025232   -0.276673
     24          7           0      -28.069536   -2.061676    1.456466
     25          6           0      -27.544994   -3.344874    1.771503
     26          6           0      -28.330720   -4.068097    2.814759
     27          6           0      -29.175384   -2.862139    3.340257
     28          6           0      -28.866355   -1.685637    2.418153
     29          6           0      -29.163616   -5.277328    2.269516
     30          6           0      -28.851381   -2.473359    4.829020
     31          6           0      -27.352341   -2.251241    5.154475
     32          7           0      -28.321442    0.719644    0.804052
     33          6           0      -29.345418    0.655181    1.761671
     34          6           0      -30.076692    1.861561    1.651627
     35          6           0      -29.494778    2.576380    0.612087
     36          6           0      -28.460084    1.839773    0.137386
     37          6           0      -31.209729    2.273550    2.536583
     38          6           0      -29.635844    3.724179   -0.154567
     39          8           0      -30.482619    4.632338   -0.070513
     40          6           0      -28.556728    3.760072   -1.278419
     41          6           0      -27.756975    5.064190   -0.969816
     42          8           0      -27.011870    5.238962    0.010779
     43          8           0      -28.030697    5.984301   -1.976024
     44          6           0      -27.587576    7.401642   -1.782781
     45          1           0      -24.140511   -1.072060   -3.209289
     46          1           0      -26.306791   -4.811471    1.715174
     47          1           0      -30.288007   -0.313445    3.339075
     48          1           0      -26.734139    2.877710   -3.621514
     49          1           0      -24.507328    1.160531   -3.925066
     50          1           0      -27.355951    0.924470   -4.848184
     51          1           0      -26.922071   -0.547335   -4.139017
     52          1           0      -25.925828    0.186779   -5.490752
     53          1           0      -24.048726    3.095698   -2.685469
     54          1           0      -25.278590    3.853732   -1.584909
     55          1           0      -26.094165    4.846878   -3.785410
     56          1           0      -24.563794    4.329069   -4.478145
     57          1           0      -22.384248   -2.400788   -2.765758
     58          1           0      -22.834297   -4.219605   -2.833074
     59          1           0      -21.726622   -3.554326   -1.680206
     60          1           0      -22.699224   -7.091841   -0.112726
     61          1           0      -21.671057   -5.721636    0.301587
     62          1           0      -22.422622   -5.854448   -1.346794
     63          1           0      -27.726694   -4.444532    3.641509
     64          1           0      -30.233039   -3.113530    3.254750
     65          1           0      -29.306603   -5.151870    1.195903
     66          1           0      -30.157320   -5.420351    2.694307
     67          1           0      -28.713595   -6.262450    2.395792
     68          1           0      -29.321405   -3.241153    5.443807
     69          1           0      -29.452823   -1.578678    4.989646
     70          1           0      -27.147964   -1.247649    5.528016
     71          1           0      -26.801649   -2.445922    4.233762
     72          1           0      -26.981100   -2.937899    5.914664
     73          1           0      -32.048010    2.471271    1.868592
     74          1           0      -30.885303    3.144736    3.105671
     75          1           0      -31.569993    1.508029    3.223926
     76          1           0      -29.066658    3.876860   -2.234309
     77          1           0      -28.091940    7.754576   -0.883536
     78          1           0      -27.799911    8.112694   -2.581107
     79          1           0      -26.526855    7.188543   -1.649976
     80         12           0       27.648368    0.587890    0.050171
     81          6           0       24.483747   -0.595502   -1.146142
     82          6           0       25.997686    1.447309    3.059443
     83          6           0       30.656752    0.986545    1.482297
     84          6           0       29.140375   -0.924194   -2.670288
     85          7           0       25.470636    0.460423    0.887414
     86          6           0       24.440217   -0.092932    0.180158
     87          6           0       23.248335   -0.307951    1.099414
     88          6           0       23.710508    0.613796    2.304472
     89          6           0       25.155650    0.890328    2.133849
     90          6           0       22.941712    1.961792    2.512092
     91          6           0       23.024540   -1.835329    1.340601
     92          6           0       21.562316   -2.439673    1.266794
     93          1           0       20.946134   -3.100094    2.513202
     94          7           0       28.256488    1.290140    1.855541
     95          6           0       27.446753    1.611776    2.976637
     96          6           0       28.264427    2.107445    4.068368
     97          6           0       29.629837    1.957566    3.591134
     98          6           0       29.533308    1.400182    2.255042
     99          6           0       27.681415    2.477501    5.368107
    100          6           0       30.854095    2.373416    4.425169
    101          8           0       30.620382    2.763232    5.606392
    102          6           0       32.318815    2.353000    3.938888
    103          7           0       29.683003   -0.123626   -0.351512
    104          6           0       30.750041    0.320862    0.284245
    105          6           0       31.966368   -0.230823   -0.386597
    106          6           0       31.437515   -0.779892   -1.738618
    107          6           0       29.953219   -0.687347   -1.560623
    108          6           0       33.249952    0.684714   -0.580216
    109          6           0       31.923382   -2.273789   -2.114300
    110          6           0       32.823942   -2.466730   -3.358974
    111          7           0       27.005455   -0.338701   -1.648777
    112          6           0       27.702980   -0.894621   -2.653763
    113          6           0       26.847121   -1.452726   -3.635551
    114          6           0       25.568002   -1.309749   -3.092900
    115          6           0       25.706928   -0.655547   -1.842708
    116          6           0       27.143555   -2.062789   -4.946352
    117          6           0       24.205556   -1.640722   -3.376211
    118          8           0       23.760731   -2.263104   -4.314464
    119          6           0       23.395631   -1.193144   -2.001221
    120          6           0       22.367278   -0.198705   -2.329603
    121          8           0       22.515801    0.765035   -3.091616
    122          8           0       21.244120   -0.538732   -1.606126
    123          6           0       20.074700    0.321256   -1.779840
    124          1           0       25.546632    1.736791    4.009805
    125          1           0       31.651242    0.996484    1.932451
    126          1           0       29.540803   -1.207320   -3.646157
    127          1           0       22.409722    0.213541    0.637313
    128          1           0       23.623432   -0.128651    3.098620
    129          1           0       23.679968    2.764317    2.479194
    130          1           0       22.439575    2.045920    3.475623
    131          1           0       22.227341    2.222280    1.730520
    132          1           0       23.402545   -1.907787    2.360144
    133          1           0       23.644041   -2.507390    0.747181
    134          1           0       21.601378   -3.152651    0.443446
    135          1           0       20.905072   -1.680009    0.844752
    136          1           0       27.080463    1.625404    5.686605
    137          1           0       26.981950    3.303355    5.240110
    138          1           0       28.353333    2.850370    6.141594
    139          1           0       32.635179    1.311982    3.871304
    140          1           0       32.809639    3.111879    4.547342
    141          1           0       32.242308    2.775918    2.936628
    142          1           0       32.329924   -1.038322    0.247705
    143          1           0       31.690492    0.032184   -2.420378
    144          1           0       34.083351   -0.018262   -0.579773
    145          1           0       33.286897    1.404501    0.237341
    146          1           0       33.149785    1.151831   -1.560100
    147          1           0       30.989521   -2.825965   -2.218386
    148          1           0       32.367388   -2.706218   -1.217755
    149          1           0       32.467914   -3.256330   -4.019353
    150          1           0       33.835898   -2.693609   -3.022414
    151          1           0       32.962356   -1.557763   -3.944695
    152          1           0       26.262368   -2.092781   -5.586436
    153          1           0       27.438653   -3.046989   -4.582065
    154          1           0       28.102061   -1.672999   -5.288800
    155          1           0       23.048067   -2.063364   -1.445582
    156          1           0       19.828275    0.459902   -2.832774
    157          1           0       20.250327    1.283924   -1.297452
    158          1           0       19.217015   -0.158666   -1.308450
 ---------------------------------------------------------------------

 SCF Done:  E(RPBE1PBE) =  -4067.36436520     A.U. after   16 cycles

 Excitation energies and oscillator strengths:

 Excited State   1:      Singlet-A      1.8237 eV  679.85 nm  f=0.3609  <S**2>=0.000
     309 -> 316        0.15450
     312 -> 313        0.69684
     312 <- 313       -0.11766
 This state for optimization and/or second-order correction.
 Total Energy, E(TD-HF/TD-DFT) =  -4067.29734579
 Copying the excited state density for this state as the 1-particle RhoCI density.

 Excited State   2:      Singlet-A      1.8632 eV  665.42 nm  f=0.3798  <S**2>=0.000
     310 -> 315       -0.18034
     311 -> 314        0.69248
     311 <- 314       -0.10916

 Excited State   3:      Singlet-A      1.9688 eV  629.76 nm  f=0.0000  <S**2>=0.000
     312 -> 314        0.70711

 Excited State   4:      Singlet-A      1.9839 eV  624.94 nm  f=0.0000  <S**2>=0.000
     311 -> 313        0.70711

 Excited State   5:      Singlet-A      2.2326 eV  555.35 nm  f=0.1213  <S**2>=0.000
     309 -> 313        0.65176
     312 -> 316       -0.24369

 The electronic state is 1-A.
 Alpha  occ. eigenvalues --  -46.92301 -46.91713 -19.26870 -19.25404 -19.20731
 Alpha  occ. eigenvalues --  -19.20227 -19.19977 -19.18992 -19.18433 -19.17862
 Alpha  occ. eigenvalues --  -14.41550 -14.41399 -14.40976 -14.40927 -14.39612
 Alpha  occ. eigenvalues --  -14.39457 -14.39027 -14.38158 -10.37070 -10.37038
 Alpha  occ. eigenvalues --  -10.32593 -10.32485 -10.32468 -10.30734 -10.29631
 Alpha  occ. eigenvalues --  -10.29171 -10.28938 -10.28664 -10.28503 -10.28371
 Alpha  occ. eigenvalues --  -10.28289 -10.28132 -10.28125 -10.28056 -10.28042
 Alpha  occ. eigenvalues --  -10.28007 -10.27863 -10.27445 -10.26955 -10.26946
 Alpha  occ. eigenvalues --  -10.26766 -10.26491 -10.26332 -10.26306 -10.26139
 Alpha  occ. eigenvalues --  -10.26011 -10.25936 -10.25804 -10.25770 -10.25717
 Alpha  occ. eigenvalues --  -10.25614 -10.25512 -10.25453 -10.25432 -10.25396
 Alpha  occ. eigenvalues --  -10.25371 -10.25329 -10.25203 -10.25112 -10.25084
 Alpha  occ. eigenvalues --  -10.24999 -10.24987 -10.24921 -10.24911 -10.24846
 Alpha  occ. eigenvalues --  -10.24812 -10.24480 -10.24306 -10.24274 -10.24190
 Alpha  occ. eigenvalues --  -10.24167 -10.24021 -10.24015 -10.23910 -10.23904
 Alpha  occ. eigenvalues --  -10.23707 -10.23592 -10.23526 -10.23358 -10.23299
 Alpha  occ. eigenvalues --  -10.23237 -10.23098 -10.22980 -10.22538 -10.22297
 Alpha  occ. eigenvalues --  -10.21390  -3.14434  -3.13887  -1.87263  -1.86796
 Alpha  occ. eigenvalues --   -1.86708  -1.86674  -1.86265  -1.86112  -1.11253
 Alpha  occ. eigenvalues --   -1.09145  -1.05587  -1.04232  -1.02917  -1.02617
 Alpha  occ. eigenvalues --   -1.01995  -1.01443  -1.00124  -0.99445  -0.99414
 Alpha  occ. eigenvalues --   -0.98598  -0.98345  -0.98164  -0.97042  -0.96854
 Alpha  occ. eigenvalues --   -0.87494  -0.86887  -0.83681  -0.83461  -0.83310
 Alpha  occ. eigenvalues --   -0.82893  -0.82622  -0.82425  -0.82299  -0.82113
 Alpha  occ. eigenvalues --   -0.81828  -0.81435  -0.80845  -0.80352  -0.78950
 Alpha  occ. eigenvalues --   -0.78885  -0.78119  -0.77797  -0.76988  -0.76463
 Alpha  occ. eigenvalues --   -0.76222  -0.75797  -0.75707  -0.75252  -0.74802
 Alpha  occ. eigenvalues --   -0.74721  -0.72591  -0.72552  -0.71967  -0.71367
 Alpha  occ. eigenvalues --   -0.71214  -0.71203  -0.70589  -0.70331  -0.69825
 Alpha  occ. eigenvalues --   -0.69719  -0.67679  -0.67676  -0.66675  -0.66471
 Alpha  occ. eigenvalues --   -0.64175  -0.64133  -0.63851  -0.63188  -0.62861
 Alpha  occ. eigenvalues --   -0.61979  -0.61227  -0.60939  -0.60598  -0.60162
 Alpha  occ. eigenvalues --   -0.59853  -0.59661  -0.59301  -0.59079  -0.59024
 Alpha  occ. eigenvalues --   -0.58559  -0.57508  -0.56157  -0.54729  -0.54565
 Alpha  occ. eigenvalues --   -0.54455  -0.54309  -0.54063  -0.53762  -0.53481
 Alpha  occ. eigenvalues --   -0.53106  -0.52931  -0.52232  -0.52169  -0.51351
 Alpha  occ. eigenvalues --   -0.50784  -0.50559  -0.50432  -0.50167  -0.50141
 Alpha  occ. eigenvalues --   -0.49874  -0.49457  -0.49448  -0.49302  -0.49126
 Alpha  occ. eigenvalues --   -0.48327  -0.48061  -0.47979  -0.47646  -0.47571
 Alpha  occ. eigenvalues --   -0.47549  -0.47428  -0.47107  -0.47017  -0.46616
 Alpha  occ. eigenvalues --   -0.46487  -0.46327  -0.46112  -0.46027  -0.45938
 Alpha  occ. eigenvalues --   -0.45885  -0.45178  -0.45057  -0.44970  -0.44941
 Alpha  occ. eigenvalues --   -0.44590  -0.44532  -0.44236  -0.44134  -0.44044
 Alpha  occ. eigenvalues --   -0.44033  -0.43830  -0.43591  -0.43491  -0.43366
 Alpha  occ. eigenvalues --   -0.43180  -0.43166  -0.42736  -0.42654  -0.42571
 Alpha  occ. eigenvalues --   -0.42442  -0.42367  -0.42338  -0.42334  -0.42169
 Alpha  occ. eigenvalues --   -0.42060  -0.41763  -0.41672  -0.41384  -0.41325
 Alpha  occ. eigenvalues --   -0.41147  -0.41043  -0.40800  -0.40701  -0.40700
 Alpha  occ. eigenvalues --   -0.40536  -0.40384  -0.40265  -0.40065  -0.39797
 Alpha  occ. eigenvalues --   -0.39375  -0.39325  -0.39161  -0.38942  -0.38581
 Alpha  occ. eigenvalues --   -0.38522  -0.38445  -0.38364  -0.38309  -0.38221
 Alpha  occ. eigenvalues --   -0.38108  -0.37969  -0.37933  -0.37845  -0.37778
 Alpha  occ. eigenvalues --   -0.37658  -0.37586  -0.37236  -0.37109  -0.36780
 Alpha  occ. eigenvalues --   -0.36540  -0.36437  -0.36380  -0.36136  -0.35968
 Alpha  occ. eigenvalues --   -0.35928  -0.35760  -0.35712  -0.35485  -0.35292
 Alpha  occ. eigenvalues --   -0.35192  -0.35103  -0.34876  -0.34000  -0.33949
 Alpha  occ. eigenvalues --   -0.33756  -0.33235  -0.33204  -0.33025  -0.32655
 Alpha  occ. eigenvalues --   -0.32595  -0.32394  -0.31914  -0.31624  -0.31532
 Alpha  occ. eigenvalues --   -0.30996  -0.30874  -0.29934  -0.29299  -0.29285
 Alpha  occ. eigenvalues --   -0.29104  -0.28711  -0.28649  -0.27005  -0.26991
 Alpha  occ. eigenvalues --   -0.26127  -0.25725  -0.25653  -0.25315  -0.25212
 Alpha  occ. eigenvalues --   -0.25027  -0.24915  -0.24796  -0.21162  -0.21159
 Alpha  occ. eigenvalues --   -0.18957  -0.18841
 Alpha virt. eigenvalues --   -0.11424  -0.11363  -0.05233  -0.05131  -0.03939
 Alpha virt. eigenvalues --   -0.03664  -0.02053  -0.02017  -0.00563  -0.00507
 Alpha virt. eigenvalues --   -0.00202   0.00381   0.00730   0.00882   0.01820

 Mulliken charges:
               1
     1  Mg  12.002583
     2  C    5.975373
     3  C    6.003306
     4  C    6.032517
     5  C    6.016584
     6  N    6.978711
     7  C    6.031810
     8  C    5.996996
     9  C    6.006738
    10  C    5.976650
    11  C    6.003189
    12  C    5.994121
    13  C    6.000528
    14  H    0.998689
    15  N    7.007155
    16  C    5.964679
    17  C    5.980467
    18  C    5.987139
    19  C    5.961937
    20  C    6.003173
    21  C    5.987652
    22  O    7.970824
    23  C    6.004921
    24  N    7.016617
    25  C    5.958122
    26  C    6.014706
    27  C    5.992500
    28  C    6.017868
    29  C    5.999525
    30  C    5.992305
    31  C    5.994617
    32  N    6.998006
    33  C    6.027164
    34  C    6.030195
    35  C    6.000257
    36  C    6.027704
    37  C    5.997028
    38  C    6.014952
    39  O    8.028699
    40  C    6.003871
    41  C    6.003146
    42  O    8.003572
    43  O    8.001556
    44  C    5.999476
    45  H    0.985881
    46  H    0.995891
    47  H    1.015974
    48  H    0.998528
    49  H    0.998622
    50  H    0.984186
    51  H    1.000542
    52  H    0.996666
    53  H    1.011845
    54  H    0.994373
    55  H    0.996282
    56  H    1.005415
    57  H    0.985644
    58  H    0.981497
    59  H    0.982626
    60  H    0.987057
    61  H    0.989363
    62  H    0.996027
    63  H    0.999191
    64  H    1.002924
    65  H    1.000494
    66  H    0.990813
    67  H    1.003453
    68  H    1.009745
    69  H    0.993585
    70  H    0.997387
    71  H    1.013287
    72  H    1.006750
    73  H    1.017522
    74  H    1.018847
    75  H    1.016197
    76  H    1.008070
    77  H    0.999082
    78  H    1.004286
    79  H    1.004323
    80  Mg  12.000003
    81  C    6.000056
    82  C    6.000147
    83  C    5.999950
    84  C    5.999841
    85  N    7.000005
    86  C    6.000083
    87  C    6.000012
    88  C    6.000031
    89  C    5.999870
    90  C    6.000021
    91  C    5.999950
    92  C    5.999987
    93  H    1.000099
    94  N    6.999996
    95  C    5.999702
    96  C    5.999900
    97  C    5.999839
    98  C    5.999975
    99  C    6.000049
   100  C    5.999901
   101  O    7.999879
   102  C    6.000025
   103  N    6.999917
   104  C    5.999913
   105  C    6.000072
   106  C    5.999933
   107  C    6.000169
   108  C    6.000003
   109  C    5.999993
   110  C    5.999998
   111  N    7.000060
   112  C    6.000236
   113  C    6.000116
   114  C    6.000080
   115  C    6.000065
   116  C    5.999960
   117  C    6.000120
   118  O    8.000191
   119  C    5.999991
   120  C    5.999999
   121  O    8.000045
   122  O    8.000017
   123  C    5.999966
   124  H    0.999968
   125  H    0.999938
   126  H    1.000014
   127  H    1.000013
   128  H    0.999996
   129  H    1.000003
   130  H    0.999998
   131  H    0.999951
   132  H    1.000052
   133  H    0.999968
   134  H    0.999991
   135  H    1.000013
   136  H    0.999907
   137  H    0.999892
   138  H    0.999904
   139  H    0.999932
   140  H    0.999898
   141  H    0.999947
   142  H    0.999973
   143  H    0.999997
   144  H    0.999954
   145  H    1.000029
   146  H    0.999950
   147  H    0.999982
   148  H    1.000040
   149  H    1.000000
   150  H    1.000012
   151  H    0.999997
   152  H    1.000095
   153  H    1.000110
   154  H    1.000083
   155  H    1.000088
   156  H    1.000034
   157  H    1.000029
   158  H    1.000075
 Sum of Mulliken charges = 624.00000

 Dipole moment (field-independent basis, Debye):
    X=             -7.0804    Y=              6.5612    Z=              3.3460  Tot=             10.2165
 Quadrupole moment (field-independent basis, Debye-Ang):
   XX=            377.9208   YY=             -8.1177   ZZ=              1.4500
   XY=           -172.2885   XZ=            -95.1173   YZ=             -1.7761

 Normal termination of Gaussian 16 at Thu Oct 14 14:45:12 2021.
