 Gaussian 16, Revision A.03,
 Gaussian 16:  ES64L-G16RevA.03 25-Dec-2016

 --------------------------------------------------------
 #p PBE1PBE/Def2SVP td=(nstates=5) density=(transition=1)
 --------------------------------------------------------

 --------------------------------
 TDDFT excited states in gaussian
 --------------------------------
 Symbolic Z-matrix:
 Charge =  0 Multiplicity = 1

                         Standard orientation:
 ---------------------------------------------------------------------
 Center     Atomic      Atomic             Coordinates (Angstroms)
 Number     Number       Type             X           Y           Z
 ---------------------------------------------------------------------
      1         12           0       20.214783    0.286664    0.491108
      2          6           0       17.834183   -1.465561   -1.379215
      3          6           0       21.163726    1.913169   -2.196592
      4          6           0       22.989224    1.390982    2.190153
      5          6           0       19.544285   -1.817891    3.245522
      6          7           0       19.480739    0.266832   -1.484270
      7          6           0       18.465371   -0.454721   -2.072583
      8          6           0       18.166165    0.036727   -3.482960
      9          6           0       19.401488    0.951266   -3.763542
     10          6           0       19.986175    1.140986   -2.407251
     11          6           0       20.390653    0.564287   -4.841650
     12          6           0       16.765107    0.703667   -3.663145
     13          6           0       16.445403    1.176132   -5.085585
     14          1           0       15.123701    0.696224   -5.667212
     15          7           0       21.965668    1.499498    0.006494
     16          6           0       22.068314    2.194603   -1.145466
     17          6           0       23.206784    3.067683   -1.070794
     18          6           0       23.816905    2.842174    0.175168
     19          6           0       22.919428    1.861101    0.843667
     20          6           0       23.645819    3.980050   -2.196585
     21          6           0       25.014087    3.494018    0.785755
     22          8           0       25.591958    3.143322    1.849209
     23          6           0       25.624519    4.731235    0.138730
     24          7           0       21.126556   -0.170090    2.392317
     25          6           0       22.292375    0.371745    2.815313
     26          6           0       22.544253   -0.025891    4.368300
     27          6           0       21.167021   -0.663052    4.767355
     28          6           0       20.516869   -0.850744    3.434221
     29          6           0       23.786132   -0.996640    4.456135
     30          6           0       20.284057    0.366846    5.562465
     31          6           0       20.050758    1.752777    4.981497
     32          7           0       18.880928   -1.331952    0.933217
     33          6           0       18.758707   -2.043409    2.095097
     34          6           0       17.753232   -2.980384    1.894160
     35          6           0       17.317149   -2.869500    0.542476
     36          6           0       18.040384   -1.843890   -0.007311
     37          6           0       17.252793   -4.030634    2.821989
     38          6           0       16.434810   -3.383109   -0.529750
     39          8           0       15.639388   -4.313346   -0.595419
     40          6           0       16.678108   -2.402308   -1.803861
     41          6           0       16.837848   -3.196614   -3.050994
     42          8           0       17.413038   -4.323092   -3.122716
     43          8           0       16.127522   -2.586845   -3.990361
     44          6           0       15.786338   -3.433929   -5.117178
     45          1           0       21.445385    2.563827   -3.027261
     46          1           0       23.847059    1.759800    2.757498
     47          1           0       19.276557   -2.359706    4.153974
     48          1           0       18.099963   -0.878533   -4.071500
     49          1           0       19.122562    1.962828   -4.060569
     50          1           0       20.046262   -0.145317   -5.593926
     51          1           0       21.301756    0.192919   -4.371758
     52          1           0       20.799454    1.491882   -5.242827
     53          1           0       16.661200    1.531929   -2.961756
     54          1           0       15.994486   -0.005650   -3.363067
     55          1           0       17.033458    0.633141   -5.825273
     56          1           0       16.571167    2.254885   -5.182771
     57          1           0       23.107138    3.842892   -3.134119
     58          1           0       24.650082    3.807603   -2.582879
     59          1           0       23.580940    5.039580   -1.947113
     60          1           0       26.084410    4.423524   -0.799963
     61          1           0       26.521252    5.064293    0.660774
     62          1           0       24.929786    5.569181    0.070894
     63          1           0       22.802735    0.867775    4.936343
     64          1           0       21.424011   -1.615591    5.230694
     65          1           0       24.379641   -1.027795    3.542250
     66          1           0       23.525997   -2.037568    4.648918
     67          1           0       24.519564   -0.699228    5.204240
     68          1           0       20.867655    0.412532    6.481993
     69          1           0       19.290679    0.005966    5.827334
     70          1           0       20.723876    1.925453    4.141463
     71          1           0       20.062394    2.582946    5.686908
     72          1           0       19.001631    1.706936    4.689276
     73          1           0       16.929501   -3.655186    3.793201
     74          1           0       18.110545   -4.678475    3.000395
     75          1           0       16.460190   -4.635009    2.382037
     76          1           0       15.745096   -1.844231   -1.877843
     77          1           0       14.746141   -3.273353   -5.403310
     78          1           0       15.864215   -4.508687   -4.954819
     79          1           0       16.434838   -3.116900   -5.934556
     80         12           0      -20.076333   -0.600712   -0.447203
     81          6           0      -19.794746    2.908413   -0.635153
     82          6           0      -16.699546   -0.720920   -0.011288
     83          6           0      -20.434315   -3.868825    0.487001
     84          6           0      -23.604045   -0.097817   -0.398658
     85          7           0      -18.427297    0.966980   -0.192567
     86          6           0      -18.477113    2.306891   -0.450652
     87          6           0      -17.128367    3.000794   -0.193228
     88          6           0      -16.197602    1.705036   -0.386125
     89          6           0      -17.168469    0.567787   -0.186932
     90          6           0      -15.471024    1.594901   -1.753415
     91          6           0      -16.966924    3.616296    1.269123
     92          6           0      -15.978914    4.752409    1.484040
     93          1           0      -14.676455    4.567606    2.291488
     94          7           0      -18.762944   -2.196442    0.146302
     95          6           0      -17.408622   -2.032067    0.114479
     96          6           0      -16.750411   -3.253435    0.267891
     97          6           0      -17.807060   -4.232152    0.393532
     98          6           0      -19.090670   -3.475087    0.381372
     99          6           0      -15.238054   -3.440893    0.261254
    100          6           0      -17.531990   -5.711927    0.537304
    101          8           0      -16.343661   -6.124937    0.540726
    102          6           0      -18.655584   -6.806871    0.574122
    103          7           0      -21.772631   -1.735928   -0.042949
    104          6           0      -21.657469   -3.110635    0.298714
    105          6           0      -22.997331   -3.782231    0.180271
    106          6           0      -24.014649   -2.622508    0.246368
    107          6           0      -23.127862   -1.409840   -0.160936
    108          6           0      -23.333153   -4.612407   -1.079261
    109          6           0      -24.601784   -2.403185    1.738767
    110          6           0      -25.777470   -3.256918    2.189487
    111          7           0      -21.413037    1.068992   -0.691888
    112          6           0      -22.798738    1.113689   -0.659382
    113          6           0      -23.270708    2.408831   -0.760472
    114          6           0      -22.103676    3.190242   -0.811910
    115          6           0      -21.001924    2.321070   -0.741495
    116          6           0      -24.713998    2.801380   -0.796694
    117          6           0      -21.634383    4.460051   -1.001051
    118          8           0      -22.229982    5.482468   -1.278037
    119          6           0      -20.138619    4.355727   -0.636045
    120          6           0      -20.017481    5.042101    0.691734
    121          8           0      -20.624025    4.722684    1.666491
    122          8           0      -19.161380    6.140165    0.590798
    123          6           0      -19.144305    6.921878    1.778067
    124          1           0      -15.614493   -0.827440   -0.076460
    125          1           0      -20.605052   -4.943756    0.580476
    126          1           0      -24.687827   -0.039399   -0.517025
    127          1           0      -16.847896    3.678665   -0.998717
    128          1           0      -15.414046    1.776826    0.367676
    129          1           0      -14.475336    1.973257   -1.520302
    130          1           0      -15.914976    2.240544   -2.511050
    131          1           0      -15.390545    0.558933   -2.083058
    132          1           0      -16.624018    2.852073    1.966669
    133          1           0      -17.970975    3.877025    1.604496
    134          1           0      -16.576743    5.530723    1.960522
    135          1           0      -15.705965    5.130263    0.498866
    136          1           0      -14.806308   -4.335182   -0.189378
    137          1           0      -15.069359   -3.337223    1.332866
    138          1           0      -14.770996   -2.666776   -0.347635
    139          1           0      -19.202515   -6.796279   -0.368281
    140          1           0      -19.243680   -6.503165    1.439929
    141          1           0      -18.336913   -7.814048    0.842389
    142          1           0      -23.116482   -4.384485    1.080349
    143          1           0      -24.850274   -2.765282   -0.438891
    144          1           0      -24.112723   -4.194169   -1.715768
    145          1           0      -23.275725   -5.682025   -0.876400
    146          1           0      -22.451000   -4.493153   -1.708095
    147          1           0      -24.878678   -1.351098    1.674450
    148          1           0      -23.817362   -2.526659    2.485690
    149          1           0      -25.531293   -3.729815    3.139823
    150          1           0      -25.968797   -4.027451    1.442128
    151          1           0      -26.663382   -2.648370    2.372792
    152          1           0      -24.824847    3.597215   -0.060745
    153          1           0      -25.376607    1.999103   -0.469690
    154          1           0      -25.024272    3.188366   -1.767451
    155          1           0      -19.569503    4.891882   -1.394701
    156          1           0      -19.882936    7.719287    1.701138
    157          1           0      -18.229176    7.501868    1.903366
    158          1           0      -19.357081    6.331540    2.667683
 ---------------------------------------------------------------------

 SCF Done:  E(RPBE1PBE) =  -4067.36382355     A.U. after   16 cycles

 Excitation energies and oscillator strengths:

 Excited State   1:      Singlet-A      1.8526 eV  669.25 nm  f=0.3608  <S**2>=0.000
     310 -> 316       -0.15584
     312 -> 314        0.69421
     312 <- 314       -0.11131
 This state for optimization and/or second-order correction.
 Total Energy, E(TD-HF/TD-DFT) =  -4067.29574192
 Copying the excited state density for this state as the 1-particle RhoCI density.

 Excited State   2:      Singlet-A      1.9093 eV  649.37 nm  f=0.0000  <S**2>=0.000
     312 -> 313        0.70711

 Excited State   3:      Singlet-A      2.0485 eV  605.24 nm  f=0.0000  <S**2>=0.000
     311 -> 314        0.70710

 Excited State   4:      Singlet-A      2.3658 eV  524.07 nm  f=0.0000  <S**2>=0.000
     310 -> 313        0.70710

 Excited State   5:      Singlet-A      2.5062 eV  494.72 nm  f=0.0000  <S**2>=0.000
     309 -> 314        0.70710

 The electronic state is 1-A.
 Alpha  occ. eigenvalues --  -46.93693 -46.92783 -19.27359 -19.26016 -19.21082
 Alpha  occ. eigenvalues --  -19.19432 -19.19123 -19.18930 -19.18358 -19.18155
 Alpha  occ. eigenvalues --  -14.42501 -14.42360 -14.42336 -14.41399 -14.39441
 Alpha  occ. eigenvalues --  -14.39259 -14.38834 -14.37891 -10.36681 -10.36338
 Alpha  occ. eigenvalues --  -10.32681 -10.32226 -10.32224 -10.30460 -10.30109
 Alpha  occ. eigenvalues --  -10.30098 -10.29619 -10.29451 -10.29293 -10.28887
 Alpha  occ. eigenvalues --  -10.28716 -10.28536 -10.28357 -10.28203 -10.28194
 Alpha  occ. eigenvalues --  -10.28050 -10.27997 -10.27919 -10.27686 -10.27080
 Alpha  occ. eigenvalues --  -10.27050 -10.26788 -10.26587 -10.26370 -10.26243
 Alpha  occ. eigenvalues --  -10.26214 -10.26164 -10.26111 -10.26011 -10.25966
 Alpha  occ. eigenvalues --  -10.25844 -10.25838 -10.25829 -10.25696 -10.25690
 Alpha  occ. eigenvalues --  -10.25661 -10.25633 -10.25605 -10.25578 -10.25496
 Alpha  occ. eigenvalues --  -10.25460 -10.25252 -10.25239 -10.25211 -10.25014
 Alpha  occ. eigenvalues --  -10.25006 -10.24928 -10.24708 -10.24539 -10.24237
 Alpha  occ. eigenvalues --  -10.24231 -10.24171 -10.24057 -10.23988 -10.23899
 Alpha  occ. eigenvalues --  -10.23759 -10.23658 -10.23553 -10.23279 -10.23227
 Alpha  occ. eigenvalues --  -10.23156 -10.23102 -10.22881 -10.22550 -10.22309
 Alpha  occ. eigenvalues --  -10.21873  -3.15572  -3.14756  -1.88410  -1.87939
 Alpha  occ. eigenvalues --   -1.87790  -1.87605  -1.87099  -1.86992  -1.12982
 Alpha  occ. eigenvalues --   -1.12361  -1.04826  -1.04292  -1.03761  -1.02861
 Alpha  occ. eigenvalues --   -1.02053  -1.00806  -1.00332  -0.99915  -0.99344
 Alpha  occ. eigenvalues --   -0.98957  -0.98596  -0.98117  -0.97235  -0.96522
 Alpha  occ. eigenvalues --   -0.88718  -0.86313  -0.83851  -0.83580  -0.83222
 Alpha  occ. eigenvalues --   -0.83023  -0.82985  -0.82615  -0.82163  -0.81927
 Alpha  occ. eigenvalues --   -0.81463  -0.81420  -0.80239  -0.80215  -0.79123
 Alpha  occ. eigenvalues --   -0.78649  -0.78104  -0.77917  -0.77187  -0.77169
 Alpha  occ. eigenvalues --   -0.76152  -0.76070  -0.75660  -0.75008  -0.74871
 Alpha  occ. eigenvalues --   -0.74581  -0.72953  -0.72393  -0.71966  -0.71700
 Alpha  occ. eigenvalues --   -0.71693  -0.71214  -0.70530  -0.70275  -0.70044
 Alpha  occ. eigenvalues --   -0.69598  -0.68068  -0.67291  -0.66692  -0.66166
 Alpha  occ. eigenvalues --   -0.64196  -0.63912  -0.63594  -0.62912  -0.62792
 Alpha  occ. eigenvalues --   -0.62656  -0.62270  -0.61641  -0.60681  -0.59894
 Alpha  occ. eigenvalues --   -0.59818  -0.59793  -0.59303  -0.59283  -0.59082
 Alpha  occ. eigenvalues --   -0.58768  -0.57377  -0.57354  -0.55425  -0.55022
 Alpha  occ. eigenvalues --   -0.54719  -0.54297  -0.54139  -0.53891  -0.53774
 Alpha  occ. eigenvalues --   -0.53553  -0.53177  -0.52710  -0.52162  -0.51898
 Alpha  occ. eigenvalues --   -0.51124  -0.50806  -0.50564  -0.50343  -0.50188
 Alpha  occ. eigenvalues --   -0.50033  -0.49951  -0.49856  -0.49658  -0.48949
 Alpha  occ. eigenvalues --   -0.48444  -0.48157  -0.48050  -0.47807  -0.47530
 Alpha  occ. eigenvalues --   -0.47335  -0.47314  -0.47221  -0.47085  -0.46680
 Alpha  occ. eigenvalues --   -0.46424  -0.46327  -0.46171  -0.46051  -0.45781
 Alpha  occ. eigenvalues --   -0.45626  -0.45474  -0.45245  -0.45145  -0.44873
 Alpha  occ. eigenvalues --   -0.44714  -0.44709  -0.44474  -0.44338  -0.44123
 Alpha  occ. eigenvalues --   -0.43983  -0.43712  -0.43634  -0.43544  -0.43535
 Alpha  occ. eigenvalues --   -0.43272  -0.43093  -0.43068  -0.42934  -0.42732
 Alpha  occ. eigenvalues --   -0.42647  -0.42024  -0.42017  -0.41886  -0.41699
 Alpha  occ. eigenvalues --   -0.41670  -0.41528  -0.41278  -0.41198  -0.41125
 Alpha  occ. eigenvalues --   -0.41082  -0.41039  -0.40787  -0.40757  -0.40672
 Alpha  occ. eigenvalues --   -0.40539  -0.40218  -0.40058  -0.40020  -0.39840
 Alpha  occ. eigenvalues --   -0.39601  -0.39499  -0.39405  -0.39222  -0.39066
 Alpha  occ. eigenvalues --   -0.38663  -0.38655  -0.38625  -0.38550  -0.38191
 Alpha  occ. eigenvalues --   -0.38158  -0.38053  -0.37997  -0.37777  -0.37586
 Alpha  occ. eigenvalues --   -0.37490  -0.37413  -0.37302  -0.37294  -0.37081
 Alpha  occ. eigenvalues --   -0.37050  -0.36484  -0.36399  -0.36270  -0.36201
 Alpha  occ. eigenvalues --   -0.36171  -0.36000  -0.35836  -0.35706  -0.35380
 Alpha  occ. eigenvalues --   -0.35348  -0.35212  -0.34548  -0.34358  -0.34210
 Alpha  occ. eigenvalues --   -0.33650  -0.33484  -0.32855  -0.32821  -0.32627
 Alpha  occ. eigenvalues --   -0.32354  -0.32079  -0.32005  -0.31909  -0.31649
 Alpha  occ. eigenvalues --   -0.31604  -0.31366  -0.30386  -0.30249  -0.29304
 Alpha  occ. eigenvalues --   -0.29224  -0.29011  -0.28263  -0.27389  -0.27080
 Alpha  occ. eigenvalues --   -0.26373  -0.25695  -0.25625  -0.25337  -0.25266
 Alpha  occ. eigenvalues --   -0.25231  -0.24615  -0.24430  -0.21305  -0.21009
 Alpha  occ. eigenvalues --   -0.19626  -0.19334
 Alpha virt. eigenvalues --   -0.11987  -0.11772  -0.05978  -0.04923  -0.04269
 Alpha virt. eigenvalues --   -0.04128  -0.02070  -0.01856  -0.01389  -0.01052
 Alpha virt. eigenvalues --   -0.00275   0.00108   0.00517   0.00755   0.01250

 Mulliken charges:
               1
     1  Mg  12.005715
     2  C    5.977497
     3  C    6.001258
     4  C    6.022026
     5  C    6.000633
     6  N    6.981691
     7  C    6.035039
     8  C    5.991341
     9  C    6.008305
    10  C    5.967510
    11  C    6.001437
    12  C    5.997388
    13  C    6.002922
    14  H    0.997318
    15  N    7.005752
    16  C    5.966199
    17  C    5.981734
    18  C    5.981793
    19  C    5.971957
    20  C    6.004871
    21  C    5.988920
    22  O    7.966498
    23  C    6.005920
    24  N    7.007494
    25  C    5.972237
    26  C    6.004343
    27  C    5.988249
    28  C    6.028569
    29  C    6.001470
    30  C    5.990567
    31  C    5.997976
    32  N    6.997303
    33  C    6.029219
    34  C    6.031200
    35  C    5.998246
    36  C    6.034226
    37  C    5.999262
    38  C    6.013610
    39  O    8.024383
    40  C    6.005042
    41  C    6.005812
    42  O    8.001202
    43  O    8.002098
    44  C    5.998497
    45  H    0.989431
    46  H    0.997698
    47  H    1.013756
    48  H    0.998016
    49  H    0.997574
    50  H    0.985984
    51  H    1.000523
    52  H    1.001092
    53  H    1.005486
    54  H    0.993178
    55  H    1.002663
    56  H    1.005045
    57  H    0.984135
    58  H    0.982237
    59  H    0.982358
    60  H    0.992753
    61  H    0.985913
    62  H    0.991451
    63  H    1.002792
    64  H    1.002855
    65  H    1.006556
    66  H    0.990562
    67  H    1.000611
    68  H    1.011276
    69  H    0.998106
    70  H    1.014609
    71  H    1.005668
    72  H    0.995646
    73  H    1.019399
    74  H    1.019626
    75  H    1.014464
    76  H    1.004216
    77  H    1.002957
    78  H    1.000590
    79  H    1.006043
    80  Mg  12.000026
    81  C    6.000201
    82  C    6.001921
    83  C    6.000364
    84  C    5.998008
    85  N    7.000761
    86  C    6.002298
    87  C    5.999103
    88  C    6.000880
    89  C    5.997241
    90  C    6.000244
    91  C    5.999893
    92  C    5.999873
    93  H    1.000784
    94  N    7.000374
    95  C    5.996884
    96  C    5.998712
    97  C    5.999036
    98  C    5.997440
    99  C    5.999982
   100  C    5.999195
   101  O    7.998009
   102  C    6.000071
   103  N    6.998918
   104  C    5.997884
   105  C    6.000809
   106  C    5.999459
   107  C    6.002935
   108  C    5.999807
   109  C    5.999901
   110  C    6.000049
   111  N    7.000164
   112  C    6.002704
   113  C    6.001735
   114  C    6.000500
   115  C    6.001398
   116  C    5.999838
   117  C    6.001410
   118  O    8.002645
   119  C    5.999528
   120  C    6.000353
   121  O    8.000336
   122  O    8.000261
   123  C    5.999697
   124  H    0.999577
   125  H    0.999162
   126  H    1.000407
   127  H    1.000120
   128  H    0.999834
   129  H    0.999659
   130  H    0.999187
   131  H    1.000524
   132  H    1.000847
   133  H    0.999566
   134  H    0.999906
   135  H    1.000130
   136  H    0.998912
   137  H    0.998728
   138  H    0.998546
   139  H    0.999308
   140  H    0.999421
   141  H    0.998932
   142  H    0.999886
   143  H    1.000020
   144  H    0.999041
   145  H    0.999929
   146  H    1.000164
   147  H    0.999461
   148  H    1.000710
   149  H    1.000300
   150  H    1.000314
   151  H    0.999856
   152  H    1.001087
   153  H    1.001432
   154  H    1.001342
   155  H    1.000890
   156  H    1.000285
   157  H    1.000540
   158  H    1.000347
 Sum of Mulliken charges = 624.00000

 Dipole moment (field-independent basis, Debye):
    X=             -7.3750    Y=             -6.2647    Z=              3.0117  Tot=             10.1345
 Quadrupole moment (field-independent basis, Debye-Ang):
   XX=           -271.0666   YY=             -1.1245   ZZ=              5.5620
   XY=           -158.1330   XZ=             63.0003   YZ=             -1.5655

 Normal termination of Gaussian 16 at Thu Oct 14 08:37:31 2021.
