 Gaussian 16, Revision A.03,
 Gaussian 16:  ES64L-G16RevA.03 25-Dec-2016

 --------------------------------------------------------
 #p PBE1PBE/Def2SVP td=(nstates=5) density=(transition=1)
 --------------------------------------------------------

 --------------------------------
 TDDFT excited states in gaussian
 --------------------------------
 Symbolic Z-matrix:
 Charge =  0 Multiplicity = 1

                         Standard orientation:
 ---------------------------------------------------------------------
 Center     Atomic      Atomic             Coordinates (Angstroms)
 Number     Number       Type             X           Y           Z
 ---------------------------------------------------------------------
      1         12           0      -31.860285    0.134268    0.285583
      2          6           0      -29.617411   -1.518267   -1.803956
      3          6           0      -32.657955    2.264030   -2.295634
      4          6           0      -33.781111    1.795810    2.510904
      5          6           0      -30.657305   -1.877472    2.982887
      6          7           0      -31.114843    0.381936   -1.742833
      7          6           0      -30.228264   -0.405930   -2.409671
      8          6           0      -30.119338   -0.001598   -3.885590
      9          6           0      -31.017719    1.312908   -3.921929
     10          6           0      -31.656282    1.300782   -2.529100
     11          6           0      -30.185971    2.569660   -4.148060
     12          6           0      -30.727835   -1.012819   -4.921355
     13          6           0      -30.133724   -1.027057   -6.305823
     14          1           0      -29.286025    0.083487   -6.740365
     15          7           0      -33.097377    1.713763    0.100878
     16          6           0      -33.282337    2.473484   -1.071552
     17          6           0      -34.363963    3.382167   -0.795106
     18          6           0      -34.759173    3.251825    0.560291
     19          6           0      -33.864047    2.216056    1.132325
     20          6           0      -34.804891    4.462331   -1.759587
     21          6           0      -35.828584    3.908911    1.327808
     22          8           0      -35.920804    3.840034    2.534918
     23          6           0      -36.832447    4.887127    0.616568
     24          7           0      -32.339735   -0.101174    2.463064
     25          6           0      -33.122514    0.717712    3.099765
     26          6           0      -33.188570    0.377625    4.619146
     27          6           0      -32.271734   -0.821349    4.779905
     28          6           0      -31.642072   -0.958744    3.347051
     29          6           0      -32.862584    1.675901    5.497457
     30          6           0      -33.003099   -2.079281    5.294299
     31          6           0      -32.947703   -2.361643    6.842232
     32          7           0      -30.686883   -1.496910    0.538964
     33          6           0      -30.277297   -2.217828    1.688096
     34          6           0      -29.396750   -3.269141    1.346497
     35          6           0      -29.057492   -2.950314   -0.036771
     36          6           0      -29.917099   -1.887007   -0.435387
     37          6           0      -28.680289   -4.185225    2.321741
     38          6           0      -28.177973   -3.369711   -1.064755
     39          8           0      -27.352522   -4.272357   -1.124177
     40          6           0      -28.607072   -2.433162   -2.376131
     41          6           0      -27.324414   -1.817507   -2.852917
     42          8           0      -26.595744   -1.096459   -2.163294
     43          8           0      -26.953094   -2.260806   -4.156937
     44          6           0      -25.675917   -1.697520   -4.696185
     45          1           0      -32.860432    2.903894   -3.157884
     46          1           0      -34.274253    2.492161    3.191815
     47          1           0      -30.293196   -2.553330    3.759022
     48          1           0      -29.066275    0.218802   -4.061878
     49          1           0      -31.761727    1.296829   -4.718247
     50          1           0      -29.185361    2.322425   -4.501647
     51          1           0      -30.166863    3.225474   -3.277207
     52          1           0      -30.513721    3.167160   -4.998782
     53          1           0      -31.797326   -0.814170   -4.981457
     54          1           0      -30.689588   -1.995638   -4.451053
     55          1           0      -30.967256   -0.985898   -7.006641
     56          1           0      -29.552619   -1.940393   -6.433493
     57          1           0      -34.588844    5.469718   -1.403944
     58          1           0      -35.869033    4.324098   -1.955411
     59          1           0      -34.322923    4.458812   -2.737102
     60          1           0      -36.311669    5.842149    0.542419
     61          1           0      -37.673040    5.105553    1.275339
     62          1           0      -37.070285    4.538574   -0.387704
     63          1           0      -34.238397    0.122223    4.764348
     64          1           0      -31.401667   -0.586434    5.391077
     65          1           0      -32.027219    1.483625    6.170587
     66          1           0      -33.662746    1.948413    6.185911
     67          1           0      -32.593024    2.437557    4.764643
     68          1           0      -32.544811   -2.923682    4.778256
     69          1           0      -34.034069   -2.001462    4.948802
     70          1           0      -32.027614   -2.911398    7.043609
     71          1           0      -33.799451   -2.844173    7.321978
     72          1           0      -32.779073   -1.353009    7.217976
     73          1           0      -29.411826   -4.972200    2.503232
     74          1           0      -28.458387   -3.674679    3.258119
     75          1           0      -27.663771   -4.478021    2.055818
     76          1           0      -29.086622   -3.070954   -3.119695
     77          1           0      -24.819182   -1.997015   -4.093597
     78          1           0      -25.597557   -0.617390   -4.822634
     79          1           0      -25.640822   -2.237314   -5.642487
     80         12           0       31.739791    0.573685   -0.417754
     81          6           0       29.571822   -2.212625    0.200947
     82          6           0       29.024213    2.664251    0.462154
     83          6           0       33.892241    3.141292   -0.231621
     84          6           0       34.385766   -1.636731   -0.579781
     85          7           0       29.520514    0.281169    0.252307
     86          6           0       28.963317   -0.952940    0.438550
     87          6           0       27.634141   -0.808310    1.162582
     88          6           0       27.415456    0.747503    0.945769
     89          6           0       28.711021    1.332583    0.529585
     90          6           0       26.298663    1.181116   -0.062199
     91          6           0       27.748755   -1.374464    2.614296
     92          6           0       26.603743   -2.304633    3.190934
     93          1           0       25.804647   -1.853631    4.426819
     94          7           0       31.512252    2.573727   -0.152450
     95          6           0       30.323475    3.272227    0.186498
     96          6           0       30.575615    4.699670    0.257103
     97          6           0       32.011093    4.821008    0.059006
     98          6           0       32.510024    3.471392   -0.127382
     99          6           0       29.520909    5.656130    0.629854
    100          6           0       32.738032    6.176976    0.042739
    101          8           0       32.034254    7.192649    0.316548
    102          6           0       34.232918    6.388798   -0.277785
    103          7           0       33.903579    0.788773   -0.136496
    104          6           0       34.545947    1.933581   -0.267272
    105          6           0       36.014674    1.663278   -0.207166
    106          6           0       36.124474    0.124846   -0.381217
    107          6           0       34.694933   -0.309777   -0.276832
    108          6           0       37.005024    2.441326   -1.175223
    109          6           0       37.078067   -0.624131    0.685847
    110          6           0       38.356600   -1.327436    0.168004
    111          7           0       31.958961   -1.453636   -0.433958
    112          6           0       33.068516   -2.208199   -0.505433
    113          6           0       32.761644   -3.590962   -0.464449
    114          6           0       31.384634   -3.627215   -0.232957
    115          6           0       30.927366   -2.286351   -0.175943
    116          6           0       33.622443   -4.779987   -0.617731
    117          6           0       30.328258   -4.564009   -0.003709
    118          8           0       30.396639   -5.769158    0.088411
    119          6           0       29.022648   -3.608024    0.354585
    120          6           0       27.939465   -3.864275   -0.602130
    121          8           0       28.075297   -3.990818   -1.825672
    122          8           0       26.769856   -3.901843    0.126653
    123          6           0       25.542557   -4.151867   -0.627354
    124          1           0       28.225637    3.361554    0.719999
    125          1           0       34.643170    3.918396   -0.076822
    126          1           0       35.145186   -2.372671   -0.852724
    127          1           0       26.890329   -1.298546    0.533954
    128          1           0       27.267185    1.021686    1.990910
    129          1           0       26.770546    1.811510   -0.817235
    130          1           0       25.502814    1.778199    0.382466
    131          1           0       25.841038    0.373754   -0.634720
    132          1           0       27.773654   -0.435021    3.166051
    133          1           0       28.681736   -1.883534    2.855101
    134          1           0       27.096736   -3.256380    3.388168
    135          1           0       25.949281   -2.583694    2.365717
    136          1           0       29.092117    5.289200    1.562674
    137          1           0       28.713757    5.623093   -0.101640
    138          1           0       29.777919    6.715416    0.655295
    139          1           0       34.813102    6.012675    0.565004
    140          1           0       34.279741    7.409286   -0.656510
    141          1           0       34.384673    5.741225   -1.141994
    142          1           0       36.344988    1.968844    0.784847
    143          1           0       36.368009    0.039692   -1.440321
    144          1           0       37.943871    2.481771   -0.622359
    145          1           0       36.581131    3.423015   -1.386077
    146          1           0       37.116420    1.821042   -2.064741
    147          1           0       36.408854   -1.336087    1.168652
    148          1           0       37.297138    0.087683    1.481623
    149          1           0       38.457224   -2.346726    0.538470
    150          1           0       39.222521   -0.736958    0.468537
    151          1           0       38.439255   -1.341323   -0.918930
    152          1           0       33.042289   -5.670346   -0.858103
    153          1           0       34.025842   -4.795436    0.394923
    154          1           0       34.503816   -4.485014   -1.187041
    155          1           0       28.750099   -3.688211    1.406301
    156          1           0       25.630851   -5.034419   -1.261328
    157          1           0       25.292054   -3.274232   -1.225082
    158          1           0       24.733497   -4.341276    0.078126
 ---------------------------------------------------------------------

 SCF Done:  E(RPBE1PBE) =  -4067.38853606     A.U. after   16 cycles

 Excitation energies and oscillator strengths:

 Excited State   1:      Singlet-A      1.8459 eV  671.68 nm  f=0.3556  <S**2>=0.000
     310 -> 315        0.17465
     311 -> 313        0.69229
     311 <- 313       -0.10446
 This state for optimization and/or second-order correction.
 Total Energy, E(TD-HF/TD-DFT) =  -4067.32070120
 Copying the excited state density for this state as the 1-particle RhoCI density.

 Excited State   2:      Singlet-A      1.8632 eV  665.42 nm  f=0.3818  <S**2>=0.000
     309 -> 316       -0.18038
     312 -> 314        0.69248
     312 <- 314       -0.10916

 Excited State   3:      Singlet-A      1.9536 eV  634.66 nm  f=0.0000  <S**2>=0.000
     312 -> 313        0.70711

 Excited State   4:      Singlet-A      2.0683 eV  599.46 nm  f=0.0000  <S**2>=0.000
     311 -> 314        0.70711

 Excited State   5:      Singlet-A      2.2119 eV  560.54 nm  f=0.1398  <S**2>=0.000
     310 -> 313        0.66070
     311 -> 315       -0.23956

 The electronic state is 1-A.
 Alpha  occ. eigenvalues --  -46.92281 -46.91407 -19.26847 -19.24914 -19.20709
 Alpha  occ. eigenvalues --  -19.19956 -19.19776 -19.19179 -19.18883 -19.18415
 Alpha  occ. eigenvalues --  -14.42145 -14.41379 -14.41210 -14.40957 -14.39739
 Alpha  occ. eigenvalues --  -14.39594 -14.39438 -14.39218 -10.37016 -10.36197
 Alpha  occ. eigenvalues --  -10.32572 -10.32468 -10.32296 -10.31816 -10.29607
 Alpha  occ. eigenvalues --  -10.29093 -10.29010 -10.28918 -10.28810 -10.28779
 Alpha  occ. eigenvalues --  -10.28493 -10.28484 -10.28395 -10.28326 -10.28270
 Alpha  occ. eigenvalues --  -10.28106 -10.28037 -10.28023 -10.27426 -10.27117
 Alpha  occ. eigenvalues --  -10.26897 -10.26860 -10.26747 -10.26468 -10.26312
 Alpha  occ. eigenvalues --  -10.26285 -10.26015 -10.25975 -10.25859 -10.25792
 Alpha  occ. eigenvalues --  -10.25785 -10.25637 -10.25593 -10.25491 -10.25450
 Alpha  occ. eigenvalues --  -10.25432 -10.25415 -10.25414 -10.25353 -10.25259
 Alpha  occ. eigenvalues --  -10.25183 -10.25145 -10.25090 -10.25064 -10.24902
 Alpha  occ. eigenvalues --  -10.24894 -10.24893 -10.24794 -10.24613 -10.24506
 Alpha  occ. eigenvalues --  -10.24289 -10.24148 -10.24107 -10.23998 -10.23936
 Alpha  occ. eigenvalues --  -10.23889 -10.23687 -10.23600 -10.23508 -10.23472
 Alpha  occ. eigenvalues --  -10.23387 -10.23311 -10.23239 -10.22776 -10.22520
 Alpha  occ. eigenvalues --  -10.22278  -3.14414  -3.13679  -1.87243  -1.86776
 Alpha  occ. eigenvalues --   -1.86655  -1.86533  -1.86046  -1.85923  -1.11230
 Alpha  occ. eigenvalues --   -1.08274  -1.05570  -1.05566  -1.03749  -1.02895
 Alpha  occ. eigenvalues --   -1.01977  -1.00750  -1.00105  -0.99806  -0.99395
 Alpha  occ. eigenvalues --   -0.98746  -0.98326  -0.98170  -0.97023  -0.96854
 Alpha  occ. eigenvalues --   -0.87474  -0.86624  -0.83662  -0.83578  -0.83245
 Alpha  occ. eigenvalues --   -0.82659  -0.82603  -0.82406  -0.82280  -0.82036
 Alpha  occ. eigenvalues --   -0.81808  -0.81753  -0.80751  -0.80333  -0.78930
 Alpha  occ. eigenvalues --   -0.78558  -0.78100  -0.77389  -0.76969  -0.76480
 Alpha  occ. eigenvalues --   -0.76203  -0.75733  -0.75688  -0.74782  -0.74605
 Alpha  occ. eigenvalues --   -0.74307  -0.72852  -0.72572  -0.71947  -0.71666
 Alpha  occ. eigenvalues --   -0.71197  -0.71183  -0.70569  -0.70218  -0.69700
 Alpha  occ. eigenvalues --   -0.69421  -0.67660  -0.67659  -0.66655  -0.66063
 Alpha  occ. eigenvalues --   -0.64157  -0.63841  -0.63832  -0.63382  -0.62839
 Alpha  occ. eigenvalues --   -0.62600  -0.61673  -0.61207  -0.60580  -0.60198
 Alpha  occ. eigenvalues --   -0.60141  -0.59739  -0.59642  -0.59488  -0.59282
 Alpha  occ. eigenvalues --   -0.59248  -0.57487  -0.56079  -0.54803  -0.54709
 Alpha  occ. eigenvalues --   -0.54546  -0.54279  -0.54044  -0.53950  -0.53461
 Alpha  occ. eigenvalues --   -0.53246  -0.52910  -0.52430  -0.52213  -0.51888
 Alpha  occ. eigenvalues --   -0.50831  -0.50765  -0.50412  -0.50146  -0.49548
 Alpha  occ. eigenvalues --   -0.49429  -0.49225  -0.49106  -0.48628  -0.48307
 Alpha  occ. eigenvalues --   -0.47959  -0.47862  -0.47732  -0.47551  -0.47384
 Alpha  occ. eigenvalues --   -0.47089  -0.47060  -0.46846  -0.46760  -0.46674
 Alpha  occ. eigenvalues --   -0.46596  -0.46309  -0.46227  -0.45918  -0.45865
 Alpha  occ. eigenvalues --   -0.45773  -0.45296  -0.45158  -0.44951  -0.44677
 Alpha  occ. eigenvalues --   -0.44570  -0.44512  -0.44454  -0.44216  -0.44200
 Alpha  occ. eigenvalues --   -0.44024  -0.43888  -0.43848  -0.43641  -0.43472
 Alpha  occ. eigenvalues --   -0.43174  -0.43147  -0.43040  -0.42871  -0.42551
 Alpha  occ. eigenvalues --   -0.42423  -0.42381  -0.42348  -0.42320  -0.42253
 Alpha  occ. eigenvalues --   -0.42149  -0.41907  -0.41792  -0.41745  -0.41670
 Alpha  occ. eigenvalues --   -0.41576  -0.41364  -0.41126  -0.40779  -0.40682
 Alpha  occ. eigenvalues --   -0.40504  -0.40364  -0.40045  -0.39997  -0.39862
 Alpha  occ. eigenvalues --   -0.39778  -0.39515  -0.39304  -0.39292  -0.38907
 Alpha  occ. eigenvalues --   -0.38836  -0.38737  -0.38561  -0.38425  -0.38344
 Alpha  occ. eigenvalues --   -0.38285  -0.38089  -0.37948  -0.37914  -0.37784
 Alpha  occ. eigenvalues --   -0.37757  -0.37638  -0.37576  -0.37218  -0.37041
 Alpha  occ. eigenvalues --   -0.36860  -0.36751  -0.36503  -0.36419  -0.36211
 Alpha  occ. eigenvalues --   -0.36118  -0.35908  -0.35731  -0.35692  -0.35272
 Alpha  occ. eigenvalues --   -0.35173  -0.35103  -0.34733  -0.34437  -0.33929
 Alpha  occ. eigenvalues --   -0.33737  -0.33615  -0.33215  -0.32818  -0.32634
 Alpha  occ. eigenvalues --   -0.32574  -0.32303  -0.32059  -0.31512  -0.31255
 Alpha  occ. eigenvalues --   -0.30855  -0.30796  -0.29912  -0.29728  -0.29265
 Alpha  occ. eigenvalues --   -0.29200  -0.28630  -0.28590  -0.27014  -0.26985
 Alpha  occ. eigenvalues --   -0.26107  -0.26048  -0.25724  -0.25705  -0.25511
 Alpha  occ. eigenvalues --   -0.25193  -0.25100  -0.24897  -0.21140  -0.21122
 Alpha  occ. eigenvalues --   -0.19154  -0.18938
 Alpha virt. eigenvalues --   -0.11551  -0.11344  -0.05250  -0.05214  -0.03994
 Alpha virt. eigenvalues --   -0.03920  -0.02052  -0.02034  -0.00544  -0.00183
 Alpha virt. eigenvalues --   -0.00014   0.00904   0.01124   0.01306   0.01840

 Mulliken charges:
               1
     1  Mg  12.000660
     2  C    5.972449
     3  C    6.000880
     4  C    6.020150
     5  C    6.001643
     6  N    6.984015
     7  C    6.035140
     8  C    5.988358
     9  C    6.012074
    10  C    5.974107
    11  C    6.004069
    12  C    5.997849
    13  C    5.999706
    14  H    1.004176
    15  N    7.008817
    16  C    5.965873
    17  C    5.979545
    18  C    5.982609
    19  C    5.972752
    20  C    6.004330
    21  C    5.990544
    22  O    7.969342
    23  C    6.002008
    24  N    7.007533
    25  C    5.972615
    26  C    6.001626
    27  C    5.996140
    28  C    6.023247
    29  C    6.002469
    30  C    5.996106
    31  C    6.001243
    32  N    6.999707
    33  C    6.031455
    34  C    6.025787
    35  C    6.006198
    36  C    6.028331
    37  C    5.999748
    38  C    6.013984
    39  O    8.030867
    40  C    6.007975
    41  C    6.004282
    42  O    8.003452
    43  O    8.002091
    44  C    5.998481
    45  H    0.986522
    46  H    0.997867
    47  H    1.011924
    48  H    0.997497
    49  H    0.997262
    50  H    0.985580
    51  H    1.002036
    52  H    0.996693
    53  H    1.009500
    54  H    0.992631
    55  H    1.003192
    56  H    0.995817
    57  H    0.982190
    58  H    0.983644
    59  H    0.984178
    60  H    0.991833
    61  H    0.986297
    62  H    0.995405
    63  H    1.003755
    64  H    0.999733
    65  H    0.992517
    66  H    1.000898
    67  H    1.005838
    68  H    0.994388
    69  H    1.009889
    70  H    0.998201
    71  H    1.004788
    72  H    1.005720
    73  H    1.014729
    74  H    1.016201
    75  H    1.012793
    76  H    1.005716
    77  H    1.000387
    78  H    1.006130
    79  H    1.003821
    80  Mg  11.999996
    81  C    6.000064
    82  C    5.999884
    83  C    5.999923
    84  C    6.000096
    85  N    6.999931
    86  C    5.999873
    87  C    6.000053
    88  C    5.999951
    89  C    6.000211
    90  C    5.999978
    91  C    6.000047
    92  C    6.000008
    93  H    0.999925
    94  N    7.000020
    95  C    6.000285
    96  C    6.000040
    97  C    6.000081
    98  C    6.000154
    99  C    5.999939
   100  C    6.000051
   101  O    8.000155
   102  C    5.999999
   103  N    7.000054
   104  C    6.000186
   105  C    5.999924
   106  C    6.000058
   107  C    5.999821
   108  C    5.999980
   109  C    6.000001
   110  C    6.000005
   111  N    6.999967
   112  C    5.999805
   113  C    5.999875
   114  C    5.999962
   115  C    5.999833
   116  C    6.000003
   117  C    5.999946
   118  O    7.999819
   119  C    5.999958
   120  C    5.999978
   121  O    7.999980
   122  O    7.999992
   123  C    6.000027
   124  H    1.000029
   125  H    1.000054
   126  H    0.999987
   127  H    0.999991
   128  H    1.000006
   129  H    0.999982
   130  H    0.999997
   131  H    1.000048
   132  H    0.999940
   133  H    1.000037
   134  H    1.000014
   135  H    0.999987
   136  H    1.000114
   137  H    1.000113
   138  H    1.000086
   139  H    1.000061
   140  H    1.000082
   141  H    1.000043
   142  H    1.000008
   143  H    0.999991
   144  H    1.000042
   145  H    0.999968
   146  H    1.000049
   147  H    1.000026
   148  H    0.999962
   149  H    1.000014
   150  H    0.999982
   151  H    1.000000
   152  H    0.999929
   153  H    0.999902
   154  H    0.999902
   155  H    0.999931
   156  H    0.999977
   157  H    0.999961
   158  H    0.999945
 Sum of Mulliken charges = 624.00000

 Dipole moment (field-independent basis, Debye):
    X=              6.1588    Y=             -7.7484    Z=              1.9074  Tot=             10.0800
 Quadrupole moment (field-independent basis, Debye-Ang):
   XX=           -391.4878   YY=             -3.1245   ZZ=              3.8298
   XY=            252.1245   XZ=            -60.1182   YZ=             -1.9444

 Normal termination of Gaussian 16 at Fri Oct 15 10:08:26 2021.
