 Gaussian 16, Revision A.03,
 Gaussian 16:  ES64L-G16RevA.03 25-Dec-2016

 --------------------------------------------------------
 #p PBE1PBE/Def2SVP td=(nstates=5) density=(transition=1)
 --------------------------------------------------------

 --------------------------------
 TDDFT excited states in gaussian
 --------------------------------
 Symbolic Z-matrix:
 Charge =  0 Multiplicity = 1

                         Standard orientation:
 ---------------------------------------------------------------------
 Center     Atomic      Atomic             Coordinates (Angstroms)
 Number     Number       Type             X           Y           Z
 ---------------------------------------------------------------------
      1         12           0      -23.659749    0.431694    0.269026
      2          6           0      -22.638505   -2.488636   -1.225146
      3          6           0      -22.395711    2.192412   -2.552623
      4          6           0      -24.107752    3.401585    1.821027
      5          6           0      -24.543023   -1.202001    3.062144
      6          7           0      -22.626494   -0.102777   -1.670786
      7          6           0      -22.315394   -1.388113   -2.025030
      8          6           0      -21.726739   -1.442454   -3.436580
      9          6           0      -21.493123    0.112839   -3.720919
     10          6           0      -22.207869    0.786498   -2.586245
     11          6           0      -19.983239    0.515734   -3.898754
     12          6           0      -22.696418   -2.118442   -4.510145
     13          6           0      -22.205952   -3.102989   -5.544312
     14          1           0      -20.975325   -2.770206   -6.310716
     15          7           0      -23.356957    2.547231   -0.286668
     16          6           0      -23.018361    3.034488   -1.500598
     17          6           0      -23.172356    4.449659   -1.555626
     18          6           0      -23.708703    4.839017   -0.287803
     19          6           0      -23.670880    3.566674    0.493255
     20          6           0      -22.742771    5.169063   -2.793339
     21          6           0      -24.004159    6.235665    0.231823
     22          8           0      -24.197176    6.468896    1.429081
     23          6           0      -24.051538    7.413847   -0.725189
     24          7           0      -24.108332    1.043265    2.259187
     25          6           0      -24.362662    2.332127    2.607285
     26          6           0      -24.956400    2.404661    4.013074
     27          6           0      -25.254362    0.888985    4.325680
     28          6           0      -24.606958    0.189823    3.146613
     29          6           0      -24.231937    3.173335    5.157403
     30          6           0      -26.768950    0.498243    4.585978
     31          6           0      -27.643233    0.016385    3.447651
     32          7           0      -23.527621   -1.416286    0.877351
     33          6           0      -24.046150   -2.034099    1.986996
     34          6           0      -23.802979   -3.430166    2.020029
     35          6           0      -23.291268   -3.674625    0.749493
     36          6           0      -23.165648   -2.425155    0.089467
     37          6           0      -24.098464   -4.516480    3.045969
     38          6           0      -22.805014   -4.646267   -0.128915
     39          8           0      -22.664847   -5.838852    0.070699
     40          6           0      -22.306154   -3.941794   -1.512241
     41          6           0      -20.885288   -4.226080   -1.670890
     42          8           0      -19.971047   -3.825391   -0.923497
     43          8           0      -20.611415   -5.045289   -2.720529
     44          6           0      -19.283970   -5.664014   -2.808980
     45          1           0      -22.054477    2.612812   -3.500534
     46          1           0      -24.527098    4.318332    2.240271
     47          1           0      -25.138748   -1.783720    3.767626
     48          1           0      -20.836255   -2.071906   -3.412917
     49          1           0      -21.938142    0.414715   -4.669188
     50          1           0      -19.872538    0.950204   -4.891682
     51          1           0      -19.430575   -0.403178   -3.702375
     52          1           0      -19.639948    1.330926   -3.261075
     53          1           0      -23.089733   -1.238463   -5.019408
     54          1           0      -23.608596   -2.481606   -4.037885
     55          1           0      -23.023383   -3.383365   -6.208574
     56          1           0      -21.893931   -3.981158   -4.980168
     57          1           0      -23.551371    5.868678   -3.001841
     58          1           0      -22.700604    4.486901   -3.642806
     59          1           0      -21.791652    5.699728   -2.738266
     60          1           0      -24.568745    7.204435   -1.662001
     61          1           0      -23.062547    7.868818   -0.795045
     62          1           0      -24.680869    8.143421   -0.214620
     63          1           0      -25.844887    3.020103    3.870312
     64          1           0      -24.845529    0.567632    5.282904
     65          1           0      -23.834017    2.471731    5.890414
     66          1           0      -24.991794    3.790400    5.636641
     67          1           0      -23.454514    3.760988    4.670399
     68          1           0      -27.244266    1.380437    5.012663
     69          1           0      -26.820813   -0.297193    5.329755
     70          1           0      -28.574134    0.580353    3.384246
     71          1           0      -27.893276   -1.043692    3.507512
     72          1           0      -27.044587    0.178572    2.551296
     73          1           0      -24.627482   -4.073624    3.890711
     74          1           0      -23.160707   -4.974130    3.362047
     75          1           0      -24.720111   -5.276718    2.573842
     76          1           0      -22.871929   -4.527041   -2.237725
     77          1           0      -19.259553   -6.581085   -3.397771
     78          1           0      -18.757122   -5.784191   -1.862835
     79          1           0      -18.710431   -4.999065   -3.454918
     80         12           0       23.326014    0.581573   -0.411188
     81          6           0       22.437145   -2.650115    0.693566
     82          6           0       19.983798    1.537301   -0.121606
     83          6           0       24.373667    3.824044   -0.467661
     84          6           0       26.734192   -0.483144   -0.127355
     85          7           0       21.479696   -0.448939    0.171623
     86          6           0       21.361622   -1.723498    0.600436
     87          6           0       19.901179   -2.025388    1.069638
     88          6           0       19.133070   -0.781909    0.424290
     89          6           0       20.285899    0.215749    0.079678
     90          6           0       18.291749   -0.950308   -0.861219
     91          6           0       19.869652   -2.064407    2.644348
     92          6           0       18.890252   -3.117829    3.232357
     93          1           0       18.068655   -2.652487    4.502824
     94          7           0       22.288971    2.477597   -0.514231
     95          6           0       20.927360    2.595712   -0.424388
     96          6           0       20.628617    3.967317   -0.590681
     97          6           0       21.848318    4.706276   -0.628074
     98          6           0       22.938646    3.674974   -0.588898
     99          6           0       19.236561    4.552739   -0.620891
    100          6           0       21.999524    6.187506   -0.555049
    101          8           0       21.042791    6.926467   -0.386691
    102          6           0       23.255266    6.890132   -0.602543
    103          7           0       25.327205    1.518084   -0.196666
    104          6           0       25.452746    2.895131   -0.432489
    105          6           0       26.894036    3.277671   -0.561481
    106          6           0       27.682720    1.926870   -0.390453
    107          6           0       26.557547    0.919700   -0.226678
    108          6           0       27.107814    3.968930   -1.914154
    109          6           0       28.843512    2.000253    0.671723
    110          6           0       30.221037    1.652229    0.194965
    111          7           0       24.438058   -1.224744    0.132276
    112          6           0       25.787835   -1.477803    0.133942
    113          6           0       26.042944   -2.916159    0.368010
    114          6           0       24.724488   -3.360176    0.653288
    115          6           0       23.818202   -2.344176    0.414320
    116          6           0       27.364864   -3.657806    0.489929
    117          6           0       23.994390   -4.489138    1.165705
    118          8           0       24.405768   -5.593497    1.554316
    119          6           0       22.507153   -4.139321    1.209521
    120          6           0       21.706618   -5.108946    0.438755
    121          8           0       20.845589   -5.748082    0.925291
    122          8           0       21.921656   -5.049039   -0.907778
    123          6           0       20.911983   -5.848390   -1.635177
    124          1           0       18.937488    1.851291   -0.117006
    125          1           0       24.635557    4.877197   -0.581026
    126          1           0       27.694590   -0.975817    0.041459
    127          1           0       19.603470   -2.986254    0.649506
    128          1           0       18.631610   -0.125226    1.135023
    129          1           0       18.659123   -1.793433   -1.447375
    130          1           0       18.219787   -0.078383   -1.511427
    131          1           0       17.289552   -1.211150   -0.522798
    132          1           0       19.658835   -1.075290    3.051918
    133          1           0       20.891093   -2.315633    2.930244
    134          1           0       19.544269   -3.951846    3.487478
    135          1           0       18.291810   -3.396322    2.364659
    136          1           0       19.130388    5.522934   -1.106395
    137          1           0       18.971208    4.625213    0.433484
    138          1           0       18.431271    3.881555   -0.919484
    139          1           0       23.706924    6.660326   -1.568428
    140          1           0       23.891986    6.617313    0.239527
    141          1           0       23.054598    7.959106   -0.530343
    142          1           0       27.210632    3.873511    0.294247
    143          1           0       28.077329    1.454752   -1.290439
    144          1           0       26.177955    4.280238   -2.390745
    145          1           0       27.596030    3.309556   -2.631770
    146          1           0       27.558073    4.948137   -1.754033
    147          1           0       28.529818    1.319877    1.463429
    148          1           0       29.037901    3.004841    1.045601
    149          1           0       30.595878    0.864809    0.848295
    150          1           0       30.910001    2.490920    0.296808
    151          1           0       30.262599    1.425215   -0.870367
    152          1           0       27.803941   -3.575051    1.484351
    153          1           0       28.086114   -3.381382   -0.280183
    154          1           0       27.026604   -4.690849    0.410244
    155          1           0       22.128789   -4.276403    2.221696
    156          1           0       21.129667   -5.765096   -2.700285
    157          1           0       19.906197   -5.489392   -1.417407
    158          1           0       20.987690   -6.923001   -1.472729
 ---------------------------------------------------------------------

 SCF Done:  E(RPBE1PBE) =  -4067.37660192     A.U. after   16 cycles

 Excitation energies and oscillator strengths:

 Excited State   1:      Singlet-A      1.8469 eV  671.32 nm  f=0.3855  <S**2>=0.000
     309 -> 315        0.16873
     311 -> 313        0.69412
     311 <- 313       -0.11312
 This state for optimization and/or second-order correction.
 Total Energy, E(TD-HF/TD-DFT) =  -4067.30873064
 Copying the excited state density for this state as the 1-particle RhoCI density.

 Excited State   2:      Singlet-A      1.8776 eV  660.35 nm  f=0.4000  <S**2>=0.000
     310 -> 316       -0.17154
     312 -> 314        0.69337
     312 <- 314       -0.11027

 Excited State   3:      Singlet-A      1.9078 eV  649.89 nm  f=0.0000  <S**2>=0.000
     312 -> 313        0.70711

 Excited State   4:      Singlet-A      2.0407 eV  607.56 nm  f=0.0000  <S**2>=0.000
     311 -> 314        0.70711

 Excited State   5:      Singlet-A      2.2121 eV  560.48 nm  f=0.1077  <S**2>=0.000
     309 -> 313        0.65181
     311 -> 315       -0.25477

 The electronic state is 1-A.
 Alpha  occ. eigenvalues --  -46.94190 -46.92502 -19.25702 -19.25691 -19.20101
 Alpha  occ. eigenvalues --  -19.19045 -19.18978 -19.18919 -19.18744 -19.17624
 Alpha  occ. eigenvalues --  -14.42416 -14.42292 -14.41621 -14.41041 -14.39584
 Alpha  occ. eigenvalues --  -14.39176 -14.39149 -14.38876 -10.35914 -10.35700
 Alpha  occ. eigenvalues --  -10.32441 -10.31823 -10.31730 -10.30688 -10.29922
 Alpha  occ. eigenvalues --  -10.29668 -10.29649 -10.29019 -10.28894 -10.28849
 Alpha  occ. eigenvalues --  -10.28821 -10.28794 -10.28525 -10.28196 -10.27791
 Alpha  occ. eigenvalues --  -10.27784 -10.27688 -10.27687 -10.27677 -10.27671
 Alpha  occ. eigenvalues --  -10.26858 -10.26844 -10.26838 -10.26738 -10.26615
 Alpha  occ. eigenvalues --  -10.26291 -10.26285 -10.26278 -10.26265 -10.26095
 Alpha  occ. eigenvalues --  -10.26059 -10.26014 -10.25927 -10.25909 -10.25817
 Alpha  occ. eigenvalues --  -10.25816 -10.25791 -10.25747 -10.25561 -10.25364
 Alpha  occ. eigenvalues --  -10.25352 -10.25307 -10.25139 -10.25137 -10.24978
 Alpha  occ. eigenvalues --  -10.24575 -10.24511 -10.24482 -10.24403 -10.24374
 Alpha  occ. eigenvalues --  -10.24290 -10.24271 -10.24031 -10.23903 -10.23886
 Alpha  occ. eigenvalues --  -10.23882 -10.23548 -10.23401 -10.23198 -10.23153
 Alpha  occ. eigenvalues --  -10.23039 -10.22826 -10.22818 -10.22644 -10.22450
 Alpha  occ. eigenvalues --  -10.22413  -3.15929  -3.14691  -1.88780  -1.88282
 Alpha  occ. eigenvalues --   -1.88144  -1.87514  -1.87025  -1.86963  -1.12712
 Alpha  occ. eigenvalues --   -1.10611  -1.04711  -1.04362  -1.04129  -1.03856
 Alpha  occ. eigenvalues --   -1.03585  -1.00618  -1.00091  -0.99728  -0.99323
 Alpha  occ. eigenvalues --   -0.98778  -0.98393  -0.98129  -0.98020  -0.97261
 Alpha  occ. eigenvalues --   -0.86991  -0.86927  -0.83700  -0.83356  -0.83318
 Alpha  occ. eigenvalues --   -0.82549  -0.82532  -0.82456  -0.82341  -0.82170
 Alpha  occ. eigenvalues --   -0.81691  -0.81264  -0.80736  -0.80209  -0.79164
 Alpha  occ. eigenvalues --   -0.78923  -0.78580  -0.78037  -0.77004  -0.76934
 Alpha  occ. eigenvalues --   -0.76743  -0.76006  -0.75494  -0.75215  -0.74912
 Alpha  occ. eigenvalues --   -0.74605  -0.72989  -0.72666  -0.71893  -0.71800
 Alpha  occ. eigenvalues --   -0.71404  -0.71183  -0.70780  -0.70547  -0.69848
 Alpha  occ. eigenvalues --   -0.69805  -0.68012  -0.67592  -0.66978  -0.65990
 Alpha  occ. eigenvalues --   -0.64019  -0.63781  -0.63649  -0.63628  -0.62561
 Alpha  occ. eigenvalues --   -0.62410  -0.61535  -0.61321  -0.60763  -0.60145
 Alpha  occ. eigenvalues --   -0.60038  -0.59681  -0.59583  -0.59236  -0.59215
 Alpha  occ. eigenvalues --   -0.58767  -0.57817  -0.56843  -0.54723  -0.54669
 Alpha  occ. eigenvalues --   -0.54548  -0.54408  -0.53652  -0.53577  -0.53489
 Alpha  occ. eigenvalues --   -0.52869  -0.52852  -0.52439  -0.51886  -0.51658
 Alpha  occ. eigenvalues --   -0.51002  -0.50849  -0.50605  -0.50169  -0.49865
 Alpha  occ. eigenvalues --   -0.49627  -0.49587  -0.49331  -0.49102  -0.48606
 Alpha  occ. eigenvalues --   -0.48202  -0.47982  -0.47858  -0.47771  -0.47767
 Alpha  occ. eigenvalues --   -0.47397  -0.47233  -0.47122  -0.47088  -0.46873
 Alpha  occ. eigenvalues --   -0.46757  -0.46618  -0.46302  -0.46012  -0.45987
 Alpha  occ. eigenvalues --   -0.45872  -0.45563  -0.45387  -0.45063  -0.44819
 Alpha  occ. eigenvalues --   -0.44710  -0.44510  -0.44465  -0.44210  -0.44150
 Alpha  occ. eigenvalues --   -0.43897  -0.43874  -0.43673  -0.43671  -0.43416
 Alpha  occ. eigenvalues --   -0.43372  -0.43243  -0.43168  -0.43079  -0.42812
 Alpha  occ. eigenvalues --   -0.42779  -0.42528  -0.42243  -0.42134  -0.41991
 Alpha  occ. eigenvalues --   -0.41818  -0.41654  -0.41598  -0.41565  -0.41426
 Alpha  occ. eigenvalues --   -0.41207  -0.41079  -0.41011  -0.40933  -0.40721
 Alpha  occ. eigenvalues --   -0.40611  -0.40499  -0.40097  -0.39927  -0.39802
 Alpha  occ. eigenvalues --   -0.39759  -0.39658  -0.39479  -0.39231  -0.39145
 Alpha  occ. eigenvalues --   -0.38837  -0.38834  -0.38775  -0.38462  -0.38394
 Alpha  occ. eigenvalues --   -0.38227  -0.38203  -0.37970  -0.37854  -0.37738
 Alpha  occ. eigenvalues --   -0.37661  -0.37496  -0.37121  -0.37055  -0.36777
 Alpha  occ. eigenvalues --   -0.36626  -0.36573  -0.36363  -0.36184  -0.36160
 Alpha  occ. eigenvalues --   -0.36002  -0.35924  -0.35585  -0.35466  -0.35016
 Alpha  occ. eigenvalues --   -0.34960  -0.34750  -0.34566  -0.34476  -0.34149
 Alpha  occ. eigenvalues --   -0.33637  -0.33434  -0.33208  -0.32883  -0.32544
 Alpha  occ. eigenvalues --   -0.32324  -0.32230  -0.31944  -0.31670  -0.31429
 Alpha  occ. eigenvalues --   -0.31113  -0.30577  -0.29804  -0.29743  -0.29350
 Alpha  occ. eigenvalues --   -0.29047  -0.28640  -0.27999  -0.27136  -0.26983
 Alpha  occ. eigenvalues --   -0.26536  -0.26122  -0.25972  -0.25704  -0.25552
 Alpha  occ. eigenvalues --   -0.25394  -0.25052  -0.24601  -0.21445  -0.20825
 Alpha  occ. eigenvalues --   -0.19244  -0.19071
 Alpha virt. eigenvalues --   -0.11778  -0.11463  -0.05753  -0.04780  -0.03937
 Alpha virt. eigenvalues --   -0.03896  -0.02001  -0.01927  -0.01523  -0.00969
 Alpha virt. eigenvalues --    0.00160   0.00588   0.01300   0.01431   0.01818

 Mulliken charges:
               1
     1  Mg  11.999976
     2  C    6.000255
     3  C    5.999964
     4  C    5.999750
     5  C    5.999920
     6  N    7.000086
     7  C    5.999694
     8  C    6.000095
     9  C    5.999864
    10  C    6.000304
    11  C    5.999946
    12  C    6.000048
    13  C    6.000001
    14  H    0.999967
    15  N    6.999982
    16  C    6.000361
    17  C    6.000214
    18  C    6.000160
    19  C    6.000328
    20  C    5.999911
    21  C    6.000131
    22  O    8.000315
    23  C    5.999926
    24  N    6.999868
    25  C    6.000355
    26  C    5.999900
    27  C    6.000114
    28  C    5.999794
    29  C    6.000009
    30  C    6.000039
    31  C    6.000049
    32  N    6.999989
    33  C    5.999766
    34  C    5.999709
    35  C    6.000001
    36  C    5.999741
    37  C    6.000043
    38  C    5.999786
    39  O    7.999664
    40  C    5.999907
    41  C    5.999973
    42  O    7.999969
    43  O    7.999968
    44  C    6.000032
    45  H    1.000161
    46  H    1.000016
    47  H    0.999843
    48  H    1.000024
    49  H    1.000027
    50  H    1.000060
    51  H    1.000150
    52  H    1.000017
    53  H    0.999891
    54  H    1.000023
    55  H    0.999959
    56  H    1.000040
    57  H    1.000169
    58  H    1.000158
    59  H    1.000274
    60  H    1.000057
    61  H    1.000148
    62  H    1.000144
    63  H    0.999962
    64  H    0.999958
    65  H    1.000083
    66  H    1.000007
    67  H    0.999973
    68  H    0.999881
    69  H    0.999985
    70  H    0.999891
    71  H    1.000004
    72  H    0.999999
    73  H    0.999825
    74  H    0.999811
    75  H    0.999797
    76  H    0.999919
    77  H    0.999929
    78  H    0.999988
    79  H    0.999956
    80  Mg  11.998460
    81  C    5.981443
    82  C    6.012413
    83  C    6.016815
    84  C    5.998253
    85  N    6.996295
    86  C    6.032238
    87  C    5.992214
    88  C    6.002460
    89  C    5.971819
    90  C    6.007630
    91  C    5.998307
    92  C    5.998879
    93  H    1.007276
    94  N    7.009207
    95  C    5.957446
    96  C    5.980567
    97  C    5.992340
    98  C    5.956652
    99  C    6.003061
   100  C    5.989070
   101  O    7.979248
   102  C    6.004385
   103  N    7.001260
   104  C    5.968163
   105  C    6.011513
   106  C    5.993499
   107  C    6.029477
   108  C    6.002368
   109  C    5.999404
   110  C    5.997927
   111  N    6.998830
   112  C    6.031991
   113  C    6.032902
   114  C    5.999935
   115  C    6.027709
   116  C    6.000127
   117  C    6.017503
   118  O    8.030872
   119  C    5.998363
   120  C    6.004293
   121  O    8.008379
   122  O    7.996492
   123  C    5.997492
   124  H    0.990561
   125  H    0.992687
   126  H    1.007883
   127  H    0.997875
   128  H    1.002997
   129  H    0.986733
   130  H    1.005030
   131  H    0.992334
   132  H    1.010991
   133  H    0.992191
   134  H    0.995249
   135  H    1.003034
   136  H    0.986005
   137  H    0.980294
   138  H    0.980539
   139  H    0.990895
   140  H    0.989406
   141  H    0.987842
   142  H    0.997570
   143  H    0.995883
   144  H    1.007284
   145  H    0.990002
   146  H    0.997813
   147  H    0.997342
   148  H    1.010161
   149  H    0.997832
   150  H    1.005618
   151  H    1.001988
   152  H    1.020195
   153  H    1.017229
   154  H    1.011391
   155  H    1.008758
   156  H    1.004102
   157  H    1.007121
   158  H    1.002190
 Sum of Mulliken charges = 624.00000

 Dipole moment (field-independent basis, Debye):
    X=              5.2644    Y=             -8.9490    Z=              1.5112  Tot=             10.4920
 Quadrupole moment (field-independent basis, Debye-Ang):
   XX=            246.0081   YY=            -10.1361   ZZ=              0.8871
   XY=           -209.5157   XZ=             36.2292   YZ=              0.3311

 Normal termination of Gaussian 16 at Fri Oct 15 17:48:26 2021.
