 Gaussian 16, Revision A.03,
 Gaussian 16:  ES64L-G16RevA.03 25-Dec-2016

 --------------------------------------------------------
 #p PBE1PBE/Def2SVP td=(nstates=5) density=(transition=1)
 --------------------------------------------------------

 --------------------------------
 TDDFT excited states in gaussian
 --------------------------------
 Symbolic Z-matrix:
 Charge =  0 Multiplicity = 1

                         Standard orientation:
 ---------------------------------------------------------------------
 Center     Atomic      Atomic             Coordinates (Angstroms)
 Number     Number       Type             X           Y           Z
 ---------------------------------------------------------------------
      1         12           0      -16.328849    0.610343    0.523639
      2          6           0      -15.185716   -2.069040   -1.561782
      3          6           0      -17.660027   -1.892780    2.622664
      4          6           0      -18.041094    2.879594    2.143170
      5          6           0      -15.274458    2.829356   -1.827257
      6          7           0      -16.348071   -1.703323    0.522789
      7          6           0      -15.717278   -2.487120   -0.384437
      8          6           0      -15.770661   -3.927273    0.098209
      9          6           0      -16.528004   -3.951080    1.455790
     10          6           0      -16.844098   -2.447898    1.577074
     11          6           0      -17.826158   -4.939392    1.464546
     12          6           0      -14.328730   -4.569516    0.277616
     13          6           0      -14.116430   -5.955597   -0.332017
     14          1           0      -15.294511   -7.008881   -0.391695
     15          7           0      -17.721184    0.498145    2.141829
     16          6           0      -18.075002   -0.566135    2.830658
     17          6           0      -19.007611   -0.136612    3.834251
     18          6           0      -19.067273    1.279783    3.863990
     19          6           0      -18.303908    1.600594    2.686498
     20          6           0      -19.562123   -1.077447    4.902665
     21          6           0      -19.638123    2.299721    4.836740
     22          8           0      -19.632184    3.497651    4.620068
     23          6           0      -20.166532    1.752258    6.134049
     24          7           0      -16.891986    2.505467   -0.013267
     25          6           0      -17.454439    3.332211    0.961021
     26          6           0      -17.311518    4.843498    0.633784
     27          6           0      -16.280090    4.746051   -0.552814
     28          6           0      -16.121953    3.251134   -0.830194
     29          6           0      -18.675115    5.460411    0.290300
     30          6           0      -14.829362    5.319083   -0.189081
     31          6           0      -14.422183    6.637220   -0.757171
     32          7           0      -15.336706    0.465788   -1.227957
     33          6           0      -15.001158    1.477166   -2.101950
     34          6           0      -14.421345    0.980659   -3.347162
     35          6           0      -14.464890   -0.449926   -3.183730
     36          6           0      -15.131066   -0.699943   -1.960790
     37          6           0      -13.764706    1.841333   -4.365004
     38          6           0      -14.056229   -1.725802   -3.750894
     39          8           0      -13.425830   -1.910120   -4.807989
     40          6           0      -14.547253   -2.881357   -2.706389
     41          6           0      -15.491129   -3.689100   -3.462561
     42          8           0      -16.477315   -3.240860   -4.005205
     43          8           0      -15.137213   -4.979706   -3.469533
     44          6           0      -15.908171   -6.015591   -4.226051
     45          1           0      -18.029082   -2.622936    3.345818
     46          1           0      -18.208436    3.718206    2.823236
     47          1           0      -14.878495    3.582281   -2.511532
     48          1           0      -16.355462   -4.486265   -0.632313
     49          1           0      -15.919341   -4.374039    2.255179
     50          1           0      -17.734802   -5.706818    0.695843
     51          1           0      -18.677811   -4.279462    1.297355
     52          1           0      -17.929723   -5.400048    2.446842
     53          1           0      -13.961323   -4.601952    1.302402
     54          1           0      -13.594440   -3.946010   -0.232299
     55          1           0      -13.281299   -6.476751    0.136493
     56          1           0      -13.763359   -5.721505   -1.336335
     57          1           0      -19.024396   -1.043367    5.850328
     58          1           0      -19.685178   -2.091438    4.520969
     59          1           0      -20.587629   -0.755340    5.082035
     60          1           0      -19.565108    0.962075    6.584504
     61          1           0      -21.177036    1.349302    6.082493
     62          1           0      -20.049617    2.509939    6.908916
     63          1           0      -16.905387    5.328837    1.520835
     64          1           0      -16.688348    5.304087   -1.395544
     65          1           0      -19.528768    4.817159    0.503404
     66          1           0      -18.756508    5.689873   -0.771581
     67          1           0      -18.793304    6.395542    0.838692
     68          1           0      -13.998214    4.672623   -0.470774
     69          1           0      -14.661424    5.382145    0.885425
     70          1           0      -14.273460    7.361893    0.042330
     71          1           0      -15.273184    6.905546   -1.383465
     72          1           0      -13.489655    6.541671   -1.313291
     73          1           0      -12.918621    1.334240   -4.827546
     74          1           0      -13.545559    2.786314   -3.868270
     75          1           0      -14.511059    2.033017   -5.137135
     76          1           0      -13.719635   -3.510532   -2.381618
     77          1           0      -16.064137   -5.673770   -5.249417
     78          1           0      -16.887055   -6.212868   -3.788361
     79          1           0      -15.468904   -7.011567   -4.176899
     80         12           0       15.870503    0.808124    0.108626
     81          6           0       17.871337   -1.930415    1.323474
     82          6           0       13.561767   -1.378315   -0.913634
     83          6           0       14.558388    3.282802   -1.731231
     84          6           0       18.605698    2.884516    0.823864
     85          7           0       15.779301   -1.364739    0.155077
     86          6           0       16.585949   -2.278046    0.855133
     87          6           0       15.920227   -3.705648    0.912768
     88          6           0       14.588718   -3.486420    0.132648
     89          6           0       14.605707   -1.968206   -0.188495
     90          6           0       14.364244   -4.321840   -1.102133
     91          6           0       15.761206   -4.263493    2.426953
     92          6           0       16.342670   -5.661141    2.673185
     93          1           0       15.292084   -6.706622    3.202898
     94          7           0       14.188830    0.965958   -1.045912
     95          6           0       13.357154   -0.029665   -1.368768
     96          6           0       12.280684    0.430826   -2.247551
     97          6           0       12.647355    1.786841   -2.553681
     98          6           0       13.858885    2.077503   -1.779864
     99          6           0       11.167418   -0.423519   -2.679944
    100          6           0       11.904606    2.669852   -3.605078
    101          8           0       12.201650    3.837666   -3.793544
    102          6           0       10.768046    2.159977   -4.432502
    103          7           0       16.488488    2.732071   -0.352869
    104          6           0       15.683972    3.625383   -1.052104
    105          6           0       16.330605    5.048902   -1.092594
    106          6           0       17.435883    4.960218    0.024915
    107          6           0       17.495027    3.447233    0.234052
    108          6           0       16.771517    5.611318   -2.483169
    109          6           0       17.071031    5.700359    1.340875
    110          6           0       18.152558    6.457051    2.069870
    111          7           0       17.862722    0.559184    0.859603
    112          6           0       18.834195    1.492396    1.086143
    113          6           0       19.996774    0.817899    1.812979
    114          6           0       19.638579   -0.499369    1.968634
    115          6           0       18.366516   -0.625885    1.312039
    116          6           0       21.197952    1.583290    2.319726
    117          6           0       20.020462   -1.812223    2.457590
    118          8           0       21.092714   -2.053216    3.050632
    119          6           0       18.876874   -2.880931    1.957592
    120          6           0       19.354900   -3.889834    0.934288
    121          8           0       19.908457   -3.517950   -0.119339
    122          8           0       19.265785   -5.203663    1.396158
    123          6           0       20.092199   -6.120294    0.619379
    124          1           0       12.718420   -2.019611   -1.177345
    125          1           0       14.028617    4.046722   -2.303555
    126          1           0       19.361678    3.613173    1.125430
    127          1           0       16.645886   -4.322514    0.383040
    128          1           0       13.816754   -3.883197    0.793430
    129          1           0       15.206698   -4.971268   -1.340451
    130          1           0       14.405109   -3.535426   -1.855019
    131          1           0       13.476612   -4.952253   -1.041324
    132          1           0       14.682770   -4.232747    2.579781
    133          1           0       16.157727   -3.522153    3.120190
    134          1           0       17.196688   -5.529176    3.337516
    135          1           0       16.717940   -6.062904    1.731115
    136          1           0       10.965198   -0.563869   -3.741327
    137          1           0       10.276014    0.152433   -2.434010
    138          1           0       11.023272   -1.335954   -2.100923
    139          1           0        9.997780    1.882210   -3.712033
    140          1           0       11.115171    1.238584   -4.900930
    141          1           0       10.521472    2.966924   -5.121394
    142          1           0       15.534071    5.700906   -0.734011
    143          1           0       18.425519    5.242358   -0.333644
    144          1           0       16.389873    4.881913   -3.197243
    145          1           0       17.840719    5.802008   -2.571085
    146          1           0       16.206077    6.500601   -2.764395
    147          1           0       16.744538    4.829337    1.908725
    148          1           0       16.212984    6.368854    1.267464
    149          1           0       17.691563    7.393580    2.383930
    150          1           0       18.998423    6.716424    1.432391
    151          1           0       18.325235    5.909244    2.996585
    152          1           0       21.061413    2.624052    2.026568
    153          1           0       22.075516    1.232368    1.777198
    154          1           0       21.318776    1.408031    3.388547
    155          1           0       18.448393   -3.358886    2.838541
    156          1           0       20.958244   -6.523846    1.142149
    157          1           0       20.446033   -5.709164   -0.326177
    158          1           0       19.447263   -6.958714    0.357555
 ---------------------------------------------------------------------

 SCF Done:  E(RPBE1PBE) =  -4067.35950565     A.U. after   16 cycles

 Excitation energies and oscillator strengths:

 Excited State   1:      Singlet-A      1.8471 eV  671.23 nm  f=0.3955  <S**2>=0.000
     310 -> 316        0.15485
     311 -> 313        0.66749
     312 -> 314       -0.19492
     311 <- 313       -0.11161
 This state for optimization and/or second-order correction.
 Total Energy, E(TD-HF/TD-DFT) =  -4067.29162521
 Copying the excited state density for this state as the 1-particle RhoCI density.

 Excited State   2:      Singlet-A      1.8522 eV  669.39 nm  f=0.4016  <S**2>=0.000
     309 -> 315        0.16022
     311 -> 313        0.19449
     312 -> 314        0.66845
     312 <- 314       -0.10975

 Excited State   3:      Singlet-A      1.8693 eV  663.25 nm  f=0.0000  <S**2>=0.000
     312 -> 313        0.70710

 Excited State   4:      Singlet-A      1.9876 eV  623.79 nm  f=0.0000  <S**2>=0.000
     311 -> 314        0.70710

 Excited State   5:      Singlet-A      2.2073 eV  561.69 nm  f=0.1227  <S**2>=0.000
     310 -> 313        0.66029
     311 -> 316       -0.23231

 The electronic state is 1-A.
 Alpha  occ. eigenvalues --  -46.92076 -46.91823 -19.27251 -19.25883 -19.20982
 Alpha  occ. eigenvalues --  -19.20049 -19.19762 -19.19315 -19.18885 -19.18724
 Alpha  occ. eigenvalues --  -14.42080 -14.41416 -14.41315 -14.41248 -14.39283
 Alpha  occ. eigenvalues --  -14.39134 -14.39087 -14.38759 -10.37752 -10.35470
 Alpha  occ. eigenvalues --  -10.33566 -10.32928 -10.32698 -10.32203 -10.29758
 Alpha  occ. eigenvalues --  -10.29301 -10.29125 -10.28912 -10.28814 -10.28571
 Alpha  occ. eigenvalues --  -10.28294 -10.28271 -10.28023 -10.28012 -10.27981
 Alpha  occ. eigenvalues --  -10.27622 -10.27455 -10.27389 -10.27365 -10.27363
 Alpha  occ. eigenvalues --  -10.26966 -10.26735 -10.26726 -10.26488 -10.26412
 Alpha  occ. eigenvalues --  -10.26378 -10.26282 -10.26222 -10.26090 -10.26077
 Alpha  occ. eigenvalues --  -10.25944 -10.25858 -10.25786 -10.25729 -10.25681
 Alpha  occ. eigenvalues --  -10.25557 -10.25534 -10.25473 -10.25361 -10.25222
 Alpha  occ. eigenvalues --  -10.25127 -10.24889 -10.24744 -10.24664 -10.24646
 Alpha  occ. eigenvalues --  -10.24629 -10.24328 -10.24161 -10.24122 -10.23981
 Alpha  occ. eigenvalues --  -10.23953 -10.23565 -10.23546 -10.23535 -10.23525
 Alpha  occ. eigenvalues --  -10.23475 -10.23372 -10.23368 -10.23331 -10.23311
 Alpha  occ. eigenvalues --  -10.23066 -10.23006 -10.23000 -10.22950 -10.22858
 Alpha  occ. eigenvalues --  -10.22489  -3.14281  -3.14049  -1.87086  -1.86871
 Alpha  occ. eigenvalues --   -1.86661  -1.86514  -1.86407  -1.86300  -1.11321
 Alpha  occ. eigenvalues --   -1.11005  -1.05604  -1.04969  -1.03658  -1.03221
 Alpha  occ. eigenvalues --   -1.02652  -1.02178  -0.99391  -0.98587  -0.98199
 Alpha  occ. eigenvalues --   -0.98001  -0.97786  -0.97252  -0.96616  -0.96538
 Alpha  occ. eigenvalues --   -0.86891  -0.86542  -0.83449  -0.83018  -0.82979
 Alpha  occ. eigenvalues --   -0.82632  -0.82395  -0.82395  -0.81639  -0.81582
 Alpha  occ. eigenvalues --   -0.81490  -0.81319  -0.80802  -0.80404  -0.78587
 Alpha  occ. eigenvalues --   -0.78563  -0.78459  -0.77927  -0.76990  -0.76965
 Alpha  occ. eigenvalues --   -0.76175  -0.76037  -0.75648  -0.75509  -0.75076
 Alpha  occ. eigenvalues --   -0.74563  -0.72829  -0.72618  -0.72021  -0.71918
 Alpha  occ. eigenvalues --   -0.71219  -0.71219  -0.70607  -0.70491  -0.69268
 Alpha  occ. eigenvalues --   -0.69153  -0.66995  -0.66862  -0.65929  -0.65461
 Alpha  occ. eigenvalues --   -0.63428  -0.63215  -0.62800  -0.62279  -0.62201
 Alpha  occ. eigenvalues --   -0.62101  -0.61370  -0.61202  -0.60000  -0.59763
 Alpha  occ. eigenvalues --   -0.59633  -0.59488  -0.59422  -0.59263  -0.59066
 Alpha  occ. eigenvalues --   -0.58903  -0.57150  -0.57051  -0.55086  -0.54924
 Alpha  occ. eigenvalues --   -0.54286  -0.53782  -0.53476  -0.53300  -0.53144
 Alpha  occ. eigenvalues --   -0.53144  -0.52907  -0.52639  -0.52039  -0.51963
 Alpha  occ. eigenvalues --   -0.50867  -0.50723  -0.50229  -0.49939  -0.49798
 Alpha  occ. eigenvalues --   -0.49654  -0.49330  -0.48905  -0.48385  -0.48172
 Alpha  occ. eigenvalues --   -0.48163  -0.48016  -0.47712  -0.47610  -0.47451
 Alpha  occ. eigenvalues --   -0.47234  -0.47066  -0.46925  -0.46890  -0.46739
 Alpha  occ. eigenvalues --   -0.46441  -0.46209  -0.46057  -0.45948  -0.45931
 Alpha  occ. eigenvalues --   -0.45836  -0.45723  -0.45323  -0.45183  -0.45054
 Alpha  occ. eigenvalues --   -0.44907  -0.44789  -0.44565  -0.44145  -0.43958
 Alpha  occ. eigenvalues --   -0.43866  -0.43828  -0.43747  -0.43416  -0.43409
 Alpha  occ. eigenvalues --   -0.43305  -0.43249  -0.43119  -0.42991  -0.42844
 Alpha  occ. eigenvalues --   -0.42810  -0.42625  -0.42467  -0.42068  -0.41918
 Alpha  occ. eigenvalues --   -0.41708  -0.41524  -0.41486  -0.41329  -0.41186
 Alpha  occ. eigenvalues --   -0.40963  -0.40890  -0.40819  -0.40715  -0.40697
 Alpha  occ. eigenvalues --   -0.40444  -0.40099  -0.40078  -0.39927  -0.39326
 Alpha  occ. eigenvalues --   -0.39314  -0.39119  -0.39111  -0.38900  -0.38868
 Alpha  occ. eigenvalues --   -0.38706  -0.38612  -0.38474  -0.38435  -0.38200
 Alpha  occ. eigenvalues --   -0.37930  -0.37845  -0.37807  -0.37694  -0.37623
 Alpha  occ. eigenvalues --   -0.37472  -0.37419  -0.37285  -0.36639  -0.36614
 Alpha  occ. eigenvalues --   -0.36588  -0.36458  -0.36342  -0.36239  -0.36012
 Alpha  occ. eigenvalues --   -0.35957  -0.35673  -0.35534  -0.35492  -0.35237
 Alpha  occ. eigenvalues --   -0.35088  -0.34704  -0.34436  -0.34243  -0.34072
 Alpha  occ. eigenvalues --   -0.33390  -0.33309  -0.32964  -0.32825  -0.32477
 Alpha  occ. eigenvalues --   -0.32274  -0.32046  -0.31530  -0.31527  -0.31312
 Alpha  occ. eigenvalues --   -0.31247  -0.31150  -0.29829  -0.29699  -0.29650
 Alpha  occ. eigenvalues --   -0.28784  -0.28554  -0.28374  -0.27098  -0.26932
 Alpha  occ. eigenvalues --   -0.26505  -0.26373  -0.25891  -0.25883  -0.25617
 Alpha  occ. eigenvalues --   -0.25614  -0.25445  -0.25099  -0.21075  -0.20813
 Alpha  occ. eigenvalues --   -0.18650  -0.18463
 Alpha virt. eigenvalues --   -0.11188  -0.10943  -0.04858  -0.04757  -0.04295
 Alpha virt. eigenvalues --   -0.04096  -0.02377  -0.02268  -0.01706  -0.01047
 Alpha virt. eigenvalues --   -0.00817   0.00349   0.00646   0.01060   0.01281

 Mulliken charges:
               1
     1  Mg  12.001994
     2  C    5.981837
     3  C    6.007148
     4  C    6.023744
     5  C    5.994666
     6  N    6.992144
     7  C    6.023112
     8  C    5.991004
     9  C    6.012562
    10  C    5.970467
    11  C    6.000621
    12  C    5.998996
    13  C    5.999301
    14  H    1.006379
    15  N    7.003914
    16  C    5.968490
    17  C    5.975188
    18  C    5.989365
    19  C    5.968995
    20  C    6.002800
    21  C    5.986695
    22  O    7.974673
    23  C    6.007000
    24  N    7.008322
    25  C    5.960047
    26  C    6.009587
    27  C    5.992269
    28  C    6.025001
    29  C    6.002952
    30  C    5.992387
    31  C    5.999774
    32  N    7.002695
    33  C    6.027771
    34  C    6.036322
    35  C    5.998733
    36  C    6.030259
    37  C    5.997551
    38  C    6.014767
    39  O    8.025827
    40  C    6.006070
    41  C    6.004740
    42  O    8.002379
    43  O    8.001935
    44  C    5.998133
    45  H    0.989895
    46  H    0.994815
    47  H    1.010882
    48  H    0.999588
    49  H    0.994921
    50  H    0.987909
    51  H    1.001475
    52  H    0.999736
    53  H    1.007621
    54  H    0.992754
    55  H    1.001975
    56  H    0.994273
    57  H    0.980312
    58  H    0.984201
    59  H    0.984631
    60  H    0.995400
    61  H    0.991082
    62  H    0.986767
    63  H    1.000371
    64  H    1.002675
    65  H    1.004429
    66  H    0.989237
    67  H    0.997617
    68  H    0.995185
    69  H    1.012249
    70  H    1.006462
    71  H    1.002379
    72  H    0.998261
    73  H    1.016467
    74  H    1.016684
    75  H    1.021588
    76  H    1.008399
    77  H    1.000556
    78  H    1.006112
    79  H    1.004476
    80  Mg  11.999436
    81  C    5.994478
    82  C    6.004164
    83  C    6.003314
    84  C    5.995054
    85  N    6.998300
    86  C    6.009438
    87  C    5.997494
    88  C    6.003366
    89  C    5.991062
    90  C    6.000262
    91  C    5.998824
    92  C    5.999195
    93  H    1.002769
    94  N    7.001061
    95  C    5.989549
    96  C    5.993478
    97  C    5.996917
    98  C    5.990078
    99  C    6.001672
   100  C    5.996556
   101  O    7.993534
   102  C    6.000414
   103  N    6.999826
   104  C    5.992189
   105  C    6.002091
   106  C    5.997555
   107  C    6.008269
   108  C    5.999503
   109  C    5.999694
   110  C    5.999364
   111  N    7.000771
   112  C    6.010759
   113  C    6.009226
   114  C    6.000068
   115  C    6.008430
   116  C    5.999176
   117  C    6.005359
   118  O    8.008151
   119  C    6.001257
   120  C    6.001665
   121  O    8.001137
   122  O    8.000851
   123  C    5.999102
   124  H    0.997533
   125  H    0.997756
   126  H    1.002492
   127  H    1.000181
   128  H    0.998498
   129  H    0.996751
   130  H    1.001674
   131  H    0.999330
   132  H    1.002884
   133  H    0.998851
   134  H    0.998997
   135  H    1.000449
   136  H    0.993773
   137  H    0.994685
   138  H    0.995010
   139  H    0.998401
   140  H    0.998622
   141  H    0.996086
   142  H    1.000000
   143  H    0.999717
   144  H    1.001366
   145  H    0.996995
   146  H    0.999564
   147  H    0.999815
   148  H    1.003103
   149  H    1.001345
   150  H    1.000292
   151  H    0.998973
   152  H    1.005188
   153  H    1.005451
   154  H    1.005127
   155  H    1.002513
   156  H    1.000892
   157  H    1.000939
   158  H    1.001895
 Sum of Mulliken charges = 624.00000

 Dipole moment (field-independent basis, Debye):
    X=              8.0048    Y=             -0.3345    Z=             -6.9815  Tot=             10.6268
 Quadrupole moment (field-independent basis, Debye-Ang):
   XX=            -98.4334   YY=              2.6976   ZZ=             -6.0463
   XY=             -5.3089   XZ=            169.3643   YZ=             -1.4204

 Normal termination of Gaussian 16 at Thu Oct 14 13:20:03 2021.
