 Gaussian 16, Revision A.03,
 Gaussian 16:  ES64L-G16RevA.03 25-Dec-2016

 --------------------------------------------------------
 #p PBE1PBE/Def2SVP td=(nstates=5) density=(transition=1)
 --------------------------------------------------------

 --------------------------------
 TDDFT excited states in gaussian
 --------------------------------
 Symbolic Z-matrix:
 Charge =  0 Multiplicity = 1

                         Standard orientation:
 ---------------------------------------------------------------------
 Center     Atomic      Atomic             Coordinates (Angstroms)
 Number     Number       Type             X           Y           Z
 ---------------------------------------------------------------------
      1         12           0       -0.734409    0.102792    0.108535
      2          6           0        2.703564    0.068530    0.238042
      3          6           0       -0.663842   -3.396207    0.005532
      4          6           0       -4.102072    0.047408   -0.115443
      5          6           0       -0.712200    3.485323   -0.165771
      6          7           0        0.898025   -1.470247   -0.145749
      7          6           0        2.235876   -1.217117    0.181882
      8          6           0        3.018657   -2.514863    0.463516
      9          6           0        1.885824   -3.587078    0.259325
     10          6           0        0.595242   -2.819064    0.070807
     11          6           0        2.165789   -4.539764   -0.896078
     12          6           0        3.760444   -2.689969    1.835796
     13          6           0        5.383536   -2.733943    1.799465
     14          1           0        5.915784   -4.051735    2.370984
     15          7           0       -2.158575   -1.407581   -0.135312
     16          6           0       -1.931234   -2.788545   -0.020422
     17          6           0       -3.191662   -3.529278    0.096272
     18          6           0       -4.299605   -2.527340   -0.017864
     19          6           0       -3.566109   -1.199100   -0.032182
     20          6           0       -3.256505   -5.032877    0.249725
     21          6           0       -5.745945   -2.688236   -0.054034
     22          8           0       -6.469730   -1.701797   -0.254904
     23          6           0       -6.433398   -4.036151    0.075760
     24          7           0       -2.113017    1.529291   -0.185787
     25          6           0       -3.502345    1.316805   -0.116439
     26          6           0       -4.379977    2.632985   -0.094472
     27          6           0       -3.194297    3.728476   -0.145364
     28          6           0       -1.922426    2.850530   -0.147927
     29          6           0       -5.423682    2.760624   -1.310874
     30          6           0       -3.263879    4.715362    1.070399
     31          6           0       -2.923346    6.152479    0.828135
     32          7           0        0.746739    1.505392   -0.056568
     33          6           0        0.599488    2.894428   -0.109720
     34          6           0        1.858384    3.544825    0.021342
     35          6           0        2.742210    2.429124    0.264358
     36          6           0        2.001479    1.248879    0.122576
     37          6           0        2.216239    4.971276    0.055874
     38          6           0        4.119074    2.078851    0.421992
     39          8           0        5.172478    2.710975    0.557496
     40          6           0        4.153369    0.491428    0.261097
     41          6           0        4.943986    0.150931   -0.951301
     42          8           0        4.558757   -0.129080   -2.017743
     43          8           0        6.298978    0.078256   -0.636735
     44          6           0        7.084950   -0.774012   -1.504507
     45          1           0       -0.637150   -4.486368    0.063426
     46          1           0       -5.187309    0.168056   -0.120842
     47          1           0       -0.709688    4.575425   -0.102140
     48          1           0        3.755345   -2.653180   -0.327117
     49          1           0        1.815726   -4.267082    1.108767
     50          1           0        1.420397   -4.374492   -1.673550
     51          1           0        2.019629   -5.517224   -0.437982
     52          1           0        3.181685   -4.523262   -1.290203
     53          1           0        3.402667   -3.613443    2.291776
     54          1           0        3.541747   -1.863250    2.511817
     55          1           0        5.646903   -1.940101    2.498655
     56          1           0        5.745663   -2.580564    0.783127
     57          1           0       -2.997881   -5.455368   -0.722000
     58          1           0       -4.279802   -5.299533    0.509526
     59          1           0       -2.501947   -5.433623    0.926933
     60          1           0       -7.442265   -3.885065   -0.308792
     61          1           0       -6.445243   -4.428669    1.093101
     62          1           0       -6.106782   -4.830890   -0.594629
     63          1           0       -4.854779    2.743209    0.879931
     64          1           0       -3.221787    4.395862   -1.007026
     65          1           0       -5.445283    3.800931   -1.636192
     66          1           0       -6.473942    2.593291   -1.075132
     67          1           0       -5.178279    2.113390   -2.153111
     68          1           0       -2.692819    4.387883    1.939008
     69          1           0       -4.276329    4.828845    1.457439
     70          1           0       -1.996377    6.309406    1.379450
     71          1           0       -3.522652    6.946037    1.274464
     72          1           0       -2.768226    6.319699   -0.238235
     73          1           0        1.358509    5.530679    0.430340
     74          1           0        2.376794    5.227229   -0.991344
     75          1           0        3.178569    5.076563    0.557169
     76          1           0        4.632637    0.038700    1.128745
     77          1           0        7.215394   -0.176627   -2.406203
     78          1           0        6.455940   -1.639721   -1.711240
     79          1           0        8.058457   -1.001649   -1.069321
 ---------------------------------------------------------------------

 SCF Done:  E(RPBE1PBE) =  -2033.67574113     A.U. after   15 cycles

 Excitation energies and oscillator strengths:

 Excited State   1:      Singlet-A      1.8151 eV  683.08 nm  f=0.3933  <S**2>=0.000
     155 ->158         0.14957
     156 ->157         0.69582
     156 <-157        -0.11535
 This state for optimization and/or second-order correction.
 Total Energy, E(TD-HF/TD-DFT) =  -2033.60903794
 Copying the excited state density for this state as the 1-particle RhoCI density.

 Excited State   2:      Singlet-A      2.1895 eV  566.27 nm  f=0.1162  <S**2>=0.000
     155 ->157         0.65567
     156 ->158        -0.22787

 Excited State   3:      Singlet-A      2.7438 eV  451.87 nm  f=0.0006  <S**2>=0.000
     152 ->157        -0.10786
     153 ->157         0.12942
     154 ->157         0.66287
     154 ->159        -0.11184

 Excited State   4:      Singlet-A      2.9172 eV  425.00 nm  f=0.0016  <S**2>=0.000
     153 ->157         0.68586
     154 ->157        -0.12865

 Excited State   5:      Singlet-A      2.9549 eV  419.59 nm  f=0.0002  <S**2>=0.000
     151 ->157         0.66110
     151 ->158        -0.17289
     151 ->159         0.14159

 The electronic state is 1-A.
 Alpha  occ. eigenvalues --  -46.91374 -19.22906 -19.19817 -19.18900 -19.18462
 Alpha  occ. eigenvalues --  -14.42058 -14.41572 -14.39887 -14.38382 -10.35169
 Alpha  occ. eigenvalues --  -10.32244 -10.31566 -10.29442 -10.28853 -10.28650
 Alpha  occ. eigenvalues --  -10.28559 -10.28472 -10.28190 -10.27903 -10.27851
 Alpha  occ. eigenvalues --  -10.27349 -10.27114 -10.27069 -10.26175 -10.26121
 Alpha  occ. eigenvalues --  -10.26073 -10.25707 -10.25553 -10.25387 -10.25146
 Alpha  occ. eigenvalues --  -10.25093 -10.24918 -10.24875 -10.24422 -10.24211
 Alpha  occ. eigenvalues --  -10.23954 -10.23891 -10.23602 -10.23586 -10.23367
 Alpha  occ. eigenvalues --  -10.23332 -10.22827 -10.22538  -3.13707  -1.86518
 Alpha  occ. eigenvalues --   -1.86092  -1.85949  -1.11604  -1.04092  -1.03079
 Alpha  occ. eigenvalues --   -1.02653  -0.99511  -0.98092  -0.96630  -0.95112
 Alpha  occ. eigenvalues --   -0.87100  -0.83477  -0.82925  -0.82765  -0.81780
 Alpha  occ. eigenvalues --   -0.81582  -0.80806  -0.78480  -0.77839  -0.76677
 Alpha  occ. eigenvalues --   -0.75959  -0.75255  -0.74619  -0.72966  -0.71760
 Alpha  occ. eigenvalues --   -0.71025  -0.69634  -0.69595  -0.67582  -0.66126
 Alpha  occ. eigenvalues --   -0.63632  -0.63138  -0.62438  -0.61955  -0.60136
 Alpha  occ. eigenvalues --   -0.59815  -0.59465  -0.58525  -0.55496  -0.54640
 Alpha  occ. eigenvalues --   -0.54010  -0.53627  -0.53167  -0.52895  -0.52239
 Alpha  occ. eigenvalues --   -0.51062  -0.50113  -0.49799  -0.48533  -0.48325
 Alpha  occ. eigenvalues --   -0.47781  -0.47588  -0.47330  -0.46816  -0.46426
 Alpha  occ. eigenvalues --   -0.46223  -0.45994  -0.45842  -0.45406  -0.45169
 Alpha  occ. eigenvalues --   -0.44795  -0.44492  -0.44417  -0.44145  -0.43492
 Alpha  occ. eigenvalues --   -0.43284  -0.43265  -0.42783  -0.42689  -0.41944
 Alpha  occ. eigenvalues --   -0.41667  -0.41561  -0.41184  -0.40977  -0.40818
 Alpha  occ. eigenvalues --   -0.40167  -0.40077  -0.39816  -0.39467  -0.39068
 Alpha  occ. eigenvalues --   -0.38448  -0.38363  -0.38166  -0.37816  -0.37781
 Alpha  occ. eigenvalues --   -0.37257  -0.36827  -0.36587  -0.36303  -0.36066
 Alpha  occ. eigenvalues --   -0.35934  -0.35540  -0.35108  -0.34855  -0.34023
 Alpha  occ. eigenvalues --   -0.33719  -0.32813  -0.32721  -0.32169  -0.31187
 Alpha  occ. eigenvalues --   -0.29853  -0.29686  -0.29198  -0.28629  -0.27110
 Alpha  occ. eigenvalues --   -0.26075  -0.25544  -0.25268  -0.24827  -0.21306
 Alpha  occ. eigenvalues --   -0.19093
 Alpha virt. eigenvalues --   -0.11721  -0.05806  -0.04275  -0.02208  -0.00571
 Alpha virt. eigenvalues --    0.00800   0.01188   0.01672   0.03679   0.04406
 Alpha virt. eigenvalues --    0.04670   0.05218   0.05755   0.06097   0.07072

 Mulliken charges:
               1
     1  Mg  12.002311
     2  C    5.990203
     3  C    6.010523
     4  C    6.014965
     5  C    5.993294
     6  N    6.995135
     7  C    6.024950
     8  C    5.987913
     9  C    6.008485
    10  C    5.974634
    11  C    6.000997
    12  C    5.998979
    13  C    5.996020
    14  H    1.008485
    15  N    7.000480
    16  C    5.966186
    17  C    5.971304
    18  C    5.987969
    19  C    5.971987
    20  C    6.002052
    21  C    5.988326
    22  O    7.970055
    23  C    6.006363
    24  N    7.001294
    25  C    5.967273
    26  C    6.013418
    27  C    5.987505
    28  C    6.031179
    29  C    6.002680
    30  C    5.994484
    31  C    6.000353
    32  N    7.000775
    33  C    6.035040
    34  C    6.027098
    35  C    6.004479
    36  C    6.024710
    37  C    5.999932
    38  C    6.016326
    39  O    8.032314
    40  C    5.999743
    41  C    6.000556
    42  O    8.008145
    43  O    7.999913
    44  C    5.997945
    45  H    0.991881
    46  H    0.993531
    47  H    1.009425
    48  H    1.002651
    49  H    1.000217
    50  H    1.002955
    51  H    1.000096
    52  H    0.987642
    53  H    1.009088
    54  H    0.997386
    55  H    0.997138
    56  H    0.998060
    57  H    0.980408
    58  H    0.986068
    59  H    0.980664
    60  H    0.986529
    61  H    0.990010
    62  H    0.992347
    63  H    0.997551
    64  H    1.003299
    65  H    0.989563
    66  H    1.001747
    67  H    1.001561
    68  H    1.000587
    69  H    1.011149
    70  H    0.995096
    71  H    1.004973
    72  H    1.000124
    73  H    1.017361
    74  H    1.017853
    75  H    1.012649
    76  H    1.010864
    77  H    1.002115
    78  H    1.006066
    79  H    1.004569
 Sum of Mulliken charges = 312.00000

 Dipole moment (field-independent basis, Debye):
    X=              7.7326    Y=              7.3798    Z=              0.1821  Tot=             10.6906
 Quadrupole moment (field-independent basis, Debye-Ang):
   XX=             -9.1804   YY=             -0.6266   ZZ=              0.4718
   XY=             -7.4205   XZ=              0.1116   YZ=              0.2860

 Normal termination of Gaussian 16 at Wed Oct 13 19:59:25 2021.
