 Gaussian 16, Revision A.03,
 Gaussian 16:  ES64L-G16RevA.03 25-Dec-2016

 --------------------------------------------------------
 #p PBE1PBE/Def2SVP td=(nstates=5) density=(transition=1)
 --------------------------------------------------------

 --------------------------------
 TDDFT excited states in gaussian
 --------------------------------
 Symbolic Z-matrix:
 Charge =  0 Multiplicity = 1

                         Standard orientation:
 ---------------------------------------------------------------------
 Center     Atomic      Atomic             Coordinates (Angstroms)
 Number     Number       Type             X           Y           Z
 ---------------------------------------------------------------------
      1         12           0      -20.038269   -0.425453   -0.046817
      2          6           0      -19.374907    2.745111   -1.028752
      3          6           0      -19.378431    0.456609    3.247318
      4          6           0      -20.695798   -3.598272    0.934173
      5          6           0      -20.214232   -1.416054   -3.359035
      6          7           0      -19.568903    1.390786    0.909493
      7          6           0      -19.299907    2.593610    0.341829
      8          6           0      -19.161187    3.693314    1.362029
      9          6           0      -18.889958    2.908127    2.701218
     10          6           0      -19.341284    1.477109    2.260479
     11          6           0      -17.467627    2.980318    3.398731
     12          6           0      -20.499394    4.551100    1.493034
     13          6           0      -20.237101    5.985815    2.038591
     14          1           0      -19.038010    6.302401    2.948040
     15          7           0      -19.971785   -1.502772    1.830240
     16          6           0      -19.676248   -0.900231    3.081159
     17          6           0      -19.777989   -1.881970    4.118528
     18          6           0      -20.152842   -3.108246    3.462262
     19          6           0      -20.298794   -2.733706    2.010256
     20          6           0      -19.615302   -1.601077    5.571237
     21          6           0      -20.397141   -4.488927    4.060944
     22          8           0      -20.612750   -5.550334    3.405422
     23          6           0      -20.369263   -4.661694    5.570108
     24          7           0      -20.333671   -2.254781   -1.049509
     25          6           0      -20.782793   -3.421536   -0.428908
     26          6           0      -21.364822   -4.489503   -1.399454
     27          6           0      -21.213428   -3.665026   -2.797701
     28          6           0      -20.588058   -2.373307   -2.416818
     29          6           0      -20.510497   -5.760936   -1.315614
     30          6           0      -22.487483   -3.532521   -3.578823
     31          6           0      -22.386486   -4.055334   -4.983253
     32          7           0      -19.753048    0.334587   -1.827652
     33          6           0      -19.875372   -0.134800   -3.129567
     34          6           0      -19.600270    0.904342   -4.051222
     35          6           0      -19.344272    2.083894   -3.301708
     36          6           0      -19.550239    1.727377   -1.952260
     37          6           0      -19.607064    0.865868   -5.531219
     38          6           0      -18.900541    3.458576   -3.377793
     39          8           0      -18.548840    4.200948   -4.273700
     40          6           0      -18.989699    3.933850   -1.850477
     41          6           0      -17.856468    4.814881   -1.464776
     42          8           0      -16.694631    4.654129   -1.738832
     43          8           0      -18.238476    5.899195   -0.772286
     44          6           0      -17.118991    6.792806   -0.359701
     45          1           0      -18.984680    0.792616    4.208966
     46          1           0      -20.773830   -4.640615    1.249956
     47          1           0      -20.362109   -1.618366   -4.421818
     48          1           0      -18.259292    4.287079    1.214222
     49          1           0      -19.634504    3.217553    3.434005
     50          1           0      -16.872460    3.704958    2.842933
     51          1           0      -16.902369    2.054344    3.491707
     52          1           0      -17.644708    3.291750    4.428349
     53          1           0      -21.137943    3.951077    2.141597
     54          1           0      -20.938789    4.614792    0.497481
     55          1           0      -21.166751    6.204081    2.564468
     56          1           0      -20.259490    6.646683    1.172476
     57          1           0      -20.490289   -1.192140    6.076576
     58          1           0      -18.759979   -0.929971    5.638825
     59          1           0      -19.208568   -2.444538    6.128338
     60          1           0      -19.318563   -4.774592    5.836852
     61          1           0      -20.891275   -5.600732    5.752336
     62          1           0      -20.786778   -3.819336    6.121948
     63          1           0      -22.361427   -4.723053   -1.024652
     64          1           0      -20.518833   -4.205543   -3.441612
     65          1           0      -19.590411   -5.679448   -0.736529
     66          1           0      -20.367698   -6.156020   -2.321127
     67          1           0      -21.103879   -6.477496   -0.746951
     68          1           0      -22.803108   -2.498063   -3.715028
     69          1           0      -23.353652   -4.011202   -3.121793
     70          1           0      -23.206646   -4.720208   -5.252630
     71          1           0      -21.464905   -4.617305   -5.132494
     72          1           0      -22.284068   -3.157232   -5.593078
     73          1           0      -19.330231   -0.085192   -5.987109
     74          1           0      -18.723604    1.447182   -5.796743
     75          1           0      -20.564872    1.223779   -5.909002
     76          1           0      -19.868783    4.568039   -1.968646
     77          1           0      -16.761109    7.409887   -1.185082
     78          1           0      -16.340126    6.250003    0.176132
     79          1           0      -17.502045    7.493771    0.382336
     80         12           0       19.329468   -0.668852    0.024355
     81          6           0       21.457871    1.930662   -0.483506
     82          6           0       17.187986    1.185909    1.993363
     83          6           0       17.445890   -3.478141    0.556705
     84          6           0       21.710310   -2.820517   -1.646816
     85          7           0       19.453588    1.258581    0.832343
     86          6           0       20.302154    2.275396    0.279253
     87          6           0       19.835447    3.621241    0.667360
     88          6           0       18.738929    3.266751    1.769263
     89          6           0       18.405479    1.806743    1.557651
     90          6           0       19.247499    3.524151    3.275017
     91          6           0       19.426914    4.540270   -0.524723
     92          6           0       19.935875    5.943869   -0.451657
     93          1           0       19.916991    6.616259    0.977475
     94          7           0       17.517368   -1.070882    1.067062
     95          6           0       16.848041   -0.141880    1.806874
     96          6           0       15.688114   -0.772392    2.337214
     97          6           0       15.658330   -2.144380    1.870327
     98          6           0       16.895789   -2.303362    1.035294
     99          6           0       14.739552   -0.054534    3.322062
    100          6           0       14.677924   -3.262485    2.040595
    101          8           0       14.788816   -4.442217    1.688465
    102          6           0       13.312134   -2.857632    2.713750
    103          7           0       19.590144   -2.921308   -0.388978
    104          6           0       18.639698   -3.792078   -0.156764
    105          6           0       18.890790   -5.128264   -0.852606
    106          6           0       20.260474   -4.896733   -1.552431
    107          6           0       20.565828   -3.451412   -1.164081
    108          6           0       18.914583   -6.387865    0.154228
    109          6           0       20.070740   -5.081299   -3.122513
    110          6           0       19.215074   -4.087191   -3.945981
    111          7           0       21.283462   -0.535846   -0.747278
    112          6           0       22.057078   -1.462750   -1.420019
    113          6           0       23.219302   -0.724356   -1.954620
    114          6           0       23.079707    0.598702   -1.660388
    115          6           0       21.853437    0.655460   -0.903623
    116          6           0       24.413340   -1.374920   -2.563574
    117          6           0       23.647938    1.941802   -1.773085
    118          8           0       24.675431    2.338162   -2.297098
    119          6           0       22.593731    2.842306   -0.991358
    120          6           0       23.297078    3.427502    0.168172
    121          8           0       23.908840    2.832682    1.072553
    122          8           0       23.127866    4.788167    0.010655
    123          6           0       23.586213    5.593075    1.150518
    124          1           0       16.458451    1.750885    2.577091
    125          1           0       16.739187   -4.304104    0.666801
    126          1           0       22.402768   -3.438146   -2.221480
    127          1           0       20.707519    4.084647    1.130453
    128          1           0       17.854367    3.869454    1.565609
    129          1           0       20.151806    4.129905    3.333249
    130          1           0       19.578108    2.555345    3.649204
    131          1           0       18.356347    3.892633    3.781423
    132          1           0       18.340222    4.597224   -0.588266
    133          1           0       19.872695    4.031907   -1.379560
    134          1           0       19.336322    6.645462   -1.030327
    135          1           0       20.922252    6.214070   -0.828937
    136          1           0       14.058394    0.672856    2.880596
    137          1           0       15.436370    0.372396    4.043172
    138          1           0       14.014879   -0.726719    3.781035
    139          1           0       13.479504   -2.688667    3.777518
    140          1           0       12.556437   -3.576467    2.397579
    141          1           0       12.866255   -1.957614    2.289863
    142          1           0       18.121178   -5.272300   -1.610554
    143          1           0       21.038172   -5.589425   -1.230641
    144          1           0       17.978449   -6.921076   -0.015260
    145          1           0       18.940847   -6.041888    1.188036
    146          1           0       19.684674   -7.150713    0.047001
    147          1           0       19.728633   -6.068488   -3.432765
    148          1           0       21.091851   -4.923819   -3.471359
    149          1           0       19.954735   -3.630570   -4.603774
    150          1           0       18.685462   -3.369458   -3.320759
    151          1           0       18.439675   -4.563204   -4.546159
    152          1           0       24.736639   -0.636148   -3.296272
    153          1           0       24.184752   -2.336684   -3.023145
    154          1           0       25.217724   -1.321783   -1.831087
    155          1           0       22.433875    3.614227   -1.743678
    156          1           0       23.470835    6.608860    0.771296
    157          1           0       24.651683    5.386107    1.250752
    158          1           0       23.131057    5.356028    2.112375
 ---------------------------------------------------------------------

 SCF Done:  E(RPBE1PBE) =  -4067.37455045     A.U. after   16 cycles

 Excitation energies and oscillator strengths:

 Excited State   1:      Singlet-A      1.8023 eV  687.94 nm  f=0.3663  <S**2>=0.000
     310 -> 316       -0.16348
     311 -> 313        0.69741
     311 <- 313       -0.11962
 This state for optimization and/or second-order correction.
 Total Energy, E(TD-HF/TD-DFT) =  -4067.30831871
 Copying the excited state density for this state as the 1-particle RhoCI density.

 Excited State   2:      Singlet-A      1.8382 eV  674.48 nm  f=0.3776  <S**2>=0.000
     309 -> 315       -0.17972
     312 -> 314        0.69182
     312 <- 314       -0.10365

 Excited State   3:      Singlet-A      1.8775 eV  660.37 nm  f=0.0000  <S**2>=0.000
     312 -> 313        0.70711

 Excited State   4:      Singlet-A      1.9936 eV  621.93 nm  f=0.0000  <S**2>=0.000
     311 -> 314        0.70710

 Excited State   5:      Singlet-A      2.2177 eV  559.08 nm  f=0.1169  <S**2>=0.000
     310 -> 313        0.65141
     311 -> 316        0.25933

 The electronic state is 1-A.
 Alpha  occ. eigenvalues --  -46.92637 -46.90589 -19.26355 -19.25806 -19.20553
 Alpha  occ. eigenvalues --  -19.19937 -19.19543 -19.19460 -19.19006 -19.18746
 Alpha  occ. eigenvalues --  -14.42313 -14.41968 -14.41573 -14.41323 -14.39221
 Alpha  occ. eigenvalues --  -14.39157 -14.39079 -14.38519 -10.36601 -10.35607
 Alpha  occ. eigenvalues --  -10.32709 -10.32660 -10.32360 -10.32291 -10.29634
 Alpha  occ. eigenvalues --  -10.29584 -10.29306 -10.29141 -10.29085 -10.28694
 Alpha  occ. eigenvalues --  -10.28506 -10.28480 -10.28268 -10.28106 -10.27917
 Alpha  occ. eigenvalues --  -10.27754 -10.27604 -10.27583 -10.27334 -10.26896
 Alpha  occ. eigenvalues --  -10.26727 -10.26703 -10.26646 -10.26583 -10.26540
 Alpha  occ. eigenvalues --  -10.26349 -10.26303 -10.26152 -10.26109 -10.26028
 Alpha  occ. eigenvalues --  -10.25892 -10.25876 -10.25745 -10.25570 -10.25513
 Alpha  occ. eigenvalues --  -10.25507 -10.25489 -10.25420 -10.25388 -10.25385
 Alpha  occ. eigenvalues --  -10.25381 -10.25372 -10.25241 -10.25176 -10.25096
 Alpha  occ. eigenvalues --  -10.25080 -10.24964 -10.24726 -10.24591 -10.24333
 Alpha  occ. eigenvalues --  -10.24217 -10.24078 -10.23721 -10.23672 -10.23333
 Alpha  occ. eigenvalues --  -10.23296 -10.23248 -10.23129 -10.23122 -10.23025
 Alpha  occ. eigenvalues --  -10.23015 -10.23008 -10.22999 -10.22937 -10.22657
 Alpha  occ. eigenvalues --  -10.22584  -3.14626  -3.13018  -1.87469  -1.86990
 Alpha  occ. eigenvalues --   -1.86849  -1.85852  -1.85373  -1.85289  -1.12107
 Alpha  occ. eigenvalues --   -1.10771  -1.05090  -1.04900  -1.04150  -1.02326
 Alpha  occ. eigenvalues --   -1.02109  -1.02106  -0.99765  -0.99123  -0.98592
 Alpha  occ. eigenvalues --   -0.98258  -0.97434  -0.97373  -0.96316  -0.96069
 Alpha  occ. eigenvalues --   -0.87755  -0.86823  -0.84041  -0.83401  -0.83123
 Alpha  occ. eigenvalues --   -0.83096  -0.82858  -0.82298  -0.82046  -0.81713
 Alpha  occ. eigenvalues --   -0.81552  -0.81252  -0.80737  -0.80397  -0.78946
 Alpha  occ. eigenvalues --   -0.78681  -0.78103  -0.77678  -0.76781  -0.76683
 Alpha  occ. eigenvalues --   -0.75907  -0.75878  -0.75481  -0.75415  -0.74777
 Alpha  occ. eigenvalues --   -0.74129  -0.72627  -0.72341  -0.72132  -0.71676
 Alpha  occ. eigenvalues --   -0.71669  -0.71472  -0.70865  -0.70152  -0.69613
 Alpha  occ. eigenvalues --   -0.69309  -0.67363  -0.66939  -0.66651  -0.66317
 Alpha  occ. eigenvalues --   -0.64182  -0.63649  -0.63527  -0.63073  -0.62842
 Alpha  occ. eigenvalues --   -0.62601  -0.61832  -0.61132  -0.60298  -0.59814
 Alpha  occ. eigenvalues --   -0.59813  -0.59475  -0.59343  -0.59222  -0.58941
 Alpha  occ. eigenvalues --   -0.58700  -0.57125  -0.56924  -0.54900  -0.54827
 Alpha  occ. eigenvalues --   -0.54468  -0.53997  -0.53568  -0.53498  -0.53381
 Alpha  occ. eigenvalues --   -0.53022  -0.52561  -0.52505  -0.52335  -0.52112
 Alpha  occ. eigenvalues --   -0.50706  -0.50556  -0.50094  -0.49896  -0.49766
 Alpha  occ. eigenvalues --   -0.49603  -0.49529  -0.49449  -0.49031  -0.48541
 Alpha  occ. eigenvalues --   -0.48124  -0.47985  -0.47928  -0.47673  -0.47632
 Alpha  occ. eigenvalues --   -0.47498  -0.47117  -0.46980  -0.46918  -0.46914
 Alpha  occ. eigenvalues --   -0.46694  -0.46627  -0.46477  -0.46312  -0.46214
 Alpha  occ. eigenvalues --   -0.45915  -0.45764  -0.45650  -0.45402  -0.45003
 Alpha  occ. eigenvalues --   -0.44674  -0.44534  -0.44445  -0.44284  -0.44262
 Alpha  occ. eigenvalues --   -0.43964  -0.43607  -0.43490  -0.43475  -0.43259
 Alpha  occ. eigenvalues --   -0.43202  -0.43114  -0.43100  -0.42874  -0.42757
 Alpha  occ. eigenvalues --   -0.42713  -0.42398  -0.42340  -0.42086  -0.42025
 Alpha  occ. eigenvalues --   -0.42002  -0.41853  -0.41604  -0.41420  -0.41358
 Alpha  occ. eigenvalues --   -0.41337  -0.41073  -0.40878  -0.40702  -0.40603
 Alpha  occ. eigenvalues --   -0.40311  -0.40006  -0.39943  -0.39762  -0.39580
 Alpha  occ. eigenvalues --   -0.39499  -0.39383  -0.39301  -0.38886  -0.38748
 Alpha  occ. eigenvalues --   -0.38728  -0.38421  -0.38250  -0.38138  -0.38017
 Alpha  occ. eigenvalues --   -0.38013  -0.37738  -0.37681  -0.37651  -0.37263
 Alpha  occ. eigenvalues --   -0.37166  -0.37093  -0.37062  -0.36884  -0.36855
 Alpha  occ. eigenvalues --   -0.36828  -0.36802  -0.36501  -0.36427  -0.36296
 Alpha  occ. eigenvalues --   -0.35935  -0.35762  -0.35664  -0.35366  -0.35360
 Alpha  occ. eigenvalues --   -0.35312  -0.35289  -0.34985  -0.34729  -0.34476
 Alpha  occ. eigenvalues --   -0.33262  -0.33009  -0.32857  -0.32674  -0.32521
 Alpha  occ. eigenvalues --   -0.32261  -0.32148  -0.32072  -0.31735  -0.31624
 Alpha  occ. eigenvalues --   -0.31476  -0.31377  -0.29851  -0.29632  -0.29422
 Alpha  occ. eigenvalues --   -0.29379  -0.29016  -0.28450  -0.27024  -0.26873
 Alpha  occ. eigenvalues --   -0.26334  -0.25965  -0.25946  -0.25651  -0.25547
 Alpha  occ. eigenvalues --   -0.25457  -0.25433  -0.25219  -0.21296  -0.21220
 Alpha  occ. eigenvalues --   -0.18727  -0.18660
 Alpha virt. eigenvalues --   -0.11427  -0.11062  -0.05789  -0.05157  -0.04448
 Alpha virt. eigenvalues --   -0.04111  -0.02271  -0.02158  -0.00864   0.00071
 Alpha virt. eigenvalues --    0.00091   0.00805   0.00817   0.01045   0.01169

 Mulliken charges:
               1
     1  Mg  12.004283
     2  C    5.978269
     3  C    5.999558
     4  C    6.030846
     5  C    6.015315
     6  N    6.985608
     7  C    6.031862
     8  C    5.988269
     9  C    6.009590
    10  C    5.968433
    11  C    6.004462
    12  C    5.997432
    13  C    5.999896
    14  H    1.005834
    15  N    7.003230
    16  C    5.961891
    17  C    5.986361
    18  C    5.979016
    19  C    5.970120
    20  C    6.003675
    21  C    5.986648
    22  O    7.962260
    23  C    6.004928
    24  N    7.019892
    25  C    5.967119
    26  C    6.009322
    27  C    5.988483
    28  C    6.018196
    29  C    5.999807
    30  C    5.993699
    31  C    5.999752
    32  N    6.997118
    33  C    6.019333
    34  C    6.034995
    35  C    6.000875
    36  C    6.029571
    37  C    5.997045
    38  C    6.013787
    39  O    8.023479
    40  C    6.003403
    41  C    6.003365
    42  O    8.002053
    43  O    8.001961
    44  C    5.998592
    45  H    0.985309
    46  H    1.001379
    47  H    1.014933
    48  H    0.999128
    49  H    0.996514
    50  H    0.985103
    51  H    1.000565
    52  H    0.996757
    53  H    1.011088
    54  H    0.992757
    55  H    1.002272
    56  H    0.995683
    57  H    0.981791
    58  H    0.987157
    59  H    0.986284
    60  H    0.989916
    61  H    0.985651
    62  H    0.993051
    63  H    1.003741
    64  H    1.004147
    65  H    1.004962
    66  H    0.992587
    67  H    1.005149
    68  H    0.998202
    69  H    1.012446
    70  H    1.007119
    71  H    1.003913
    72  H    0.995972
    73  H    1.016595
    74  H    1.015364
    75  H    1.021200
    76  H    1.003517
    77  H    1.000415
    78  H    1.004982
    79  H    1.004716
    80  Mg  12.000003
    81  C    6.000161
    82  C    5.999836
    83  C    5.999921
    84  C    6.000057
    85  N    6.999960
    86  C    5.999723
    87  C    6.000101
    88  C    5.999895
    89  C    6.000369
    90  C    5.999999
    91  C    6.000029
    92  C    6.000054
    93  H    0.999966
    94  N    6.999923
    95  C    6.000320
    96  C    6.000130
    97  C    6.000130
    98  C    6.000215
    99  C    5.999967
   100  C    6.000102
   101  O    8.000236
   102  C    5.999965
   103  N    7.000069
   104  C    6.000191
   105  C    5.999901
   106  C    6.000111
   107  C    5.999708
   108  C    5.999979
   109  C    6.000011
   110  C    6.000045
   111  N    6.999995
   112  C    5.999688
   113  C    5.999813
   114  C    6.000000
   115  C    5.999759
   116  C    6.000028
   117  C    5.999827
   118  O    7.999797
   119  C    5.999971
   120  C    5.999999
   121  O    7.999976
   122  O    7.999964
   123  C    6.000041
   124  H    1.000071
   125  H    1.000071
   126  H    0.999945
   127  H    0.999993
   128  H    0.999988
   129  H    1.000107
   130  H    1.000022
   131  H    1.000006
   132  H    0.999872
   133  H    1.000012
   134  H    0.999914
   135  H    1.000009
   136  H    1.000148
   137  H    1.000161
   138  H    1.000154
   139  H    1.000140
   140  H    1.000135
   141  H    1.000036
   142  H    0.999987
   143  H    1.000006
   144  H    1.000001
   145  H    1.000013
   146  H    1.000091
   147  H    0.999931
   148  H    1.000029
   149  H    1.000025
   150  H    0.999931
   151  H    0.999922
   152  H    0.999866
   153  H    0.999821
   154  H    0.999859
   155  H    0.999911
   156  H    0.999940
   157  H    0.999985
   158  H    0.999961
 Sum of Mulliken charges = 624.00000

 Dipole moment (field-independent basis, Debye):
    X=              0.0009    Y=              3.5131    Z=             -9.7383  Tot=             10.3526
 Quadrupole moment (field-independent basis, Debye-Ang):
   XX=             -5.0499   YY=             -3.8036   ZZ=             -1.4668
   XY=            -69.1587   XZ=            194.5292   YZ=              8.6183

 Normal termination of Gaussian 16 at Fri Oct 15 00:46:28 2021.
