 Gaussian 16, Revision A.03,
 Gaussian 16:  ES64L-G16RevA.03 25-Dec-2016

 --------------------------------------------------------
 #p PBE1PBE/Def2SVP td=(nstates=5) density=(transition=1)
 --------------------------------------------------------

 --------------------------------
 TDDFT excited states in gaussian
 --------------------------------
 Symbolic Z-matrix:
 Charge =  0 Multiplicity = 1

                         Standard orientation:
 ---------------------------------------------------------------------
 Center     Atomic      Atomic             Coordinates (Angstroms)
 Number     Number       Type             X           Y           Z
 ---------------------------------------------------------------------
      1         12           0      -12.429445    0.235202   -0.757231
      2          6           0       -9.409436   -1.623023   -0.599109
      3          6           0      -14.130767   -2.776641   -0.308422
      4          6           0      -14.982031    2.046938    0.261623
      5          6           0      -10.315363    3.221370   -0.889234
      6          7           0      -11.773342   -1.973041   -0.229020
      7          6           0      -10.540792   -2.471133   -0.497052
      8          6           0      -10.607171   -3.987581   -0.525971
      9          6           0      -12.026902   -4.287682   -1.007143
     10          6           0      -12.721809   -2.948634   -0.435254
     11          6           0      -12.280883   -4.394726   -2.511927
     12          6           0      -10.186101   -4.567203    0.894443
     13          6           0       -9.255083   -5.709808    0.782245
     14          1           0       -9.479477   -6.908327    1.724673
     15          7           0      -14.348174   -0.267742   -0.044551
     16          6           0      -14.882883   -1.579697   -0.015350
     17          6           0      -16.251174   -1.451094    0.418713
     18          6           0      -16.600231   -0.078145    0.518719
     19          6           0      -15.310839    0.660587    0.272520
     20          6           0      -17.115653   -2.687825    0.642557
     21          6           0      -17.911785    0.462444    0.932415
     22          8           0      -18.811843   -0.320620    1.209605
     23          6           0      -18.266818    1.896880    1.148961
     24          7           0      -12.555190    2.415181   -0.271694
     25          6           0      -13.815906    2.850591   -0.077321
     26          6           0      -13.867272    4.389142   -0.085451
     27          6           0      -12.382561    4.809821   -0.613505
     28          6           0      -11.693259    3.421163   -0.645342
     29          6           0      -15.108999    5.006868   -0.872914
     30          6           0      -11.644088    5.886088    0.242296
     31          6           0      -10.585590    5.388473    1.284801
     32          7           0      -10.390745    0.728706   -0.755038
     33          6           0       -9.710343    1.973406   -0.880085
     34          6           0       -8.228885    1.693451   -1.126425
     35          6           0       -8.132796    0.320452   -0.965575
     36          6           0       -9.459092   -0.205389   -0.764163
     37          6           0       -7.027900    2.614607   -1.415097
     38          6           0       -7.228879   -0.784877   -1.007736
     39          8           0       -6.027998   -0.823885   -1.280607
     40          6           0       -8.034091   -1.974569   -0.623665
     41          6           0       -7.521082   -2.295957    0.798701
     42          8           0       -7.823599   -1.726952    1.845452
     43          8           0       -6.560985   -3.338057    0.672534
     44          6           0       -5.852231   -3.733221    1.821383
     45          1           0      -14.728648   -3.689484   -0.263988
     46          1           0      -15.928037    2.562164    0.439497
     47          1           0       -9.618893    4.038919   -1.083192
     48          1           0       -9.967154   -4.432857   -1.287538
     49          1           0      -12.552523   -5.175704   -0.657966
     50          1           0      -11.380571   -4.576187   -3.098254
     51          1           0      -12.939426   -3.601110   -2.865758
     52          1           0      -12.856989   -5.318210   -2.580694
     53          1           0      -11.080315   -4.935484    1.397402
     54          1           0       -9.853925   -3.811111    1.605919
     55          1           0       -8.294639   -5.225461    0.954797
     56          1           0       -9.305111   -6.091259   -0.237494
     57          1           0      -17.845326   -2.845236   -0.151496
     58          1           0      -17.566940   -2.622931    1.631543
     59          1           0      -16.495676   -3.584318    0.657975
     60          1           0      -18.260621    2.398076    0.180731
     61          1           0      -17.624734    2.447663    1.837414
     62          1           0      -19.321107    2.015975    1.395778
     63          1           0      -13.919102    4.634713    0.975048
     64          1           0      -12.460285    5.111216   -1.657575
     65          1           0      -15.935047    4.297499   -0.921387
     66          1           0      -14.942329    5.472195   -1.845128
     67          1           0      -15.305227    5.923432   -0.314380
     68          1           0      -12.335137    6.545197    0.767148
     69          1           0      -11.107155    6.450608   -0.519633
     70          1           0      -10.756445    6.192152    2.001430
     71          1           0       -9.536070    5.384322    0.989725
     72          1           0      -10.933680    4.431877    1.675031
     73          1           0       -6.551930    2.351943   -2.359208
     74          1           0       -6.373625    2.213045   -0.641880
     75          1           0       -7.345982    3.638767   -1.221330
     76          1           0       -7.789937   -2.806826   -1.283943
     77          1           0       -5.122873   -4.527013    1.655309
     78          1           0       -6.581933   -4.097841    2.543254
     79          1           0       -5.344711   -2.829985    2.161224
     80         12           0       11.458995    0.860079   -0.085124
     81          6           0       12.353994   -2.502683    0.115779
     82          6           0        8.413746    0.092069    1.336566
     83          6           0       10.865877    4.082005   -0.274093
     84          6           0       14.986663    1.652248   -0.543999
     85          7           0       10.482507   -1.109018    0.597337
     86          6           0       11.040275   -2.356479    0.616333
     87          6           0       10.066444   -3.367165    1.109189
     88          6           0        8.808865   -2.513355    1.543064
     89          6           0        9.218947   -1.042762    1.141804
     90          6           0        7.452279   -3.042222    1.013141
     91          6           0       10.615510   -4.217269    2.280634
     92          6           0       10.450118   -5.708269    1.991810
     93          1           0        9.731002   -6.574212    3.069780
     94          7           0        9.834467    1.937749    0.432537
     95          6           0        8.638606    1.461033    0.967498
     96          6           0        7.762685    2.622329    1.054616
     97          6           0        8.451927    3.820245    0.548588
     98          6           0        9.792521    3.305500    0.125363
     99          6           0        6.479921    2.585507    1.721702
    100          6           0        7.876424    5.170284    0.668744
    101          8           0        6.775897    5.405562    1.121970
    102          6           0        8.615730    6.420136    0.339864
    103          7           0       12.723428    2.536945   -0.315971
    104          6           0       12.164751    3.745930   -0.645054
    105          6           0       13.250780    4.769409   -0.901280
    106          6           0       14.501381    4.082518   -0.497052
    107          6           0       14.081300    2.702625   -0.374558
    108          6           0       13.239324    5.413951   -2.347743
    109          6           0       15.017684    4.521120    0.916266
    110          6           0       16.458963    4.464317    1.133714
    111          7           0       13.334886   -0.176635   -0.229404
    112          6           0       14.645941    0.250389   -0.477770
    113          6           0       15.455526   -0.886454   -0.786047
    114          6           0       14.639149   -1.982423   -0.532852
    115          6           0       13.337774   -1.498311   -0.149167
    116          6           0       16.874847   -0.802296   -1.211770
    117          6           0       14.607422   -3.389506   -0.471969
    118          8           0       15.478223   -4.199562   -0.699005
    119          6           0       13.156011   -3.781669   -0.116132
    120          6           0       12.627609   -4.668951   -1.164455
    121          8           0       12.086710   -4.299954   -2.220519
    122          8           0       12.964059   -5.971876   -0.876946
    123          6           0       12.472034   -7.057399   -1.709605
    124          1           0        7.449437   -0.233101    1.731187
    125          1           0       10.826512    5.172850   -0.327660
    126          1           0       16.028295    1.935670   -0.708846
    127          1           0        9.703724   -3.851238    0.201995
    128          1           0        8.637247   -2.506766    2.619010
    129          1           0        7.692897   -4.073176    0.750838
    130          1           0        6.978164   -2.463963    0.220019
    131          1           0        6.722431   -3.063751    1.822069
    132          1           0       10.064960   -4.096505    3.213411
    133          1           0       11.659572   -3.928783    2.400969
    134          1           0       11.496225   -6.010620    2.037929
    135          1           0       10.044843   -5.798847    0.985095
    136          1           0        6.299940    1.560939    2.047929
    137          1           0        5.611657    2.809367    1.101216
    138          1           0        6.516686    3.218849    2.608756
    139          1           0        9.018427    6.130409   -0.630717
    140          1           0        9.410888    6.557356    1.073139
    141          1           0        7.938771    7.270759    0.257790
    142          1           0       12.986448    5.579295   -0.222340
    143          1           0       15.315861    4.038426   -1.220158
    144          1           0       12.324891    5.146658   -2.877664
    145          1           0       14.150177    5.259887   -2.927338
    146          1           0       13.098341    6.494354   -2.334125
    147          1           0       14.509549    3.932907    1.680502
    148          1           0       14.735973    5.553167    1.124521
    149          1           0       16.898597    5.403988    0.797524
    150          1           0       16.917735    3.603277    0.646548
    151          1           0       16.671259    4.535653    2.200946
    152          1           0       17.036417    0.043904   -1.879422
    153          1           0       17.256849   -1.718127   -1.663085
    154          1           0       17.399484   -0.533428   -0.294896
    155          1           0       13.094941   -4.438342    0.751813
    156          1           0       12.890129   -7.191928   -2.707254
    157          1           0       11.385528   -7.002015   -1.773857
    158          1           0       12.790565   -7.955836   -1.182279
 ---------------------------------------------------------------------

 SCF Done:  E(RPBE1PBE) =  -4067.30458195     A.U. after   15 cycles

 Excitation energies and oscillator strengths:

 Excited State   1:      Singlet-A      1.7989 eV  689.23 nm  f=0.0000  <S**2>=0.000
     312 -> 313        0.70709
 This state for optimization and/or second-order correction.
 Total Energy, E(TD-HF/TD-DFT) =  -4067.23847421
 Copying the excited state density for this state as the 1-particle RhoCI density.

 Excited State   2:      Singlet-A      1.8347 eV  675.78 nm  f=0.5812  <S**2>=0.000
     309 -> 316        0.15030
     310 -> 315        0.10488
     311 -> 313        0.57106
     312 -> 314        0.38594

 Excited State   3:      Singlet-A      1.8432 eV  672.67 nm  f=0.1328  <S**2>=0.000
     309 -> 316       -0.10371
     310 -> 315        0.15731
     311 -> 313       -0.38701
     312 -> 314        0.56833

 Excited State   4:      Singlet-A      2.0516 eV  604.33 nm  f=0.0000  <S**2>=0.000
     311 -> 314        0.70707

 Excited State   5:      Singlet-A      2.1946 eV  564.94 nm  f=0.0408  <S**2>=0.000
     309 -> 313        0.16463
     310 -> 314        0.61355
     312 -> 315       -0.28982

 The electronic state is 1-A.
 Alpha  occ. eigenvalues --  -46.94660 -46.92260 -19.25463 -19.25355 -19.21571
 Alpha  occ. eigenvalues --  -19.19523 -19.19057 -19.18572 -19.17811 -19.17526
 Alpha  occ. eigenvalues --  -14.41852 -14.41769 -14.41486 -14.41392 -14.39858
 Alpha  occ. eigenvalues --  -14.39838 -14.39432 -14.38795 -10.37633 -10.36032
 Alpha  occ. eigenvalues --  -10.31601 -10.31297 -10.31273 -10.30742 -10.29605
 Alpha  occ. eigenvalues --  -10.29262 -10.29258 -10.29210 -10.29182 -10.29122
 Alpha  occ. eigenvalues --  -10.28975 -10.28833 -10.28675 -10.28657 -10.28651
 Alpha  occ. eigenvalues --  -10.28580 -10.28242 -10.28190 -10.27855 -10.27637
 Alpha  occ. eigenvalues --  -10.27043 -10.26975 -10.26773 -10.26617 -10.26434
 Alpha  occ. eigenvalues --  -10.26340 -10.26338 -10.26212 -10.26179 -10.26125
 Alpha  occ. eigenvalues --  -10.26088 -10.26075 -10.25977 -10.25877 -10.25683
 Alpha  occ. eigenvalues --  -10.25669 -10.25623 -10.25441 -10.25392 -10.25320
 Alpha  occ. eigenvalues --  -10.25289 -10.25174 -10.25142 -10.25088 -10.24992
 Alpha  occ. eigenvalues --  -10.24866 -10.24865 -10.24723 -10.24703 -10.24701
 Alpha  occ. eigenvalues --  -10.24496 -10.24271 -10.24245 -10.24056 -10.23856
 Alpha  occ. eigenvalues --  -10.23840 -10.23808 -10.23645 -10.23079 -10.23068
 Alpha  occ. eigenvalues --  -10.22945 -10.22753 -10.22618 -10.22455 -10.22420
 Alpha  occ. eigenvalues --  -10.22168  -3.16448  -3.14332  -1.89226  -1.88873
 Alpha  occ. eigenvalues --   -1.88624  -1.87175  -1.86715  -1.86545  -1.10537
 Alpha  occ. eigenvalues --   -1.10149  -1.04793  -1.04508  -1.04244  -1.04110
 Alpha  occ. eigenvalues --   -1.03433  -1.01440  -0.99536  -0.98775  -0.98410
 Alpha  occ. eigenvalues --   -0.98035  -0.97569  -0.97450  -0.96107  -0.95952
 Alpha  occ. eigenvalues --   -0.88727  -0.86965  -0.85060  -0.83789  -0.83421
 Alpha  occ. eigenvalues --   -0.83324  -0.82983  -0.82057  -0.81993  -0.81547
 Alpha  occ. eigenvalues --   -0.81522  -0.81146  -0.80486  -0.79883  -0.79471
 Alpha  occ. eigenvalues --   -0.79044  -0.78813  -0.77916  -0.77679  -0.76952
 Alpha  occ. eigenvalues --   -0.76742  -0.75845  -0.75679  -0.75120  -0.75099
 Alpha  occ. eigenvalues --   -0.74596  -0.72964  -0.72326  -0.72229  -0.71558
 Alpha  occ. eigenvalues --   -0.71346  -0.71175  -0.70568  -0.70316  -0.69678
 Alpha  occ. eigenvalues --   -0.69548  -0.67810  -0.67148  -0.66430  -0.66294
 Alpha  occ. eigenvalues --   -0.64235  -0.63745  -0.63426  -0.63142  -0.62287
 Alpha  occ. eigenvalues --   -0.61805  -0.61674  -0.61229  -0.60882  -0.60351
 Alpha  occ. eigenvalues --   -0.59816  -0.59749  -0.59417  -0.59217  -0.59183
 Alpha  occ. eigenvalues --   -0.59074  -0.56746  -0.56562  -0.55244  -0.54456
 Alpha  occ. eigenvalues --   -0.54298  -0.54017  -0.53948  -0.53888  -0.53579
 Alpha  occ. eigenvalues --   -0.53274  -0.52889  -0.52480  -0.51796  -0.51561
 Alpha  occ. eigenvalues --   -0.50929  -0.50629  -0.50544  -0.50335  -0.50210
 Alpha  occ. eigenvalues --   -0.49992  -0.49679  -0.49406  -0.49130  -0.48962
 Alpha  occ. eigenvalues --   -0.48766  -0.48266  -0.47922  -0.47848  -0.47620
 Alpha  occ. eigenvalues --   -0.47415  -0.47292  -0.47040  -0.46713  -0.46707
 Alpha  occ. eigenvalues --   -0.46451  -0.46427  -0.46281  -0.46224  -0.46179
 Alpha  occ. eigenvalues --   -0.45963  -0.45917  -0.45791  -0.45761  -0.45144
 Alpha  occ. eigenvalues --   -0.44949  -0.44752  -0.44591  -0.44470  -0.44125
 Alpha  occ. eigenvalues --   -0.44046  -0.43996  -0.43779  -0.43712  -0.43584
 Alpha  occ. eigenvalues --   -0.43427  -0.43173  -0.43128  -0.43049  -0.42891
 Alpha  occ. eigenvalues --   -0.42490  -0.42250  -0.42179  -0.41812  -0.41775
 Alpha  occ. eigenvalues --   -0.41663  -0.41599  -0.41434  -0.41210  -0.40971
 Alpha  occ. eigenvalues --   -0.40815  -0.40771  -0.40604  -0.40573  -0.40520
 Alpha  occ. eigenvalues --   -0.40442  -0.40163  -0.40058  -0.40027  -0.39884
 Alpha  occ. eigenvalues --   -0.39696  -0.39272  -0.39272  -0.39198  -0.39186
 Alpha  occ. eigenvalues --   -0.38897  -0.38823  -0.38526  -0.38465  -0.38295
 Alpha  occ. eigenvalues --   -0.38162  -0.38113  -0.38033  -0.37830  -0.37791
 Alpha  occ. eigenvalues --   -0.37757  -0.37351  -0.37234  -0.36980  -0.36898
 Alpha  occ. eigenvalues --   -0.36557  -0.36395  -0.36309  -0.36131  -0.36088
 Alpha  occ. eigenvalues --   -0.35993  -0.35843  -0.35758  -0.35522  -0.35323
 Alpha  occ. eigenvalues --   -0.35101  -0.34929  -0.34036  -0.34033  -0.33495
 Alpha  occ. eigenvalues --   -0.33462  -0.33255  -0.32879  -0.32618  -0.32606
 Alpha  occ. eigenvalues --   -0.32253  -0.31961  -0.31572  -0.31336  -0.31294
 Alpha  occ. eigenvalues --   -0.31187  -0.30779  -0.30019  -0.29469  -0.29417
 Alpha  occ. eigenvalues --   -0.28940  -0.28863  -0.28169  -0.26970  -0.26730
 Alpha  occ. eigenvalues --   -0.26221  -0.25844  -0.25639  -0.25430  -0.25213
 Alpha  occ. eigenvalues --   -0.24988  -0.24828  -0.24264  -0.21202  -0.20972
 Alpha  occ. eigenvalues --   -0.19162  -0.18727
 Alpha virt. eigenvalues --   -0.11554  -0.11057  -0.05976  -0.05909  -0.04353
 Alpha virt. eigenvalues --   -0.03886  -0.03118  -0.02166  -0.01989  -0.00130
 Alpha virt. eigenvalues --    0.00012   0.00120   0.00802   0.00809   0.01282

 Mulliken charges:
               1
     1  Mg  12.000000
     2  C    6.000000
     3  C    6.000000
     4  C    6.000000
     5  C    6.000000
     6  N    7.000000
     7  C    6.000000
     8  C    6.000000
     9  C    6.000000
    10  C    6.000000
    11  C    6.000000
    12  C    6.000000
    13  C    6.000000
    14  H    1.000000
    15  N    7.000000
    16  C    6.000000
    17  C    6.000000
    18  C    6.000000
    19  C    6.000000
    20  C    6.000000
    21  C    6.000000
    22  O    8.000000
    23  C    6.000000
    24  N    7.000000
    25  C    6.000000
    26  C    6.000000
    27  C    6.000000
    28  C    6.000000
    29  C    6.000000
    30  C    6.000000
    31  C    6.000000
    32  N    7.000000
    33  C    6.000000
    34  C    6.000000
    35  C    6.000000
    36  C    6.000000
    37  C    6.000000
    38  C    6.000000
    39  O    8.000000
    40  C    6.000000
    41  C    6.000000
    42  O    8.000000
    43  O    8.000000
    44  C    6.000000
    45  H    1.000000
    46  H    1.000000
    47  H    1.000000
    48  H    1.000000
    49  H    1.000000
    50  H    1.000000
    51  H    1.000000
    52  H    1.000000
    53  H    1.000000
    54  H    1.000000
    55  H    1.000000
    56  H    1.000000
    57  H    1.000000
    58  H    1.000000
    59  H    1.000000
    60  H    1.000000
    61  H    1.000000
    62  H    1.000000
    63  H    1.000000
    64  H    1.000000
    65  H    1.000000
    66  H    1.000000
    67  H    1.000000
    68  H    1.000000
    69  H    1.000000
    70  H    1.000000
    71  H    1.000000
    72  H    1.000000
    73  H    1.000000
    74  H    1.000000
    75  H    1.000000
    76  H    1.000000
    77  H    1.000000
    78  H    1.000000
    79  H    1.000000
    80  Mg  12.000000
    81  C    6.000000
    82  C    6.000000
    83  C    6.000000
    84  C    6.000000
    85  N    7.000000
    86  C    6.000000
    87  C    6.000000
    88  C    6.000000
    89  C    6.000000
    90  C    6.000000
    91  C    6.000000
    92  C    6.000000
    93  H    1.000000
    94  N    7.000000
    95  C    6.000000
    96  C    6.000000
    97  C    6.000000
    98  C    6.000000
    99  C    6.000000
   100  C    6.000000
   101  O    8.000000
   102  C    6.000000
   103  N    7.000000
   104  C    6.000000
   105  C    6.000000
   106  C    6.000000
   107  C    6.000000
   108  C    6.000000
   109  C    6.000000
   110  C    6.000000
   111  N    7.000000
   112  C    6.000000
   113  C    6.000000
   114  C    6.000000
   115  C    6.000000
   116  C    6.000000
   117  C    6.000000
   118  O    8.000000
   119  C    6.000000
   120  C    6.000000
   121  O    8.000000
   122  O    8.000000
   123  C    6.000000
   124  H    1.000000
   125  H    1.000000
   126  H    1.000000
   127  H    1.000000
   128  H    1.000000
   129  H    1.000000
   130  H    1.000000
   131  H    1.000000
   132  H    1.000000
   133  H    1.000000
   134  H    1.000000
   135  H    1.000000
   136  H    1.000000
   137  H    1.000000
   138  H    1.000000
   139  H    1.000000
   140  H    1.000000
   141  H    1.000000
   142  H    1.000000
   143  H    1.000000
   144  H    1.000000
   145  H    1.000000
   146  H    1.000000
   147  H    1.000000
   148  H    1.000000
   149  H    1.000000
   150  H    1.000000
   151  H    1.000000
   152  H    1.000000
   153  H    1.000000
   154  H    1.000000
   155  H    1.000000
   156  H    1.000000
   157  H    1.000000
   158  H    1.000000
 Sum of Mulliken charges = 624.00000

 Dipole moment (field-independent basis, Debye):
    X=             -0.0000    Y=             -0.0000    Z=              0.0000  Tot=              0.0000
 Quadrupole moment (field-independent basis, Debye-Ang):
   XX=              0.0000   YY=             -0.0000   ZZ=             -0.0000
   XY=              0.0000   XZ=             -0.0000   YZ=              0.0000

 Normal termination of Gaussian 16 at Thu Oct 14 17:41:35 2021.
