 Gaussian 16, Revision A.03,
 Gaussian 16:  ES64L-G16RevA.03 25-Dec-2016

 --------------------------------------------------------
 #p PBE1PBE/Def2SVP td=(nstates=5) density=(transition=1)
 --------------------------------------------------------

 --------------------------------
 TDDFT excited states in gaussian
 --------------------------------
 Symbolic Z-matrix:
 Charge =  0 Multiplicity = 1

                         Standard orientation:
 ---------------------------------------------------------------------
 Center     Atomic      Atomic             Coordinates (Angstroms)
 Number     Number       Type             X           Y           Z
 ---------------------------------------------------------------------
      1         12           0      -30.529310    0.220465    0.201946
      2          6           0      -27.786234   -1.884120   -0.214933
      3          6           0      -31.932683   -1.082986   -2.655747
      4          6           0      -32.978029    2.512151    0.594756
      5          6           0      -28.790726    1.765486    2.914867
      6          7           0      -29.851093   -1.214872   -1.285107
      7          6           0      -28.725208   -1.978444   -1.257409
      8          6           0      -28.715791   -3.004159   -2.398244
      9          6           0      -30.012784   -2.578634   -3.218655
     10          6           0      -30.652045   -1.542189   -2.288596
     11          6           0      -29.661929   -1.976952   -4.574105
     12          6           0      -28.901875   -4.504578   -1.974262
     13          6           0      -28.295403   -5.556284   -2.866465
     14          1           0      -27.872144   -5.199188   -4.220742
     15          7           0      -32.230942    0.579332   -0.815394
     16          6           0      -32.630090   -0.077312   -1.996698
     17          6           0      -33.968123    0.374547   -2.275142
     18          6           0      -34.337059    1.372616   -1.338111
     19          6           0      -33.157110    1.536049   -0.453633
     20          6           0      -34.725087   -0.002936   -3.530493
     21          6           0      -35.592188    2.118466   -1.156885
     22          8           0      -35.693667    3.085318   -0.432134
     23          6           0      -36.849598    1.786183   -2.039504
     24          7           0      -30.967257    1.843886    1.684995
     25          6           0      -32.005640    2.619122    1.587639
     26          6           0      -31.998566    3.722168    2.688449
     27          6           0      -30.728375    3.462437    3.477830
     28          6           0      -30.044287    2.316839    2.648340
     29          6           0      -32.171807    5.170943    2.029468
     30          6           0      -30.994028    3.124961    4.960202
     31          6           0      -30.894065    4.306109    5.996440
     32          7           0      -28.871659   -0.119186    1.314892
     33          6           0      -28.274678    0.584209    2.390454
     34          6           0      -27.073529   -0.035188    2.803859
     35          6           0      -26.821538   -0.976023    1.716888
     36          6           0      -27.983343   -0.971879    0.893096
     37          6           0      -26.115580    0.490109    3.857436
     38          6           0      -25.818468   -1.865288    1.259444
     39          8           0      -24.729647   -2.184805    1.719931
     40          6           0      -26.503324   -2.603988   -0.069561
     41          6           0      -25.499295   -2.433954   -1.171640
     42          8           0      -25.088724   -1.343256   -1.581835
     43          8           0      -24.955373   -3.675432   -1.616323
     44          6           0      -23.936296   -3.585066   -2.708375
     45          1           0      -32.316669   -1.540066   -3.570914
     46          1           0      -33.703838    3.325647    0.538550
     47          1           0      -28.239973    2.166201    3.768005
     48          1           0      -27.799518   -2.822760   -2.960502
     49          1           0      -30.678893   -3.416435   -3.424369
     50          1           0      -28.626847   -2.186169   -4.842811
     51          1           0      -29.899658   -0.914803   -4.638655
     52          1           0      -30.149009   -2.471523   -5.414525
     53          1           0      -29.971318   -4.683368   -1.868386
     54          1           0      -28.540188   -4.581845   -0.948693
     55          1           0      -29.068365   -6.304142   -3.042116
     56          1           0      -27.429702   -5.990268   -2.366080
     57          1           0      -34.883586    0.838047   -4.205484
     58          1           0      -35.668251   -0.460784   -3.229377
     59          1           0      -34.240575   -0.729112   -4.182995
     60          1           0      -36.690434    2.302498   -2.986531
     61          1           0      -37.734541    2.272913   -1.629314
     62          1           0      -36.919197    0.716081   -2.230962
     63          1           0      -32.898659    3.497985    3.261184
     64          1           0      -30.014065    4.277856    3.374943
     65          1           0      -31.343800    5.821556    2.310568
     66          1           0      -33.038577    5.717853    2.401071
     67          1           0      -32.159775    4.982640    0.955132
     68          1           0      -30.254837    2.370718    5.232336
     69          1           0      -31.976234    2.653751    4.999635
     70          1           0      -29.847393    4.400307    6.287905
     71          1           0      -31.540479    4.294860    6.874215
     72          1           0      -31.098090    5.154691    5.344332
     73          1           0      -26.534064    0.102606    4.785945
     74          1           0      -26.114935    1.579048    3.887663
     75          1           0      -25.052606    0.335952    3.667498
     76          1           0      -26.707537   -3.646829    0.176233
     77          1           0      -23.048782   -3.042231   -2.385183
     78          1           0      -24.233541   -3.144811   -3.660546
     79          1           0      -23.685584   -4.642553   -2.791815
     80         12           0       30.638270   -0.071137   -0.759613
     81          6           0       27.450246   -1.096296    0.416826
     82          6           0       29.028307    2.571551   -2.369378
     83          6           0       33.562578    1.439910   -0.795755
     84          6           0       32.011614   -2.759290    1.312037
     85          7           0       28.437227    0.789334   -0.731128
     86          6           0       27.347657    0.045413   -0.417231
     87          6           0       26.105531    0.710169   -0.982989
     88          6           0       26.606340    1.425010   -2.238144
     89          6           0       28.121636    1.669382   -1.740991
     90          6           0       26.618208    0.656476   -3.560852
     91          6           0       25.423382    1.608625    0.138746
     92          6           0       23.956988    1.429324    0.188426
     93          1           0       23.090190    2.688928    0.380856
     94          7           0       31.264590    1.819016   -1.450577
     95          6           0       30.448288    2.731673   -2.163809
     96          6           0       31.303610    3.825440   -2.550160
     97          6           0       32.650276    3.530663   -2.208944
     98          6           0       32.572293    2.241714   -1.433446
     99          6           0       30.732781    5.041315   -3.273165
    100          6           0       33.821558    4.401025   -2.441589
    101          8           0       33.653219    5.482106   -2.992093
    102          6           0       35.225922    4.159516   -1.994397
    103          7           0       32.553278   -0.599039    0.268946
    104          6           0       33.603524    0.141530   -0.137635
    105          6           0       34.926827   -0.481967    0.341909
    106          6           0       34.469254   -1.942722    0.904936
    107          6           0       32.927673   -1.812733    0.799333
    108          6           0       36.097711   -0.466544   -0.740848
    109          6           0       34.997752   -2.311528    2.326471
    110          6           0       34.032613   -2.096450    3.541832
    111          7           0       29.955901   -1.570248    0.539190
    112          6           0       30.634872   -2.608858    1.237865
    113          6           0       29.595461   -3.588713    1.779423
    114          6           0       28.391032   -2.964653    1.496347
    115          6           0       28.667161   -1.771380    0.737407
    116          6           0       29.717757   -4.926319    2.534457
    117          6           0       26.972248   -3.097182    1.596769
    118          8           0       26.286281   -4.018355    2.042844
    119          6           0       26.412817   -1.834969    1.044412
    120          6           0       25.898688   -1.102732    2.305005
    121          8           0       26.565052   -0.473680    3.124286
    122          8           0       24.500957   -1.352018    2.393791
    123          6           0       23.812940   -0.889780    3.530149
    124          1           0       28.582529    3.365287   -2.972688
    125          1           0       34.510161    1.936620   -1.013449
    126          1           0       32.320575   -3.672042    1.824386
    127          1           0       25.368185   -0.000338   -1.356320
    128          1           0       26.149589    2.359861   -2.560971
    129          1           0       25.966907   -0.217038   -3.568006
    130          1           0       27.633143    0.508868   -3.930744
    131          1           0       26.149124    1.367588   -4.241829
    132          1           0       25.606458    2.656803   -0.097949
    133          1           0       25.897718    1.539202    1.117724
    134          1           0       23.851603    0.727658    1.015093
    135          1           0       23.639097    0.961822   -0.743380
    136          1           0       30.974864    5.055884   -4.335664
    137          1           0       31.053358    5.940444   -2.748989
    138          1           0       29.644150    5.037664   -3.216777
    139          1           0       35.622336    3.316410   -2.560729
    140          1           0       35.359887    3.965654   -0.929468
    141          1           0       35.899784    4.937052   -2.352132
    142          1           0       35.186079    0.133953    1.202768
    143          1           0       34.740837   -2.697267    0.167463
    144          1           0       35.944052    0.325518   -1.473608
    145          1           0       36.377390   -1.398740   -1.233087
    146          1           0       36.988272   -0.368099   -0.118142
    147          1           0       35.937213   -1.812468    2.562680
    148          1           0       35.166407   -3.384077    2.233142
    149          1           0       34.818086   -1.863927    4.261287
    150          1           0       33.457015   -2.950844    3.898592
    151          1           0       33.423435   -1.218491    3.325938
    152          1           0       29.218353   -5.728367    1.992056
    153          1           0       29.045015   -4.670176    3.352382
    154          1           0       30.756143   -5.032458    2.847691
    155          1           0       25.565097   -2.065346    0.399023
    156          1           0       22.747701   -1.123743    3.543404
    157          1           0       23.915551    0.194411    3.552738
    158          1           0       24.308176   -1.373278    4.372690
 ---------------------------------------------------------------------

 SCF Done:  E(RPBE1PBE) =  -4067.36088110     A.U. after   16 cycles

 Excitation energies and oscillator strengths:

 Excited State   1:      Singlet-A      1.8406 eV  673.61 nm  f=0.3447  <S**2>=0.000
     310 -> 315        0.18907
     312 -> 314        0.68678
 This state for optimization and/or second-order correction.
 Total Energy, E(TD-HF/TD-DFT) =  -4067.29324103
 Copying the excited state density for this state as the 1-particle RhoCI density.

 Excited State   2:      Singlet-A      1.8459 eV  671.68 nm  f=0.3612  <S**2>=0.000
     309 -> 316       -0.17458
     311 -> 313        0.69211
     311 <- 313       -0.10444

 Excited State   3:      Singlet-A      1.8993 eV  652.80 nm  f=0.0000  <S**2>=0.000
     312 -> 313        0.70711

 Excited State   4:      Singlet-A      2.1385 eV  579.78 nm  f=0.0000  <S**2>=0.000
     311 -> 314        0.70711

 Excited State   5:      Singlet-A      2.1946 eV  564.95 nm  f=0.0644  <S**2>=0.000
     310 -> 314        0.63435
     312 -> 315       -0.29980

 The electronic state is 1-A.
 Alpha  occ. eigenvalues --  -46.94675 -46.91403 -19.25350 -19.24910 -19.21573
 Alpha  occ. eigenvalues --  -19.19772 -19.19175 -19.19072 -19.18879 -19.17823
 Alpha  occ. eigenvalues --  -14.42140 -14.41868 -14.41498 -14.41207 -14.39854
 Alpha  occ. eigenvalues --  -14.39735 -14.39445 -14.39214 -10.37634 -10.36193
 Alpha  occ. eigenvalues --  -10.32293 -10.31812 -10.31615 -10.31285 -10.29621
 Alpha  occ. eigenvalues --  -10.29222 -10.29199 -10.29089 -10.29006 -10.28986
 Alpha  occ. eigenvalues --  -10.28806 -10.28775 -10.28692 -10.28595 -10.28489
 Alpha  occ. eigenvalues --  -10.28391 -10.28322 -10.28225 -10.27870 -10.27113
 Alpha  occ. eigenvalues --  -10.27057 -10.26994 -10.26893 -10.26856 -10.26636
 Alpha  occ. eigenvalues --  -10.26360 -10.26218 -10.26182 -10.26011 -10.25972
 Alpha  occ. eigenvalues --  -10.25891 -10.25855 -10.25788 -10.25660 -10.25633
 Alpha  occ. eigenvalues --  -10.25487 -10.25449 -10.25445 -10.25411 -10.25335
 Alpha  occ. eigenvalues --  -10.25302 -10.25255 -10.25187 -10.25160 -10.25141
 Alpha  occ. eigenvalues --  -10.24890 -10.24880 -10.24729 -10.24609 -10.24534
 Alpha  occ. eigenvalues --  -10.24502 -10.24290 -10.24102 -10.23932 -10.23845
 Alpha  occ. eigenvalues --  -10.23807 -10.23595 -10.23468 -10.23383 -10.23307
 Alpha  occ. eigenvalues --  -10.23235 -10.23100 -10.23091 -10.22772 -10.22762
 Alpha  occ. eigenvalues --  -10.22635  -3.16463  -3.13675  -1.89240  -1.88888
 Alpha  occ. eigenvalues --   -1.88639  -1.86529  -1.86042  -1.85919  -1.10534
 Alpha  occ. eigenvalues --   -1.08270  -1.05566  -1.04257  -1.04121  -1.03745
 Alpha  occ. eigenvalues --   -1.03433  -1.00746  -0.99802  -0.98790  -0.98742
 Alpha  occ. eigenvalues --   -0.98166  -0.98050  -0.97465  -0.96850  -0.95966
 Alpha  occ. eigenvalues --   -0.88738  -0.86620  -0.83574  -0.83424  -0.83241
 Alpha  occ. eigenvalues --   -0.83002  -0.82655  -0.82077  -0.82031  -0.81749
 Alpha  occ. eigenvalues --   -0.81539  -0.81162  -0.80747  -0.79895  -0.79052
 Alpha  occ. eigenvalues --   -0.78554  -0.77931  -0.77384  -0.76964  -0.76476
 Alpha  occ. eigenvalues --   -0.75856  -0.75729  -0.75130  -0.74609  -0.74601
 Alpha  occ. eigenvalues --   -0.74303  -0.72848  -0.72346  -0.71662  -0.71570
 Alpha  occ. eigenvalues --   -0.71193  -0.71183  -0.70323  -0.70214  -0.69564
 Alpha  occ. eigenvalues --   -0.69417  -0.67656  -0.67165  -0.66306  -0.66059
 Alpha  occ. eigenvalues --   -0.64258  -0.63837  -0.63378  -0.63155  -0.62596
 Alpha  occ. eigenvalues --   -0.61681  -0.61669  -0.61233  -0.60194  -0.59823
 Alpha  occ. eigenvalues --   -0.59735  -0.59484  -0.59433  -0.59244  -0.59197
 Alpha  occ. eigenvalues --   -0.59086  -0.56751  -0.56075  -0.54799  -0.54468
 Alpha  occ. eigenvalues --   -0.54311  -0.54275  -0.53946  -0.53900  -0.53278
 Alpha  occ. eigenvalues --   -0.53242  -0.52903  -0.52426  -0.51884  -0.51575
 Alpha  occ. eigenvalues --   -0.50827  -0.50637  -0.50560  -0.50221  -0.49544
 Alpha  occ. eigenvalues --   -0.49416  -0.49221  -0.49134  -0.48624  -0.48275
 Alpha  occ. eigenvalues --   -0.47940  -0.47858  -0.47728  -0.47633  -0.47380
 Alpha  occ. eigenvalues --   -0.47302  -0.47056  -0.46842  -0.46756  -0.46725
 Alpha  occ. eigenvalues --   -0.46670  -0.46464  -0.46223  -0.46192  -0.45971
 Alpha  occ. eigenvalues --   -0.45798  -0.45769  -0.45292  -0.45155  -0.44772
 Alpha  occ. eigenvalues --   -0.44673  -0.44491  -0.44450  -0.44196  -0.44007
 Alpha  occ. eigenvalues --   -0.43884  -0.43845  -0.43790  -0.43637  -0.43596
 Alpha  occ. eigenvalues --   -0.43170  -0.43141  -0.43036  -0.42911  -0.42867
 Alpha  occ. eigenvalues --   -0.42503  -0.42377  -0.42249  -0.42195  -0.41903
 Alpha  occ. eigenvalues --   -0.41831  -0.41788  -0.41666  -0.41613  -0.41572
 Alpha  occ. eigenvalues --   -0.40789  -0.40621  -0.40589  -0.40524  -0.40500
 Alpha  occ. eigenvalues --   -0.40174  -0.40066  -0.39993  -0.39891  -0.39858
 Alpha  occ. eigenvalues --   -0.39511  -0.39288  -0.39287  -0.39216  -0.38907
 Alpha  occ. eigenvalues --   -0.38903  -0.38833  -0.38733  -0.38538  -0.38311
 Alpha  occ. eigenvalues --   -0.38281  -0.38124  -0.37944  -0.37810  -0.37780
 Alpha  occ. eigenvalues --   -0.37571  -0.37247  -0.37037  -0.36992  -0.36856
 Alpha  occ. eigenvalues --   -0.36747  -0.36499  -0.36403  -0.36207  -0.36142
 Alpha  occ. eigenvalues --   -0.35848  -0.35754  -0.35727  -0.35347  -0.35099
 Alpha  occ. eigenvalues --   -0.34939  -0.34730  -0.34433  -0.34060  -0.33611
 Alpha  occ. eigenvalues --   -0.33499  -0.33275  -0.32888  -0.32814  -0.32614
 Alpha  occ. eigenvalues --   -0.32299  -0.32056  -0.31580  -0.31298  -0.31251
 Alpha  occ. eigenvalues --   -0.30791  -0.30782  -0.30021  -0.29724  -0.29430
 Alpha  occ. eigenvalues --   -0.29196  -0.28955  -0.28586  -0.27010  -0.26744
 Alpha  occ. eigenvalues --   -0.26239  -0.26044  -0.25858  -0.25720  -0.25507
 Alpha  occ. eigenvalues --   -0.25226  -0.25095  -0.24839  -0.21118  -0.20986
 Alpha  occ. eigenvalues --   -0.19150  -0.18742
 Alpha virt. eigenvalues --   -0.11547  -0.11072  -0.05992  -0.05246  -0.04366
 Alpha virt. eigenvalues --   -0.03990  -0.03130  -0.02179  -0.02048  -0.00010
 Alpha virt. eigenvalues --    0.00115   0.00799   0.01128   0.01310   0.01689

 Mulliken charges:
               1
     1  Mg  11.999975
     2  C    6.000596
     3  C    5.999998
     4  C    5.999481
     5  C    5.999934
     6  N    7.000388
     7  C    5.999204
     8  C    6.000296
     9  C    5.999716
    10  C    6.000626
    11  C    5.999904
    12  C    6.000051
    13  C    6.000016
    14  H    0.999903
    15  N    6.999817
    16  C    6.000803
    17  C    6.000494
    18  C    6.000398
    19  C    6.000719
    20  C    5.999891
    21  C    6.000237
    22  O    8.000711
    23  C    5.999964
    24  N    6.999776
    25  C    6.000692
    26  C    5.999953
    27  C    6.000089
    28  C    5.999458
    29  C    5.999928
    30  C    6.000087
    31  C    5.999965
    32  N    7.000026
    33  C    5.999256
    34  C    5.999380
    35  C    5.999834
    36  C    5.999305
    37  C    5.999998
    38  C    5.999675
    39  O    7.999243
    40  C    5.999798
    41  C    5.999897
    42  O    7.999926
    43  O    7.999948
    44  C    6.000037
    45  H    1.000315
    46  H    1.000071
    47  H    0.999720
    48  H    1.000046
    49  H    1.000064
    50  H    1.000334
    51  H    0.999966
    52  H    1.000082
    53  H    0.999777
    54  H    1.000158
    55  H    0.999921
    56  H    1.000081
    57  H    1.000429
    58  H    1.000388
    59  H    1.000378
    60  H    1.000207
    61  H    1.000335
    62  H    1.000108
    63  H    0.999917
    64  H    1.000010
    65  H    1.000189
    66  H    0.999996
    67  H    0.999873
    68  H    1.000122
    69  H    0.999771
    70  H    1.000041
    71  H    0.999891
    72  H    0.999876
    73  H    0.999644
    74  H    0.999619
    75  H    0.999684
    76  H    0.999853
    77  H    0.999979
    78  H    0.999868
    79  H    0.999894
    80  Mg  11.998011
    81  C    5.982088
    82  C    6.012220
    83  C    6.013457
    84  C    5.985139
    85  N    6.996625
    86  C    6.024750
    87  C    5.996630
    88  C    6.001634
    89  C    5.972240
    90  C    6.001202
    91  C    5.995366
    92  C    5.999116
    93  H    1.006304
    94  N    7.009630
    95  C    5.958403
    96  C    5.981988
    97  C    5.987754
    98  C    5.968937
    99  C    6.004343
   100  C    5.990496
   101  O    7.978151
   102  C    6.002624
   103  N    6.996470
   104  C    5.970428
   105  C    6.010905
   106  C    5.987932
   107  C    6.034929
   108  C    6.003039
   109  C    6.000949
   110  C    5.992222
   111  N    6.997367
   112  C    6.042554
   113  C    6.027800
   114  C    6.000755
   115  C    6.026183
   116  C    6.001697
   117  C    6.019309
   118  O    8.030684
   119  C    5.997297
   120  C    6.002747
   121  O    8.005662
   122  O    8.001532
   123  C    5.997887
   124  H    0.991112
   125  H    0.996514
   126  H    1.009256
   127  H    0.998429
   128  H    0.999643
   129  H    0.986676
   130  H    1.002191
   131  H    0.998363
   132  H    1.011802
   133  H    0.997325
   134  H    0.994367
   135  H    1.002770
   136  H    0.981805
   137  H    0.985373
   138  H    0.983514
   139  H    0.989304
   140  H    0.989029
   141  H    0.988786
   142  H    0.999385
   143  H    1.004335
   144  H    1.008237
   145  H    0.994159
   146  H    0.995507
   147  H    1.009423
   148  H    1.000094
   149  H    1.008186
   150  H    0.996134
   151  H    1.001745
   152  H    1.015839
   153  H    1.011844
   154  H    1.014706
   155  H    1.009136
   156  H    1.004347
   157  H    1.005790
   158  H    0.999422
 Sum of Mulliken charges = 624.00000

 Dipole moment (field-independent basis, Debye):
    X=             -3.3288    Y=             -7.9427    Z=              4.9608  Tot=              9.9386
 Quadrupole moment (field-independent basis, Debye-Ang):
   XX=           -175.1790   YY=             -3.3746   ZZ=             -3.7556
   XY=           -246.2825   XZ=            159.0143   YZ=              4.2146

 Normal termination of Gaussian 16 at Fri Oct 15 10:36:57 2021.
