 Gaussian 16, Revision A.03,
 Gaussian 16:  ES64L-G16RevA.03 25-Dec-2016

 --------------------------------------------------------
 #p PBE1PBE/Def2SVP td=(nstates=5) density=(transition=1)
 --------------------------------------------------------

 --------------------------------
 TDDFT excited states in gaussian
 --------------------------------
 Symbolic Z-matrix:
 Charge =  0 Multiplicity = 1

                         Standard orientation:
 ---------------------------------------------------------------------
 Center     Atomic      Atomic             Coordinates (Angstroms)
 Number     Number       Type             X           Y           Z
 ---------------------------------------------------------------------
      1         12           0       12.874401   -0.705890   -0.310528
      2          6           0       15.026278    1.862324    0.612002
      3          6           0       10.342371    0.878632    1.247556
      4          6           0       11.015841   -3.523383   -0.526445
      5          6           0       15.702090   -2.659016   -1.172632
      6          7           0       12.781294    1.172015    0.686575
      7          6           0       13.700520    2.184959    0.852394
      8          6           0       13.066208    3.374249    1.624877
      9          6           0       11.794080    2.701249    2.226486
     10          6           0       11.551760    1.555014    1.255521
     11          6           0       11.967418    2.157912    3.688450
     12          6           0       12.967202    4.566355    0.655507
     13          6           0       13.343867    5.869057    1.251699
     14          1           0       13.700006    6.908514    0.287950
     15          7           0       10.897137   -1.136741    0.083172
     16          6           0       10.001804   -0.307146    0.678688
     17          6           0        8.679172   -0.841797    0.473097
     18          6           0        8.882213   -2.163868   -0.064524
     19          6           0       10.334657   -2.355709   -0.112234
     20          6           0        7.434271   -0.149614    0.899153
     21          6           0        7.871017   -3.311722   -0.387701
     22          8           0        8.218871   -4.396483   -0.858634
     23          6           0        6.387399   -3.098625   -0.273529
     24          7           0       13.398959   -2.877657   -0.457948
     25          6           0       12.362707   -3.829251   -0.662003
     26          6           0       12.861364   -5.164641   -1.105710
     27          6           0       14.315049   -4.745408   -1.499386
     28          6           0       14.474006   -3.288867   -1.071422
     29          6           0       12.763366   -6.283102   -0.013608
     30          6           0       14.611456   -4.885624   -3.037250
     31          6           0       13.589795   -4.204741   -3.983285
     32          7           0       14.933613   -0.455573   -0.401472
     33          6           0       15.957046   -1.319731   -0.820438
     34          6           0       17.168626   -0.599274   -0.696988
     35          6           0       16.831849    0.642200   -0.172052
     36          6           0       15.486366    0.665226   -0.005709
     37          6           0       18.517710   -1.091775   -1.114204
     38          6           0       17.377696    1.824388    0.307095
     39          8           0       18.569791    2.175829    0.372259
     40          6           0       16.254942    2.754649    0.857421
     41          6           0       16.374541    4.030867   -0.032821
     42          8           0       16.094669    4.095482   -1.243107
     43          8           0       16.849945    5.067159    0.763464
     44          6           0       17.292265    6.331914    0.094658
     45          1           0        9.633775    1.438441    1.861652
     46          1           0       10.561312   -4.482722   -0.785198
     47          1           0       16.578389   -3.133950   -1.618845
     48          1           0       13.750185    3.734237    2.392700
     49          1           0       10.953898    3.390092    2.143943
     50          1           0       12.922612    2.369303    4.169944
     51          1           0       11.952501    1.068787    3.695685
     52          1           0       11.215791    2.624387    4.324956
     53          1           0       11.907400    4.666603    0.425473
     54          1           0       13.570762    4.329688   -0.221156
     55          1           0       14.242734    5.673932    1.836795
     56          1           0       12.560005    6.170393    1.946299
     57          1           0        7.603502    0.915731    1.054520
     58          1           0        6.982316   -0.729478    1.704589
     59          1           0        6.710566   -0.181309    0.084617
     60          1           0        5.982935   -4.098834   -0.116660
     61          1           0        5.977336   -2.714943   -1.208016
     62          1           0        6.126959   -2.481941    0.587248
     63          1           0       12.365492   -5.547410   -1.998831
     64          1           0       15.019435   -5.360438   -0.938387
     65          1           0       12.692582   -5.813008    0.967631
     66          1           0       13.594314   -6.986272    0.044946
     67          1           0       11.902073   -6.947718   -0.087028
     68          1           0       14.728685   -5.954043   -3.219270
     69          1           0       15.615262   -4.472670   -3.136393
     70          1           0       14.047777   -3.449455   -4.622265
     71          1           0       12.821069   -3.765332   -3.347002
     72          1           0       13.101633   -4.911688   -4.653458
     73          1           0       19.145943   -1.016362   -0.226704
     74          1           0       18.853788   -0.471969   -1.945450
     75          1           0       18.564186   -2.141165   -1.405535
     76          1           0       16.505307    3.016678    1.885065
     77          1           0       18.102756    6.049553   -0.576880
     78          1           0       17.655403    7.140676    0.728725
     79          1           0       16.348677    6.550640   -0.405320
     80         12           0      -13.683052   -0.456221    0.309271
     81          6           0      -13.388765    2.758797   -1.032069
     82          6           0      -12.280794    0.750562    3.222015
     83          6           0      -13.292925   -3.664035    1.408721
     84          6           0      -14.450122   -1.626330   -2.858604
     85          7           0      -13.035844    1.523891    0.977929
     86          6           0      -13.212173    2.691692    0.346689
     87          6           0      -13.002658    3.933856    1.225051
     88          6           0      -12.458780    3.285090    2.555354
     89          6           0      -12.678732    1.689978    2.305622
     90          6           0      -11.005152    3.613367    2.958955
     91          6           0      -14.248670    4.799608    1.412810
     92          6           0      -13.925102    6.275809    1.706427
     93          1           0      -12.458250    6.717897    1.805439
     94          7           0      -13.009195   -1.348885    2.094537
     95          6           0      -12.518653   -0.665701    3.231197
     96          6           0      -12.230831   -1.644031    4.260786
     97          6           0      -12.460531   -2.965089    3.722864
     98          6           0      -12.972443   -2.710325    2.377247
     99          6           0      -11.854915   -1.216207    5.652737
    100          6           0      -12.384543   -4.395563    4.423092
    101          8           0      -12.740744   -5.421210    3.895585
    102          6           0      -11.811277   -4.426697    5.823254
    103          7           0      -13.753679   -2.350630   -0.609691
    104          6           0      -13.600365   -3.539233    0.042082
    105          6           0      -13.850226   -4.773261   -0.901018
    106          6           0      -14.272673   -4.077962   -2.194180
    107          6           0      -14.143414   -2.603124   -1.862882
    108          6           0      -12.768240   -5.914099   -1.074233
    109          6           0      -15.715752   -4.465921   -2.593336
    110          6           0      -16.898415   -3.728384   -1.927190
    111          7           0      -14.046647    0.347635   -1.590584
    112          6           0      -14.349882   -0.242436   -2.790182
    113          6           0      -14.500733    0.729619   -3.820562
    114          6           0      -14.114942    1.986163   -3.169052
    115          6           0      -13.845333    1.679281   -1.892330
    116          6           0      -14.892484    0.605968   -5.226295
    117          6           0      -13.811641    3.395545   -3.375525
    118          8           0      -13.980388    4.106554   -4.371921
    119          6           0      -13.333618    3.982795   -2.014923
    120          6           0      -12.004146    4.574525   -2.124394
    121          8           0      -10.941396    3.962883   -2.150835
    122          8           0      -12.128888    5.908147   -2.423065
    123          6           0      -10.980412    6.641356   -2.990063
    124          1           0      -11.811557    1.215263    4.091923
    125          1           0      -13.348387   -4.680189    1.804638
    126          1           0      -14.786159   -1.979592   -3.835672
    127          1           0      -12.167595    4.538511    0.871991
    128          1           0      -13.114271    3.439865    3.411626
    129          1           0      -11.162189    3.961837    3.979589
    130          1           0      -10.601379    4.408339    2.332441
    131          1           0      -10.375769    2.727316    2.875048
    132          1           0      -14.901404    4.413758    2.194923
    133          1           0      -14.859929    4.778362    0.510186
    134          1           0      -14.440264    6.405584    2.658422
    135          1           0      -14.459713    6.950664    1.036420
    136          1           0      -11.675855   -0.142925    5.587647
    137          1           0      -10.962355   -1.760147    5.962607
    138          1           0      -12.630055   -1.431586    6.389707
    139          1           0      -10.730882   -4.315231    5.920626
    140          1           0      -12.154487   -5.344716    6.300264
    141          1           0      -12.320294   -3.583168    6.289451
    142          1           0      -14.687866   -5.248849   -0.391356
    143          1           0      -13.561471   -4.392912   -2.956936
    144          1           0      -12.554894   -6.186166   -2.107273
    145          1           0      -13.159549   -6.821315   -0.614963
    146          1           0      -11.879816   -5.612735   -0.518471
    147          1           0      -15.785597   -5.536924   -2.407032
    148          1           0      -15.747836   -4.327137   -3.674389
    149          1           0      -17.627602   -4.512663   -1.725587
    150          1           0      -17.383690   -3.007653   -2.584935
    151          1           0      -16.626906   -3.145166   -1.047986
    152          1           0      -15.565306    1.431940   -5.454248
    153          1           0      -15.371077   -0.333934   -5.501483
    154          1           0      -14.041578    0.831015   -5.869522
    155          1           0      -14.100085    4.715203   -1.761971
    156          1           0      -10.088070    6.018390   -3.060404
    157          1           0      -10.750350    7.466838   -2.316004
    158          1           0      -11.381044    6.927426   -3.961927
 ---------------------------------------------------------------------

 SCF Done:  E(RPBE1PBE) =  -4067.39648212     A.U. after   17 cycles

 Excitation energies and oscillator strengths:

 Excited State   1:      Singlet-A      1.8237 eV  679.84 nm  f=0.3654  <S**2>=0.000
     309 -> 315        0.15449
     312 -> 313        0.69667
     312 <- 313       -0.11762
 This state for optimization and/or second-order correction.
 Total Energy, E(TD-HF/TD-DFT) =  -4067.32946182
 Copying the excited state density for this state as the 1-particle RhoCI density.

 Excited State   2:      Singlet-A      1.8754 eV  661.09 nm  f=0.3903  <S**2>=0.000
     310 -> 316       -0.17457
     311 -> 314        0.69074
     311 <- 314       -0.10932

 Excited State   3:      Singlet-A      1.8978 eV  653.29 nm  f=0.0000  <S**2>=0.000
     312 -> 314        0.70710

 Excited State   4:      Singlet-A      1.9183 eV  646.32 nm  f=0.0000  <S**2>=0.000
     311 -> 313        0.70710

 Excited State   5:      Singlet-A      2.1488 eV  576.98 nm  f=0.1371  <S**2>=0.000
     310 -> 314        0.66656
     311 -> 316        0.21046

 The electronic state is 1-A.
 Alpha  occ. eigenvalues --  -46.91720 -46.91684 -19.25381 -19.24618 -19.20203
 Alpha  occ. eigenvalues --  -19.20125 -19.19271 -19.19058 -19.18953 -19.17836
 Alpha  occ. eigenvalues --  -14.41755 -14.41528 -14.41522 -14.40897 -14.39144
 Alpha  occ. eigenvalues --  -14.38996 -14.38129 -14.37975 -10.37045 -10.35717
 Alpha  occ. eigenvalues --  -10.33322 -10.32428 -10.32343 -10.30708 -10.29150
 Alpha  occ. eigenvalues --  -10.28657 -10.28651 -10.28636 -10.28502 -10.28497
 Alpha  occ. eigenvalues --  -10.28459 -10.28343 -10.28103 -10.28036 -10.27976
 Alpha  occ. eigenvalues --  -10.27834 -10.27571 -10.26925 -10.26917 -10.26654
 Alpha  occ. eigenvalues --  -10.26439 -10.26282 -10.26114 -10.26034 -10.25978
 Alpha  occ. eigenvalues --  -10.25928 -10.25911 -10.25837 -10.25742 -10.25692
 Alpha  occ. eigenvalues --  -10.25654 -10.25555 -10.25533 -10.25485 -10.25367
 Alpha  occ. eigenvalues --  -10.25306 -10.25303 -10.25281 -10.24971 -10.24953
 Alpha  occ. eigenvalues --  -10.24862 -10.24817 -10.24771 -10.24644 -10.24442
 Alpha  occ. eigenvalues --  -10.24405 -10.24245 -10.24195 -10.24161 -10.24032
 Alpha  occ. eigenvalues --  -10.23992 -10.23882 -10.23615 -10.23563 -10.23517
 Alpha  occ. eigenvalues --  -10.23504 -10.23391 -10.23331 -10.23299 -10.23273
 Alpha  occ. eigenvalues --  -10.23189 -10.23073 -10.22948 -10.22923 -10.22616
 Alpha  occ. eigenvalues --  -10.21362  -3.13858  -3.13825  -1.86678  -1.86667
 Alpha  occ. eigenvalues --   -1.86236  -1.86196  -1.86083  -1.86055  -1.09911
 Alpha  occ. eigenvalues --   -1.09121  -1.06314  -1.04192  -1.03711  -1.02591
 Alpha  occ. eigenvalues --   -1.01522  -1.01419  -0.99416  -0.99096  -0.98568
 Alpha  occ. eigenvalues --   -0.98135  -0.98032  -0.97203  -0.96826  -0.95686
 Alpha  occ. eigenvalues --   -0.86860  -0.86527  -0.83503  -0.83432  -0.83285
 Alpha  occ. eigenvalues --   -0.83105  -0.82865  -0.82503  -0.82085  -0.81454
 Alpha  occ. eigenvalues --   -0.81404  -0.80813  -0.80771  -0.80467  -0.78859
 Alpha  occ. eigenvalues --   -0.78540  -0.77769  -0.77745  -0.76644  -0.76435
 Alpha  occ. eigenvalues --   -0.76144  -0.75757  -0.75381  -0.75225  -0.74691
 Alpha  occ. eigenvalues --   -0.74597  -0.72519  -0.72502  -0.71472  -0.71338
 Alpha  occ. eigenvalues --   -0.71196  -0.71188  -0.70306  -0.70271  -0.69797
 Alpha  occ. eigenvalues --   -0.69440  -0.67648  -0.66953  -0.66444  -0.65595
 Alpha  occ. eigenvalues --   -0.64212  -0.64104  -0.63160  -0.62908  -0.62178
 Alpha  occ. eigenvalues --   -0.61951  -0.60907  -0.60511  -0.59824  -0.59311
 Alpha  occ. eigenvalues --   -0.59176  -0.59051  -0.59001  -0.58997  -0.58531
 Alpha  occ. eigenvalues --   -0.58345  -0.56131  -0.56045  -0.54422  -0.54343
 Alpha  occ. eigenvalues --   -0.54282  -0.53733  -0.53724  -0.53659  -0.53078
 Alpha  occ. eigenvalues --   -0.52905  -0.52360  -0.52139  -0.52036  -0.51327
 Alpha  occ. eigenvalues --   -0.50528  -0.50463  -0.50112  -0.50045  -0.49843
 Alpha  occ. eigenvalues --   -0.49748  -0.49431  -0.49278  -0.49246  -0.48310
 Alpha  occ. eigenvalues --   -0.48035  -0.47876  -0.47618  -0.47520  -0.47516
 Alpha  occ. eigenvalues --   -0.47400  -0.47318  -0.46985  -0.46837  -0.46746
 Alpha  occ. eigenvalues --   -0.46460  -0.46453  -0.46312  -0.46086  -0.45996
 Alpha  occ. eigenvalues --   -0.45565  -0.45202  -0.45023  -0.44904  -0.44821
 Alpha  occ. eigenvalues --   -0.44263  -0.44154  -0.44109  -0.43998  -0.43998
 Alpha  occ. eigenvalues --   -0.43801  -0.43717  -0.43664  -0.43561  -0.43336
 Alpha  occ. eigenvalues --   -0.43227  -0.43153  -0.42959  -0.42814  -0.42706
 Alpha  occ. eigenvalues --   -0.42624  -0.42376  -0.42302  -0.42030  -0.41840
 Alpha  occ. eigenvalues --   -0.41645  -0.41483  -0.41298  -0.41052  -0.41016
 Alpha  occ. eigenvalues --   -0.40925  -0.40672  -0.40577  -0.40506  -0.40441
 Alpha  occ. eigenvalues --   -0.40234  -0.40054  -0.39837  -0.39457  -0.39348
 Alpha  occ. eigenvalues --   -0.39134  -0.39117  -0.38913  -0.38695  -0.38504
 Alpha  occ. eigenvalues --   -0.38496  -0.38291  -0.38280  -0.38190  -0.38056
 Alpha  occ. eigenvalues --   -0.37943  -0.37940  -0.37812  -0.37696  -0.37556
 Alpha  occ. eigenvalues --   -0.37518  -0.37303  -0.37082  -0.36901  -0.36753
 Alpha  occ. eigenvalues --   -0.36501  -0.36396  -0.36351  -0.35995  -0.35940
 Alpha  occ. eigenvalues --   -0.35790  -0.35732  -0.35594  -0.35462  -0.35154
 Alpha  occ. eigenvalues --   -0.35075  -0.34875  -0.34850  -0.33974  -0.33540
 Alpha  occ. eigenvalues --   -0.33378  -0.33176  -0.32998  -0.32860  -0.32743
 Alpha  occ. eigenvalues --   -0.32364  -0.31886  -0.31786  -0.31597  -0.31251
 Alpha  occ. eigenvalues --   -0.30972  -0.30667  -0.29606  -0.29270  -0.29078
 Alpha  occ. eigenvalues --   -0.29023  -0.28684  -0.28544  -0.26962  -0.26660
 Alpha  occ. eigenvalues --   -0.26390  -0.25786  -0.25614  -0.25287  -0.25241
 Alpha  occ. eigenvalues --   -0.24994  -0.24771  -0.24439  -0.21134  -0.20558
 Alpha  occ. eigenvalues --   -0.18941  -0.18812
 Alpha virt. eigenvalues --   -0.11395  -0.11335  -0.05100  -0.04926  -0.03682
 Alpha virt. eigenvalues --   -0.03632  -0.01988  -0.01977  -0.00474  -0.00224
 Alpha virt. eigenvalues --    0.00406   0.00639   0.00758   0.01032   0.01651

 Mulliken charges:
               1
     1  Mg  12.002503
     2  C    5.975470
     3  C    6.002987
     4  C    6.032048
     5  C    6.016643
     6  N    6.979298
     7  C    6.032009
     8  C    5.996908
     9  C    6.006618
    10  C    5.976765
    11  C    6.003248
    12  C    5.994094
    13  C    6.000561
    14  H    0.998719
    15  N    7.006748
    16  C    5.964702
    17  C    5.980667
    18  C    5.987029
    19  C    5.962280
    20  C    6.003224
    21  C    5.987477
    22  O    7.970953
    23  C    6.004915
    24  N    7.016628
    25  C    5.958318
    26  C    6.014811
    27  C    5.992686
    28  C    6.017684
    29  C    5.999558
    30  C    5.992251
    31  C    5.994600
    32  N    6.997950
    33  C    6.027054
    34  C    6.030750
    35  C    5.999917
    36  C    6.027461
    37  C    5.997127
    38  C    6.014618
    39  O    8.028941
    40  C    6.003794
    41  C    6.003215
    42  O    8.003568
    43  O    8.001534
    44  C    5.999465
    45  H    0.985947
    46  H    0.995990
    47  H    1.015964
    48  H    0.998552
    49  H    0.998666
    50  H    0.984194
    51  H    1.000544
    52  H    0.996683
    53  H    1.011862
    54  H    0.994382
    55  H    0.996281
    56  H    1.005429
    57  H    0.985633
    58  H    0.981474
    59  H    0.982628
    60  H    0.987083
    61  H    0.989385
    62  H    0.996024
    63  H    0.999135
    64  H    1.002871
    65  H    1.000438
    66  H    0.990751
    67  H    1.003419
    68  H    1.009722
    69  H    0.993560
    70  H    0.997365
    71  H    1.013298
    72  H    1.006735
    73  H    1.017454
    74  H    1.018782
    75  H    1.016124
    76  H    1.008094
    77  H    0.999105
    78  H    1.004304
    79  H    1.004329
    80  Mg  11.999973
    81  C    6.000518
    82  C    5.999876
    83  C    5.999726
    84  C    5.999973
    85  N    7.000196
    86  C    5.999278
    87  C    6.000314
    88  C    5.999922
    89  C    6.000479
    90  C    5.999951
    91  C    6.000082
    92  C    6.000028
    93  H    1.000116
    94  N    6.999974
    95  C    6.000730
    96  C    6.000585
    97  C    6.000513
    98  C    6.000540
    99  C    5.999859
   100  C    6.000327
   101  O    8.000519
   102  C    5.999943
   103  N    6.999844
   104  C    6.000779
   105  C    5.999776
   106  C    6.000275
   107  C    5.999419
   108  C    6.000057
   109  C    6.000114
   110  C    6.000193
   111  N    6.999934
   112  C    5.999623
   113  C    5.999071
   114  C    5.999974
   115  C    5.999572
   116  C    6.000186
   117  C    5.999661
   118  O    7.999259
   119  C    5.999938
   120  C    5.999908
   121  O    8.000149
   122  O    7.999866
   123  C    5.999996
   124  H    1.000353
   125  H    1.000078
   126  H    0.999627
   127  H    1.000092
   128  H    0.999825
   129  H    0.999949
   130  H    1.000373
   131  H    1.000301
   132  H    0.999696
   133  H    1.000039
   134  H    0.999765
   135  H    0.999875
   136  H    1.000394
   137  H    1.000677
   138  H    1.000235
   139  H    1.000555
   140  H    1.000150
   141  H    0.999889
   142  H    0.999799
   143  H    1.000012
   144  H    1.000204
   145  H    0.999856
   146  H    1.000224
   147  H    0.999663
   148  H    0.999972
   149  H    0.999632
   150  H    0.999983
   151  H    0.999892
   152  H    0.999371
   153  H    0.999446
   154  H    0.999518
   155  H    0.999671
   156  H    1.000224
   157  H    0.999832
   158  H    0.999813
 Sum of Mulliken charges = 624.00000

 Dipole moment (field-independent basis, Debye):
    X=             10.1380    Y=              0.9723    Z=             -1.3972  Tot=             10.2799
 Quadrupole moment (field-independent basis, Debye-Ang):
   XX=            256.1836   YY=              0.4897   ZZ=             -0.1608
   XY=              6.7534   XZ=            -25.4260   YZ=              1.0805

 Normal termination of Gaussian 16 at Thu Oct 14 15:43:18 2021.
