 Gaussian 16, Revision A.03,
 Gaussian 16:  ES64L-G16RevA.03 25-Dec-2016

 --------------------------------------------------------
 #p PBE1PBE/Def2SVP td=(nstates=5) density=(transition=1)
 --------------------------------------------------------

 --------------------------------
 TDDFT excited states in gaussian
 --------------------------------
 Symbolic Z-matrix:
 Charge =  0 Multiplicity = 1

                         Standard orientation:
 ---------------------------------------------------------------------
 Center     Atomic      Atomic             Coordinates (Angstroms)
 Number     Number       Type             X           Y           Z
 ---------------------------------------------------------------------
      1         12           0       25.987368   -0.301235   -0.543549
      2          6           0       24.637986    2.080988    1.633567
      3          6           0       26.253397   -2.443783    1.927982
      4          6           0       27.973317   -2.280663   -2.528914
      5          6           0       26.173248    2.163552   -3.064617
      6          7           0       25.400350   -0.181231    1.476932
      7          6           0       24.806559    0.833197    2.195311
      8          6           0       24.377339    0.368541    3.580978
      9          6           0       25.119220   -1.001813    3.694458
     10          6           0       25.520889   -1.276878    2.287199
     11          6           0       26.216403   -1.176901    4.722101
     12          6           0       22.832961    0.332674    3.813038
     13          6           0       22.393629   -0.107536    5.213742
     14          1           0       21.420040    0.817309    5.929482
     15          7           0       27.077176   -2.177215   -0.289708
     16          6           0       26.916693   -2.966756    0.792691
     17          6           0       27.575928   -4.222502    0.563622
     18          6           0       28.180042   -4.144733   -0.703075
     19          6           0       27.758617   -2.815224   -1.222370
     20          6           0       27.627298   -5.345906    1.577473
     21          6           0       28.967166   -5.169823   -1.451798
     22          8           0       29.601405   -4.984451   -2.524755
     23          6           0       29.019615   -6.608527   -0.952443
     24          7           0       26.939413   -0.072849   -2.466048
     25          6           0       27.751227   -1.004936   -3.017244
     26          6           0       28.092924   -0.590463   -4.548511
     27          6           0       27.101114    0.600970   -4.790971
     28          6           0       26.638493    0.903929   -3.401954
     29          6           0       29.624833   -0.223423   -4.652763
     30          6           0       25.838235    0.122030   -5.596123
     31          6           0       25.061443   -1.091878   -5.110553
     32          7           0       25.448246    1.762592   -0.754522
     33          6           0       25.597568    2.576094   -1.844014
     34          6           0       25.090212    3.820942   -1.494416
     35          6           0       24.695868    3.763066   -0.126696
     36          6           0       24.936512    2.478367    0.284218
     37          6           0       25.048474    5.073982   -2.295964
     38          6           0       24.151615    4.484176    1.046238
     39          8           0       23.826879    5.649246    1.245005
     40          6           0       24.002007    3.365360    2.216875
     41          6           0       24.526226    3.886767    3.507266
     42          8           0       25.525840    4.656206    3.624197
     43          8           0       23.658161    3.535635    4.446395
     44          6           0       23.746852    4.326248    5.659134
     45          1           0       26.262536   -3.234693    2.681025
     46          1           0       28.574309   -2.913051   -3.186698
     47          1           0       26.127980    2.858431   -3.904629
     48          1           0       24.724976    1.161588    4.243313
     49          1           0       24.449413   -1.829327    3.930807
     50          1           0       26.230925   -0.470323    5.551919
     51          1           0       27.181973   -1.173373    4.215659
     52          1           0       26.208528   -2.226479    5.016751
     53          1           0       22.364100   -0.299146    3.058232
     54          1           0       22.424454    1.325778    3.628919
     55          1           0       23.181661    0.060673    5.947566
     56          1           0       22.054876   -1.143979    5.215619
     57          1           0       27.230374   -5.094183    2.560858
     58          1           0       28.623181   -5.649415    1.899351
     59          1           0       27.111867   -6.249551    1.250662
     60          1           0       29.599103   -6.619809   -0.029732
     61          1           0       29.672539   -7.229555   -1.565305
     62          1           0       28.038622   -7.082014   -0.898837
     63          1           0       27.929257   -1.446404   -5.203266
     64          1           0       27.720269    1.401559   -5.195649
     65          1           0       30.207535   -0.537590   -3.786641
     66          1           0       29.822559    0.844853   -4.742521
     67          1           0       30.137016   -0.720716   -5.475202
     68          1           0       26.315138   -0.067726   -6.557768
     69          1           0       25.081939    0.889918   -5.755978
     70          1           0       25.627472   -1.615657   -4.339951
     71          1           0       24.696265   -1.773238   -5.878222
     72          1           0       24.141026   -0.642756   -4.737344
     73          1           0       24.562907    4.970452   -3.266653
     74          1           0       26.092842    5.319228   -2.486794
     75          1           0       24.601665    5.904975   -1.751115
     76          1           0       22.923771    3.243370    2.316673
     77          1           0       22.747044    4.585920    6.009308
     78          1           0       24.266039    5.280814    5.576802
     79          1           0       24.228767    3.684769    6.397666
     80         12           0      -26.241521    0.656301    0.359261
     81          6           0      -24.988458   -2.662610   -0.015375
     82          6           0      -23.471036    1.655388   -1.169867
     83          6           0      -27.725126    3.630111   -0.254640
     84          6           0      -29.382222   -0.882925    1.042616
     85          7           0      -24.453701   -0.336219   -0.355056
     86          6           0      -24.084609   -1.698791   -0.341541
     87          6           0      -22.668969   -1.957076   -0.947021
     88          6           0      -22.202913   -0.505683   -1.254027
     89          6           0      -23.408106    0.356317   -0.822254
     90          6           0      -20.878859   -0.278458   -0.505718
     91          6           0      -22.573037   -2.901664   -2.221930
     92          6           0      -21.840226   -4.225918   -2.040659
     93          1           0      -20.656738   -4.517760   -2.985674
     94          7           0      -25.686733    2.407538   -0.472350
     95          6           0      -24.448156    2.618626   -1.077849
     96          6           0      -24.300867    3.969564   -1.442432
     97          6           0      -25.449213    4.642189   -1.067355
     98          6           0      -26.353963    3.614340   -0.593728
     99          6           0      -23.069052    4.680667   -2.116115
    100          6           0      -25.616634    6.135620   -1.222043
    101          8           0      -24.745298    6.877669   -1.565979
    102          6           0      -27.036400    6.723789   -0.750868
    103          7           0      -28.270771    1.285803    0.314616
    104          6           0      -28.603145    2.589956    0.068093
    105          6           0      -30.184380    2.662906    0.027144
    106          6           0      -30.720452    1.318869    0.547733
    107          6           0      -29.380604    0.492865    0.632101
    108          6           0      -30.777371    3.894426    0.650609
    109          6           0      -31.631984    0.694833   -0.501619
    110          6           0      -32.645142   -0.312124   -0.025667
    111          7           0      -27.004313   -1.352668    0.739244
    112          6           0      -28.274557   -1.793337    1.024734
    113          6           0      -28.271075   -3.194873    1.238721
    114          6           0      -26.969822   -3.649262    0.918584
    115          6           0      -26.287596   -2.470306    0.505053
    116          6           0      -29.424033   -4.059434    1.558059
    117          6           0      -26.030239   -4.768007    0.763655
    118          8           0      -26.202768   -5.964107    1.034026
    119          6           0      -24.686958   -4.189275    0.174319
    120          6           0      -23.658151   -4.271520    1.176545
    121          8           0      -23.635749   -3.480179    2.148785
    122          8           0      -22.871096   -5.318084    0.858604
    123          6           0      -21.608158   -5.517066    1.621107
    124          1           0      -22.554973    2.024394   -1.636570
    125          1           0      -28.154400    4.623450   -0.401900
    126          1           0      -30.288261   -1.396240    1.370340
    127          1           0      -22.017615   -2.388188   -0.186833
    128          1           0      -22.048754   -0.313233   -2.315336
    129          1           0      -20.647959    0.782921   -0.591880
    130          1           0      -20.020698   -0.840465   -0.873998
    131          1           0      -20.953365   -0.524871    0.554042
    132          1           0      -21.926972   -2.349819   -2.904729
    133          1           0      -23.561961   -3.043538   -2.657957
    134          1           0      -22.582211   -5.020205   -2.129209
    135          1           0      -21.410043   -4.261805   -1.039161
    136          1           0      -23.468975    5.188401   -2.994059
    137          1           0      -22.306046    3.967356   -2.427354
    138          1           0      -22.488944    5.340280   -1.470810
    139          1           0      -26.941040    7.807028   -0.819475
    140          1           0      -27.135411    6.335647    0.263139
    141          1           0      -27.716930    6.265218   -1.468225
    142          1           0      -30.399321    2.741177   -1.039167
    143          1           0      -31.259197    1.337233    1.495056
    144          1           0      -31.763168    3.639723    1.038797
    145          1           0      -30.832642    4.634630   -0.147851
    146          1           0      -30.142649    4.373477    1.395174
    147          1           0      -31.084613    0.229590   -1.321910
    148          1           0      -32.187101    1.446275   -1.063080
    149          1           0      -32.741284   -0.337400    1.059638
    150          1           0      -32.323976   -1.294674   -0.372023
    151          1           0      -33.591235   -0.185861   -0.551946
    152          1           0      -30.193672   -3.517939    2.109008
    153          1           0      -29.019773   -4.869807    2.165150
    154          1           0      -29.831263   -4.364760    0.593919
    155          1           0      -24.396905   -4.601683   -0.792072
    156          1           0      -21.553338   -6.606638    1.613598
    157          1           0      -21.617647   -5.077967    2.618272
    158          1           0      -20.735113   -5.248769    1.025249
 ---------------------------------------------------------------------

 SCF Done:  E(RPBE1PBE) =  -4067.38612987     A.U. after   17 cycles

 Excitation energies and oscillator strengths:

 Excited State   1:      Singlet-A      1.8526 eV  669.23 nm  f=0.3678  <S**2>=0.000
     310 -> 316        0.15628
     311 -> 313        0.69620
     311 <- 313       -0.11163
 This state for optimization and/or second-order correction.
 Total Energy, E(TD-HF/TD-DFT) =  -4067.31804625
 Copying the excited state density for this state as the 1-particle RhoCI density.

 Excited State   2:      Singlet-A      1.8668 eV  664.17 nm  f=0.0000  <S**2>=0.000
     312 -> 313        0.70711

 Excited State   3:      Singlet-A      1.8689 eV  663.41 nm  f=0.3776  <S**2>=0.000
     309 -> 315        0.16691
     312 -> 314        0.69409
     312 <- 314       -0.10954

 Excited State   4:      Singlet-A      2.1329 eV  581.28 nm  f=0.0000  <S**2>=0.000
     311 -> 314        0.70711

 Excited State   5:      Singlet-A      2.2657 eV  547.23 nm  f=0.1129  <S**2>=0.000
     309 -> 314        0.64679
     312 -> 315       -0.26719

 The electronic state is 1-A.
 Alpha  occ. eigenvalues --  -46.92788 -46.91955 -19.27364 -19.27178 -19.19951
 Alpha  occ. eigenvalues --  -19.19741 -19.19437 -19.19158 -19.19128 -19.18935
 Alpha  occ. eigenvalues --  -14.42366 -14.41983 -14.41789 -14.41404 -14.39264
 Alpha  occ. eigenvalues --  -14.39109 -14.38260 -14.37897 -10.36527 -10.36343
 Alpha  occ. eigenvalues --  -10.32718 -10.32686 -10.32520 -10.32232 -10.30087
 Alpha  occ. eigenvalues --  -10.29624 -10.29495 -10.29299 -10.29260 -10.28892
 Alpha  occ. eigenvalues --  -10.28721 -10.28516 -10.28458 -10.28200 -10.28055
 Alpha  occ. eigenvalues --  -10.28002 -10.27989 -10.27086 -10.27052 -10.26792
 Alpha  occ. eigenvalues --  -10.26697 -10.26538 -10.26375 -10.26249 -10.26192
 Alpha  occ. eigenvalues --  -10.26170 -10.26116 -10.26016 -10.25945 -10.25881
 Alpha  occ. eigenvalues --  -10.25850 -10.25695 -10.25679 -10.25661 -10.25642
 Alpha  occ. eigenvalues --  -10.25639 -10.25584 -10.25407 -10.25245 -10.25087
 Alpha  occ. eigenvalues --  -10.25054 -10.25047 -10.25010 -10.24745 -10.24712
 Alpha  occ. eigenvalues --  -10.24558 -10.24544 -10.24361 -10.24243 -10.24237
 Alpha  occ. eigenvalues --  -10.23904 -10.23860 -10.23764 -10.23601 -10.23569
 Alpha  occ. eigenvalues --  -10.23457 -10.23450 -10.23279 -10.23232 -10.23162
 Alpha  occ. eigenvalues --  -10.23050 -10.22887 -10.22848 -10.22664 -10.22556
 Alpha  occ. eigenvalues --  -10.22314  -3.14761  -3.14127  -1.87610  -1.87105
 Alpha  occ. eigenvalues --   -1.86997  -1.86943  -1.86481  -1.86377  -1.12988
 Alpha  occ. eigenvalues --   -1.11440  -1.06618  -1.03767  -1.03564  -1.02866
 Alpha  occ. eigenvalues --   -1.02216  -1.00811  -0.99920  -0.98962  -0.98694
 Alpha  occ. eigenvalues --   -0.98123  -0.97885  -0.97497  -0.97241  -0.96393
 Alpha  occ. eigenvalues --   -0.86646  -0.86319  -0.83984  -0.83856  -0.83586
 Alpha  occ. eigenvalues --   -0.83583  -0.82989  -0.82621  -0.82169  -0.81659
 Alpha  occ. eigenvalues --   -0.81468  -0.81039  -0.80846  -0.80245  -0.79128
 Alpha  occ. eigenvalues --   -0.79066  -0.78590  -0.78109  -0.77548  -0.77193
 Alpha  occ. eigenvalues --   -0.76173  -0.76075  -0.75666  -0.75515  -0.74876
 Alpha  occ. eigenvalues --   -0.74529  -0.72958  -0.72105  -0.71972  -0.71698
 Alpha  occ. eigenvalues --   -0.71667  -0.70924  -0.70585  -0.70535  -0.69603
 Alpha  occ. eigenvalues --   -0.69454  -0.67297  -0.67278  -0.66186  -0.66171
 Alpha  occ. eigenvalues --   -0.64201  -0.63600  -0.63561  -0.63044  -0.62661
 Alpha  occ. eigenvalues --   -0.62275  -0.62239  -0.61637  -0.60089  -0.60014
 Alpha  occ. eigenvalues --   -0.59899  -0.59823  -0.59533  -0.59308  -0.59168
 Alpha  occ. eigenvalues --   -0.59087  -0.57383  -0.56866  -0.55430  -0.54663
 Alpha  occ. eigenvalues --   -0.54302  -0.54241  -0.53923  -0.53897  -0.53182
 Alpha  occ. eigenvalues --   -0.53045  -0.52841  -0.52168  -0.51904  -0.51840
 Alpha  occ. eigenvalues --   -0.50954  -0.50812  -0.50579  -0.50569  -0.50348
 Alpha  occ. eigenvalues --   -0.50039  -0.49957  -0.49594  -0.49300  -0.48954
 Alpha  occ. eigenvalues --   -0.48907  -0.48450  -0.48055  -0.47771  -0.47535
 Alpha  occ. eigenvalues --   -0.47459  -0.47319  -0.47090  -0.46950  -0.46758
 Alpha  occ. eigenvalues --   -0.46333  -0.46265  -0.46176  -0.46122  -0.45858
 Alpha  occ. eigenvalues --   -0.45631  -0.45250  -0.45196  -0.45058  -0.44878
 Alpha  occ. eigenvalues --   -0.44831  -0.44714  -0.44504  -0.44368  -0.44129
 Alpha  occ. eigenvalues --   -0.43771  -0.43718  -0.43586  -0.43540  -0.43278
 Alpha  occ. eigenvalues --   -0.43081  -0.43074  -0.42958  -0.42939  -0.42738
 Alpha  occ. eigenvalues --   -0.42709  -0.42221  -0.42029  -0.42014  -0.41678
 Alpha  occ. eigenvalues --   -0.41675  -0.41533  -0.41204  -0.41135  -0.41044
 Alpha  occ. eigenvalues --   -0.41019  -0.40794  -0.40763  -0.40678  -0.40329
 Alpha  occ. eigenvalues --   -0.40224  -0.40058  -0.40025  -0.39921  -0.39607
 Alpha  occ. eigenvalues --   -0.39582  -0.39514  -0.39228  -0.39116  -0.39071
 Alpha  occ. eigenvalues --   -0.38897  -0.38669  -0.38555  -0.38403  -0.38330
 Alpha  occ. eigenvalues --   -0.38196  -0.38135  -0.38058  -0.37913  -0.37678
 Alpha  occ. eigenvalues --   -0.37591  -0.37496  -0.37388  -0.37308  -0.37176
 Alpha  occ. eigenvalues --   -0.37056  -0.36828  -0.36604  -0.36539  -0.36489
 Alpha  occ. eigenvalues --   -0.36275  -0.36177  -0.35711  -0.35545  -0.35354
 Alpha  occ. eigenvalues --   -0.35206  -0.35107  -0.34553  -0.34216  -0.34093
 Alpha  occ. eigenvalues --   -0.33656  -0.33401  -0.33183  -0.32861  -0.32633
 Alpha  occ. eigenvalues --   -0.32359  -0.32220  -0.32010  -0.31783  -0.31653
 Alpha  occ. eigenvalues --   -0.31371  -0.31078  -0.29432  -0.29309  -0.29229
 Alpha  occ. eigenvalues --   -0.29123  -0.28598  -0.28269  -0.27402  -0.27394
 Alpha  occ. eigenvalues --   -0.26378  -0.26164  -0.25790  -0.25630  -0.25529
 Alpha  occ. eigenvalues --   -0.25272  -0.24764  -0.24436  -0.21183  -0.21015
 Alpha  occ. eigenvalues --   -0.19339  -0.18887
 Alpha virt. eigenvalues --   -0.11777  -0.11248  -0.05262  -0.04929  -0.04133
 Alpha virt. eigenvalues --   -0.03728  -0.02075  -0.01693  -0.01055  -0.00531
 Alpha virt. eigenvalues --   -0.00281  -0.00009   0.00512   0.00546   0.01375

 Mulliken charges:
               1
     1  Mg  12.005684
     2  C    5.977441
     3  C    6.001366
     4  C    6.022064
     5  C    6.000724
     6  N    6.981750
     7  C    6.035156
     8  C    5.991337
     9  C    6.008324
    10  C    5.967469
    11  C    6.001442
    12  C    5.997367
    13  C    6.002948
    14  H    0.997269
    15  N    7.005660
    16  C    5.966127
    17  C    5.981525
    18  C    5.981529
    19  C    5.971974
    20  C    6.004883
    21  C    5.988988
    22  O    7.966216
    23  C    6.005959
    24  N    7.007544
    25  C    5.972132
    26  C    6.004324
    27  C    5.988251
    28  C    6.028953
    29  C    6.001469
    30  C    5.990597
    31  C    5.997963
    32  N    6.997478
    33  C    6.029329
    34  C    6.031255
    35  C    5.998188
    36  C    6.034140
    37  C    5.999231
    38  C    6.013690
    39  O    8.024395
    40  C    6.005001
    41  C    6.005710
    42  O    8.001372
    43  O    8.002060
    44  C    5.998492
    45  H    0.989406
    46  H    0.997679
    47  H    1.013709
    48  H    0.997973
    49  H    0.997574
    50  H    0.985928
    51  H    1.000525
    52  H    1.001095
    53  H    1.005508
    54  H    0.993133
    55  H    1.002675
    56  H    1.005073
    57  H    0.984117
    58  H    0.982254
    59  H    0.982375
    60  H    0.992764
    61  H    0.985904
    62  H    0.991456
    63  H    1.002788
    64  H    1.002799
    65  H    1.006572
    66  H    0.990528
    67  H    1.000606
    68  H    1.011266
    69  H    0.998067
    70  H    1.014664
    71  H    1.005666
    72  H    0.995623
    73  H    1.019457
    74  H    1.019674
    75  H    1.014488
    76  H    1.004237
    77  H    1.002969
    78  H    1.000598
    79  H    1.006078
    80  Mg  11.999897
    81  C    5.999626
    82  C    5.999769
    83  C    6.000233
    84  C    5.999894
    85  N    6.999867
    86  C    6.000450
    87  C    5.999725
    88  C    6.000218
    89  C    5.999595
    90  C    6.000089
    91  C    5.999988
    92  C    6.000028
    93  H    1.000081
    94  N    7.000144
    95  C    5.999663
    96  C    5.999561
    97  C    5.999768
    98  C    5.999711
    99  C    5.999999
   100  C    5.999963
   101  O    7.999650
   102  C    6.000049
   103  N    7.000221
   104  C    5.999420
   105  C    6.000074
   106  C    5.999899
   107  C    6.000564
   108  C    5.999973
   109  C    5.999880
   110  C    5.999986
   111  N    6.999991
   112  C    6.000486
   113  C    6.000539
   114  C    6.000025
   115  C    6.000541
   116  C    6.000008
   117  C    6.000327
   118  O    8.000412
   119  C    6.000046
   120  C    6.000136
   121  O    7.999936
   122  O    7.999998
   123  C    5.999928
   124  H    0.999806
   125  H    0.999836
   126  H    1.000157
   127  H    0.999997
   128  H    0.999935
   129  H    1.000049
   130  H    0.999796
   131  H    0.999819
   132  H    1.000111
   133  H    0.999949
   134  H    0.999915
   135  H    0.999968
   136  H    0.999752
   137  H    0.999754
   138  H    0.999674
   139  H    0.999758
   140  H    0.999890
   141  H    0.999858
   142  H    1.000024
   143  H    1.000076
   144  H    0.999890
   145  H    1.000062
   146  H    1.000059
   147  H    1.000061
   148  H    1.000198
   149  H    0.999990
   150  H    0.999936
   151  H    1.000106
   152  H    1.000259
   153  H    1.000245
   154  H    1.000341
   155  H    1.000153
   156  H    1.000069
   157  H    1.000045
   158  H    1.000107
 Sum of Mulliken charges = 624.00000

 Dipole moment (field-independent basis, Debye):
    X=             -3.5377    Y=              9.3989    Z=             -1.9607  Tot=             10.2323
 Quadrupole moment (field-independent basis, Debye-Ang):
   XX=           -180.5150   YY=             -5.6114   ZZ=              4.9852
   XY=            257.6521   XZ=            -51.9679   YZ=             -3.2162

 Normal termination of Gaussian 16 at Thu Oct 14 09:10:40 2021.
