 Gaussian 16, Revision A.03,
 Gaussian 16:  ES64L-G16RevA.03 25-Dec-2016

 --------------------------------------------------------
 #p PBE1PBE/Def2SVP td=(nstates=5) density=(transition=1)
 --------------------------------------------------------

 --------------------------------
 TDDFT excited states in gaussian
 --------------------------------
 Symbolic Z-matrix:
 Charge =  0 Multiplicity = 1

                         Standard orientation:
 ---------------------------------------------------------------------
 Center     Atomic      Atomic             Coordinates (Angstroms)
 Number     Number       Type             X           Y           Z
 ---------------------------------------------------------------------
      1         12           0      -28.217167   -0.069680   -0.483049
      2          6           0      -24.773128    0.232460    0.225252
      3          6           0      -28.054117   -3.428936    0.442422
      4          6           0      -31.612223   -0.028825   -0.189263
      5          6           0      -28.238368    3.490612   -0.875136
      6          7           0      -26.610493   -1.397789    0.199037
      7          6           0      -25.324988   -1.061580    0.437280
      8          6           0      -24.538312   -2.258172    1.064569
      9          6           0      -25.542057   -3.458388    0.741017
     10          6           0      -26.878014   -2.727360    0.389009
     11          6           0      -25.254976   -4.441635   -0.416360
     12          6           0      -24.328813   -1.980667    2.601232
     13          6           0      -22.968759   -2.487047    3.156667
     14          1           0      -23.022400   -3.153742    4.591342
     15          7           0      -29.698140   -1.608215   -0.135760
     16          6           0      -29.378277   -2.904052    0.171650
     17          6           0      -30.599106   -3.610294    0.266521
     18          6           0      -31.679539   -2.684343    0.164497
     19          6           0      -31.038916   -1.356433   -0.118685
     20          6           0      -30.723856   -5.091664    0.533785
     21          6           0      -33.118740   -2.954572    0.443630
     22          8           0      -33.503043   -4.033952    0.864339
     23          6           0      -34.177056   -1.986224    0.320766
     24          7           0      -29.700569    1.580730   -0.423860
     25          6           0      -31.065290    1.258324   -0.458783
     26          6           0      -31.887064    2.477663   -0.738416
     27          6           0      -30.837324    3.638938   -0.897864
     28          6           0      -29.519654    2.902639   -0.728050
     29          6           0      -32.746526    2.225476   -1.983804
     30          6           0      -31.156763    4.907575   -0.020619
     31          6           0      -31.304294    6.211770   -0.744016
     32          7           0      -26.798682    1.596251   -0.397314
     33          6           0      -26.977881    2.936975   -0.634563
     34          6           0      -25.673429    3.634167   -0.667157
     35          6           0      -24.815481    2.577234   -0.262589
     36          6           0      -25.519370    1.389025   -0.204136
     37          6           0      -25.369804    5.111828   -0.858753
     38          6           0      -23.469155    2.312503    0.170419
     39          8           0      -22.512828    3.089448    0.317566
     40          6           0      -23.334073    0.823406    0.487450
     41          6           0      -22.249192    0.205592   -0.297691
     42          8           0      -21.327865   -0.327825    0.205506
     43          8           0      -22.511737    0.137298   -1.635372
     44          6           0      -21.518444   -0.717745   -2.320777
     45          1           0      -28.025951   -4.501004    0.650394
     46          1           0      -32.700457   -0.107027   -0.175064
     47          1           0      -28.053093    4.565964   -0.928793
     48          1           0      -23.581361   -2.340393    0.548924
     49          1           0      -25.933679   -3.984624    1.611386
     50          1           0      -24.632693   -3.964302   -1.174197
     51          1           0      -26.123935   -4.882133   -0.905312
     52          1           0      -24.662709   -5.244245    0.021822
     53          1           0      -25.156082   -2.386511    3.184178
     54          1           0      -24.378542   -0.895418    2.690425
     55          1           0      -22.356963   -1.585055    3.179565
     56          1           0      -22.609735   -3.132029    2.354364
     57          1           0      -31.658046   -5.561601    0.226029
     58          1           0      -30.601032   -5.163591    1.614115
     59          1           0      -29.870718   -5.711045    0.256905
     60          1           0      -34.199807   -1.677457   -0.725124
     61          1           0      -34.029571   -1.151568    1.006714
     62          1           0      -35.117625   -2.468517    0.587056
     63          1           0      -32.459848    2.764441    0.143176
     64          1           0      -30.606569    3.976190   -1.908605
     65          1           0      -32.801696    1.173127   -2.263459
     66          1           0      -32.348966    2.738756   -2.859355
     67          1           0      -33.795001    2.396833   -1.741822
     68          1           0      -30.334617    4.957389    0.693320
     69          1           0      -32.127781    4.871499    0.471918
     70          1           0      -30.608790    6.913000   -0.283660
     71          1           0      -32.300014    6.636763   -0.616081
     72          1           0      -31.212807    6.115906   -1.825975
     73          1           0      -25.481322    5.687243    0.060472
     74          1           0      -25.934326    5.564991   -1.674622
     75          1           0      -24.296860    5.076251   -1.047094
     76          1           0      -22.982526    0.697677    1.510707
     77          1           0      -21.774808   -0.737396   -3.380339
     78          1           0      -21.523335   -1.724643   -1.903594
     79          1           0      -20.509536   -0.307095   -2.340282
     80         12           0       27.666213    0.736639   -0.361846
     81          6           0       27.213592   -2.808521   -0.043750
     82          6           0       25.040433    1.004917    2.045058
     83          6           0       28.513530    3.914970    0.323082
     84          6           0       30.576684    0.141063   -2.056177
     85          7           0       26.358139   -0.744963    0.843257
     86          6           0       26.332955   -2.107991    0.788472
     87          6           0       25.246267   -2.711239    1.745412
     88          6           0       24.351825   -1.415040    2.046465
     89          6           0       25.344706   -0.319107    1.693307
     90          6           0       23.106932   -1.294552    1.197710
     91          6           0       25.832476   -3.479509    2.918335
     92          6           0       25.182482   -4.840306    3.279943
     93          1           0       24.152622   -4.961312    4.497566
     94          7           0       26.813708    2.343645    0.956000
     95          6           0       25.674735    2.231141    1.780398
     96          6           0       25.396950    3.541985    2.380087
     97          6           0       26.407084    4.424807    1.828716
     98          6           0       27.330049    3.590749    1.089388
     99          6           0       24.340902    3.868645    3.367749
    100          6           0       26.442786    5.921315    2.012189
    101          8           0       25.487234    6.455990    2.528206
    102          6           0       27.589255    6.807395    1.582626
    103          7           0       29.334978    1.752958   -0.714853
    104          6           0       29.361727    3.121769   -0.463004
    105          6           0       30.696939    3.656256   -0.986289
    106          6           0       31.230284    2.505399   -1.915811
    107          6           0       30.290137    1.399076   -1.574276
    108          6           0       30.723487    5.091533   -1.628994
    109          6           0       32.740638    2.127577   -1.824452
    110          6           0       33.545698    2.149111   -3.082778
    111          7           0       28.656082   -0.918876   -1.054719
    112          6           0       29.811380   -1.022555   -1.809659
    113          6           0       29.988780   -2.400092   -2.308235
    114          6           0       28.990518   -3.130200   -1.553543
    115          6           0       28.258582   -2.182337   -0.831823
    116          6           0       30.999493   -2.964168   -3.271784
    117          6           0       28.439989   -4.500240   -1.334641
    118          8           0       28.820476   -5.565322   -1.729716
    119          6           0       27.363321   -4.315627   -0.270178
    120          6           0       26.089701   -4.902793   -0.801079
    121          8           0       25.561230   -4.382562   -1.760096
    122          8           0       25.542739   -5.990149   -0.055740
    123          6           0       24.175818   -6.448055   -0.449613
    124          1           0       24.207751    1.133511    2.739952
    125          1           0       28.916920    4.923888    0.424340
    126          1           0       31.404283    0.023325   -2.758372
    127          1           0       24.548188   -3.354759    1.210767
    128          1           0       24.142102   -1.314570    3.111304
    129          1           0       23.391256   -0.887308    0.227719
    130          1           0       22.403079   -0.671810    1.749700
    131          1           0       22.558568   -2.200134    0.936171
    132          1           0       25.692796   -2.843578    3.791966
    133          1           0       26.914407   -3.508165    2.789360
    134          1           0       26.045162   -5.475664    3.481884
    135          1           0       24.647401   -5.298395    2.448021
    136          1           0       23.517531    4.299849    2.799145
    137          1           0       24.687537    4.682511    4.004665
    138          1           0       23.947900    3.095946    4.029584
    139          1           0       27.512342    7.850681    1.888166
    140          1           0       27.584794    6.778312    0.492953
    141          1           0       28.609611    6.519704    1.833296
    142          1           0       31.250178    3.797775   -0.057397
    143          1           0       30.928838    2.731239   -2.938228
    144          1           0       29.722627    5.391931   -1.940223
    145          1           0       31.443112    5.129997   -2.446570
    146          1           0       31.106471    5.816889   -0.911495
    147          1           0       32.826548    1.135071   -1.382248
    148          1           0       33.182079    2.766052   -1.059335
    149          1           0       33.752528    1.124313   -3.390466
    150          1           0       34.501252    2.639062   -2.896278
    151          1           0       33.110161    2.640682   -3.952432
    152          1           0       30.646836   -3.899476   -3.705964
    153          1           0       31.918131   -3.110120   -2.702848
    154          1           0       31.234877   -2.186689   -3.998800
    155          1           0       27.745071   -4.744897    0.656280
    156          1           0       24.252327   -7.076649   -1.336973
    157          1           0       23.548928   -5.602672   -0.732434
    158          1           0       23.692774   -6.976060    0.372342
 ---------------------------------------------------------------------

 SCF Done:  E(RPBE1PBE) =  -4067.35244643     A.U. after   16 cycles

 Excitation energies and oscillator strengths:

 Excited State   1:      Singlet-A      1.8343 eV  675.91 nm  f=0.0000  <S**2>=0.000
     312 -> 313        0.70711
 This state for optimization and/or second-order correction.
 Total Energy, E(TD-HF/TD-DFT) =  -4067.28503576
 Copying the excited state density for this state as the 1-particle RhoCI density.

 Excited State   2:      Singlet-A      1.8362 eV  675.21 nm  f=0.3796  <S**2>=0.000
     310 -> 316        0.16421
     312 -> 314        0.69654
     312 <- 314       -0.11950

 Excited State   3:      Singlet-A      1.8469 eV  671.31 nm  f=0.3946  <S**2>=0.000
     309 -> 315       -0.16870
     311 -> 313        0.69400
     311 <- 313       -0.11311

 Excited State   4:      Singlet-A      2.0774 eV  596.84 nm  f=0.0000  <S**2>=0.000
     311 -> 314        0.70711

 Excited State   5:      Singlet-A      2.2121 eV  560.47 nm  f=0.1074  <S**2>=0.000
     309 -> 313        0.65183
     311 -> 315        0.25474

 The electronic state is 1-A.
 Alpha  occ. eigenvalues --  -46.94200 -46.92719 -19.25842 -19.25712 -19.20843
 Alpha  occ. eigenvalues --  -19.20112 -19.19815 -19.18987 -19.18219 -19.17633
 Alpha  occ. eigenvalues --  -14.42425 -14.42302 -14.42109 -14.41340 -14.39593
 Alpha  occ. eigenvalues --  -14.38986 -14.38885 -14.38806 -10.37163 -10.35711
 Alpha  occ. eigenvalues --  -10.32458 -10.31833 -10.31671 -10.30696 -10.29932
 Alpha  occ. eigenvalues --  -10.29677 -10.29658 -10.29438 -10.29110 -10.29030
 Alpha  occ. eigenvalues --  -10.29004 -10.28904 -10.28804 -10.28468 -10.28168
 Alpha  occ. eigenvalues --  -10.27927 -10.27903 -10.27801 -10.27680 -10.27263
 Alpha  occ. eigenvalues --  -10.26869 -10.26854 -10.26848 -10.26771 -10.26686
 Alpha  occ. eigenvalues --  -10.26625 -10.26373 -10.26350 -10.26334 -10.26293
 Alpha  occ. eigenvalues --  -10.26292 -10.26273 -10.26227 -10.26105 -10.26025
 Alpha  occ. eigenvalues --  -10.25907 -10.25825 -10.25749 -10.25570 -10.25555
 Alpha  occ. eigenvalues --  -10.25443 -10.25317 -10.24987 -10.24766 -10.24701
 Alpha  occ. eigenvalues --  -10.24583 -10.24520 -10.24451 -10.24415 -10.24383
 Alpha  occ. eigenvalues --  -10.24314 -10.24210 -10.24052 -10.24039 -10.24022
 Alpha  occ. eigenvalues --  -10.23917 -10.23914 -10.23488 -10.23212 -10.23199
 Alpha  occ. eigenvalues --  -10.23166 -10.23161 -10.23048 -10.22827 -10.22812
 Alpha  occ. eigenvalues --  -10.22652  -3.15939  -3.14866  -1.88790  -1.88292
 Alpha  occ. eigenvalues --   -1.88154  -1.87652  -1.87246  -1.87094  -1.12722
 Alpha  occ. eigenvalues --   -1.09999  -1.06387  -1.04984  -1.04371  -1.03867
 Alpha  occ. eigenvalues --   -1.03595  -1.02621  -0.99737  -0.99221  -0.98403
 Alpha  occ. eigenvalues --   -0.98177  -0.98029  -0.97358  -0.97271  -0.96181
 Alpha  occ. eigenvalues --   -0.87017  -0.86937  -0.83710  -0.83708  -0.83366
 Alpha  occ. eigenvalues --   -0.83125  -0.82769  -0.82559  -0.82352  -0.81885
 Alpha  occ. eigenvalues --   -0.81273  -0.80534  -0.80219  -0.79943  -0.79174
 Alpha  occ. eigenvalues --   -0.78932  -0.78744  -0.78260  -0.77014  -0.76753
 Alpha  occ. eigenvalues --   -0.76751  -0.76010  -0.75225  -0.74922  -0.74831
 Alpha  occ. eigenvalues --   -0.74499  -0.72998  -0.72480  -0.71903  -0.71777
 Alpha  occ. eigenvalues --   -0.71193  -0.71078  -0.70790  -0.70581  -0.69815
 Alpha  occ. eigenvalues --   -0.69586  -0.67602  -0.67089  -0.66988  -0.66211
 Alpha  occ. eigenvalues --   -0.63898  -0.63791  -0.63636  -0.63292  -0.62420
 Alpha  occ. eigenvalues --   -0.62330  -0.61332  -0.61121  -0.60772  -0.60386
 Alpha  occ. eigenvalues --   -0.60156  -0.59593  -0.59501  -0.59224  -0.59123
 Alpha  occ. eigenvalues --   -0.58824  -0.57827  -0.56857  -0.54678  -0.54557
 Alpha  occ. eigenvalues --   -0.54337  -0.53972  -0.53776  -0.53587  -0.53498
 Alpha  occ. eigenvalues --   -0.53457  -0.52983  -0.52862  -0.52227  -0.51667
 Alpha  occ. eigenvalues --   -0.51095  -0.51012  -0.50615  -0.50182  -0.50178
 Alpha  occ. eigenvalues --   -0.50038  -0.49637  -0.49111  -0.48784  -0.48425
 Alpha  occ. eigenvalues --   -0.48212  -0.47992  -0.47885  -0.47779  -0.47712
 Alpha  occ. eigenvalues --   -0.47473  -0.47408  -0.47096  -0.46883  -0.46872
 Alpha  occ. eigenvalues --   -0.46316  -0.46313  -0.46236  -0.46022  -0.45882
 Alpha  occ. eigenvalues --   -0.45876  -0.45572  -0.45553  -0.45455  -0.45066
 Alpha  occ. eigenvalues --   -0.44720  -0.44519  -0.44474  -0.44421  -0.44293
 Alpha  occ. eigenvalues --   -0.44220  -0.43918  -0.43906  -0.43772  -0.43682
 Alpha  occ. eigenvalues --   -0.43305  -0.43257  -0.43252  -0.43089  -0.42805
 Alpha  occ. eigenvalues --   -0.42789  -0.42369  -0.42254  -0.42000  -0.41824
 Alpha  occ. eigenvalues --   -0.41664  -0.41650  -0.41574  -0.41435  -0.41094
 Alpha  occ. eigenvalues --   -0.41089  -0.41022  -0.41012  -0.40858  -0.40802
 Alpha  occ. eigenvalues --   -0.40676  -0.40594  -0.40508  -0.39939  -0.39936
 Alpha  occ. eigenvalues --   -0.39811  -0.39668  -0.39642  -0.39488  -0.39367
 Alpha  occ. eigenvalues --   -0.39155  -0.38844  -0.38590  -0.38472  -0.38425
 Alpha  occ. eigenvalues --   -0.38246  -0.38237  -0.38108  -0.37863  -0.37780
 Alpha  occ. eigenvalues --   -0.37670  -0.37506  -0.37486  -0.37414  -0.37162
 Alpha  occ. eigenvalues --   -0.37065  -0.36794  -0.36637  -0.36380  -0.36169
 Alpha  occ. eigenvalues --   -0.36013  -0.35933  -0.35637  -0.35594  -0.35513
 Alpha  occ. eigenvalues --   -0.35194  -0.35024  -0.34577  -0.34219  -0.34160
 Alpha  occ. eigenvalues --   -0.33647  -0.33429  -0.32894  -0.32671  -0.32554
 Alpha  occ. eigenvalues --   -0.32331  -0.32240  -0.32025  -0.31954  -0.31549
 Alpha  occ. eigenvalues --   -0.31439  -0.30838  -0.29814  -0.29771  -0.29542
 Alpha  occ. eigenvalues --   -0.29359  -0.29057  -0.28816  -0.27146  -0.26834
 Alpha  occ. eigenvalues --   -0.26331  -0.25981  -0.25714  -0.25306  -0.25221
 Alpha  occ. eigenvalues --   -0.25061  -0.24610  -0.24387  -0.21454  -0.21190
 Alpha  occ. eigenvalues --   -0.19254  -0.18766
 Alpha virt. eigenvalues --   -0.11788  -0.11384  -0.05762  -0.05010  -0.03906
 Alpha virt. eigenvalues --   -0.03532  -0.02010  -0.01946  -0.01534  -0.01534
 Alpha virt. eigenvalues --   -0.00195   0.00256   0.00575   0.01262   0.01289

 Mulliken charges:
               1
     1  Mg  12.000000
     2  C    6.000000
     3  C    6.000000
     4  C    6.000000
     5  C    6.000000
     6  N    7.000000
     7  C    6.000000
     8  C    6.000000
     9  C    6.000000
    10  C    6.000000
    11  C    6.000000
    12  C    6.000000
    13  C    6.000000
    14  H    1.000000
    15  N    7.000000
    16  C    6.000000
    17  C    6.000000
    18  C    6.000000
    19  C    6.000000
    20  C    6.000000
    21  C    6.000000
    22  O    8.000000
    23  C    6.000000
    24  N    7.000000
    25  C    6.000000
    26  C    6.000000
    27  C    6.000000
    28  C    6.000000
    29  C    6.000000
    30  C    6.000000
    31  C    6.000000
    32  N    7.000000
    33  C    6.000000
    34  C    6.000000
    35  C    6.000000
    36  C    6.000000
    37  C    6.000000
    38  C    6.000000
    39  O    8.000000
    40  C    6.000000
    41  C    6.000000
    42  O    8.000000
    43  O    8.000000
    44  C    6.000000
    45  H    1.000000
    46  H    1.000000
    47  H    1.000000
    48  H    1.000000
    49  H    1.000000
    50  H    1.000000
    51  H    1.000000
    52  H    1.000000
    53  H    1.000000
    54  H    1.000000
    55  H    1.000000
    56  H    1.000000
    57  H    1.000000
    58  H    1.000000
    59  H    1.000000
    60  H    1.000000
    61  H    1.000000
    62  H    1.000000
    63  H    1.000000
    64  H    1.000000
    65  H    1.000000
    66  H    1.000000
    67  H    1.000000
    68  H    1.000000
    69  H    1.000000
    70  H    1.000000
    71  H    1.000000
    72  H    1.000000
    73  H    1.000000
    74  H    1.000000
    75  H    1.000000
    76  H    1.000000
    77  H    1.000000
    78  H    1.000000
    79  H    1.000000
    80  Mg  12.000000
    81  C    6.000000
    82  C    6.000000
    83  C    6.000000
    84  C    6.000000
    85  N    7.000000
    86  C    6.000000
    87  C    6.000000
    88  C    6.000000
    89  C    6.000000
    90  C    6.000000
    91  C    6.000000
    92  C    6.000000
    93  H    1.000000
    94  N    7.000000
    95  C    6.000000
    96  C    6.000000
    97  C    6.000000
    98  C    6.000000
    99  C    6.000000
   100  C    6.000000
   101  O    8.000000
   102  C    6.000000
   103  N    7.000000
   104  C    6.000000
   105  C    6.000000
   106  C    6.000000
   107  C    6.000000
   108  C    6.000000
   109  C    6.000000
   110  C    6.000000
   111  N    7.000000
   112  C    6.000000
   113  C    6.000000
   114  C    6.000000
   115  C    6.000000
   116  C    6.000000
   117  C    6.000000
   118  O    8.000000
   119  C    6.000000
   120  C    6.000000
   121  O    8.000000
   122  O    8.000000
   123  C    6.000000
   124  H    1.000000
   125  H    1.000000
   126  H    1.000000
   127  H    1.000000
   128  H    1.000000
   129  H    1.000000
   130  H    1.000000
   131  H    1.000000
   132  H    1.000000
   133  H    1.000000
   134  H    1.000000
   135  H    1.000000
   136  H    1.000000
   137  H    1.000000
   138  H    1.000000
   139  H    1.000000
   140  H    1.000000
   141  H    1.000000
   142  H    1.000000
   143  H    1.000000
   144  H    1.000000
   145  H    1.000000
   146  H    1.000000
   147  H    1.000000
   148  H    1.000000
   149  H    1.000000
   150  H    1.000000
   151  H    1.000000
   152  H    1.000000
   153  H    1.000000
   154  H    1.000000
   155  H    1.000000
   156  H    1.000000
   157  H    1.000000
   158  H    1.000000
 Sum of Mulliken charges = 624.00000

 Dipole moment (field-independent basis, Debye):
    X=             -0.0000    Y=              0.0000    Z=              0.0000  Tot=              0.0000
 Quadrupole moment (field-independent basis, Debye-Ang):
   XX=              0.0000   YY=              0.0000   ZZ=             -0.0000
   XY=              0.0000   XZ=              0.0000   YZ=              0.0000

 Normal termination of Gaussian 16 at Thu Oct 14 05:50:31 2021.
