 Gaussian 16, Revision A.03,
 Gaussian 16:  ES64L-G16RevA.03 25-Dec-2016

 --------------------------------------------------------
 #p PBE1PBE/Def2SVP td=(nstates=5) density=(transition=1)
 --------------------------------------------------------

 --------------------------------
 TDDFT excited states in gaussian
 --------------------------------
 Symbolic Z-matrix:
 Charge =  0 Multiplicity = 1

                         Standard orientation:
 ---------------------------------------------------------------------
 Center     Atomic      Atomic             Coordinates (Angstroms)
 Number     Number       Type             X           Y           Z
 ---------------------------------------------------------------------
      1         12           0        9.174858    0.457747    0.072957
      2          6           0        7.068335   -2.310372    1.229450
      3          6           0       10.647219   -1.854028   -2.109651
      4          6           0       11.321105    2.766492   -0.758251
      5          6           0        7.468296    2.580485    2.157078
      6          7           0        9.037269   -1.829223   -0.234359
      7          6           0        8.020637   -2.756380    0.247035
      8          6           0        8.179694   -4.192426   -0.296737
      9          6           0        9.512284   -3.976774   -1.223128
     10          6           0        9.798940   -2.462467   -1.206833
     11          6           0       10.701356   -4.811036   -0.787899
     12          6           0        6.874885   -4.656430   -1.012068
     13          6           0        7.001837   -5.903672   -1.834111
     14          1           0        5.929988   -6.967864   -1.754713
     15          7           0       10.812580    0.481615   -1.249382
     16          6           0       11.264073   -0.558777   -2.069336
     17          6           0       12.388786   -0.094336   -2.879275
     18          6           0       12.611551    1.292934   -2.501397
     19          6           0       11.569654    1.607672   -1.455217
     20          6           0       13.107787   -0.940219   -3.993280
     21          6           0       13.639878    2.276449   -2.930619
     22          8           0       13.699260    3.439260   -2.553666
     23          6           0       14.618307    1.914010   -3.969697
     24          7           0        9.311296    2.363929    0.532173
     25          6           0       10.354828    3.113021    0.171337
     26          6           0       10.275267    4.554935    0.725299
     27          6           0        8.856656    4.583475    1.255176
     28          6           0        8.514438    3.049618    1.395870
     29          6           0       11.319110    4.846698    1.797118
     30          6           0        7.735463    5.306735    0.555001
     31          6           0        7.404515    4.762035   -0.818061
     32          7           0        7.669586    0.218562    1.492359
     33          6           0        7.004971    1.235786    2.200875
     34          6           0        5.970807    0.640536    3.010838
     35          6           0        5.966698   -0.705641    2.563232
     36          6           0        7.017761   -0.931781    1.654184
     37          6           0        4.992229    1.315796    3.926783
     38          6           0        5.188128   -1.971094    2.735188
     39          8           0        4.124178   -2.200433    3.349154
     40          6           0        5.917023   -3.020767    1.899230
     41          6           0        6.302562   -4.213622    2.776595
     42          8           0        7.094719   -4.281751    3.762356
     43          8           0        5.732224   -5.317667    2.215203
     44          6           0        6.051468   -6.607820    2.867465
     45          1           0       10.958964   -2.515339   -2.919582
     46          1           0       12.066512    3.534892   -0.973394
     47          1           0        6.899666    3.191048    2.861746
     48          1           0        8.280054   -4.819842    0.588865
     49          1           0        9.248485   -4.158906   -2.264944
     50          1           0       11.001663   -5.445959   -1.621932
     51          1           0       10.351338   -5.437150    0.032046
     52          1           0       11.502785   -4.305006   -0.250053
     53          1           0        6.504389   -3.776570   -1.539213
     54          1           0        6.113902   -4.842778   -0.254156
     55          1           0        7.875172   -6.529612   -1.652296
     56          1           0        6.962191   -5.640090   -2.890627
     57          1           0       12.924639   -0.390384   -4.916902
     58          1           0       12.705758   -1.947504   -4.101072
     59          1           0       14.163786   -0.959188   -3.723525
     60          1           0       15.045946    0.918962   -3.845070
     61          1           0       15.399598    2.664537   -3.854982
     62          1           0       14.016680    1.839534   -4.875056
     63          1           0       10.449447    5.227572   -0.114612
     64          1           0        8.796476    5.048010    2.239797
     65          1           0       11.704784    5.852926    1.637335
     66          1           0       12.150376    4.144739    1.740403
     67          1           0       10.844522    4.913054    2.776791
     68          1           0        7.973614    6.370756    0.554727
     69          1           0        6.787657    5.147699    1.069003
     70          1           0        7.291111    5.555452   -1.555885
     71          1           0        6.447889    4.239785   -0.844931
     72          1           0        8.157111    4.088264   -1.227806
     73          1           0        3.978712    1.011338    3.666801
     74          1           0        4.957518    2.402640    4.001656
     75          1           0        5.211881    0.964827    4.935302
     76          1           0        5.212592   -3.419659    1.168766
     77          1           0        6.826236   -7.124409    2.301301
     78          1           0        5.053651   -7.046500    2.861025
     79          1           0        6.298489   -6.491249    3.923467
     80         12           0       -8.413070    0.830795   -0.412028
     81          6           0      -10.879906   -1.526509   -0.717643
     82          6           0       -6.087748   -1.575467   -0.458344
     83          6           0       -6.124373    3.244261    0.135878
     84          6           0      -10.998464    3.323773    0.153719
     85          7           0       -8.531073   -1.379649   -0.302957
     86          6           0       -9.612686   -2.126530   -0.555626
     87          6           0       -9.215615   -3.687711   -0.659266
     88          6           0       -7.647734   -3.573501   -0.571594
     89          6           0       -7.359606   -2.069811   -0.388044
     90          6           0       -7.016465   -4.506125    0.480387
     91          6           0       -9.718404   -4.378451   -1.958648
     92          6           0       -9.104474   -5.762867   -2.347746
     93          1           0       -9.973693   -7.049984   -2.081142
     94          7           0       -6.368168    0.824187   -0.141298
     95          6           0       -5.584852   -0.223193   -0.294211
     96          6           0       -4.202318    0.205121   -0.144780
     97          6           0       -4.154574    1.602245    0.143384
     98          6           0       -5.588867    1.952362    0.048604
     99          6           0       -2.991944   -0.713537   -0.118110
    100          6           0       -2.979577    2.505594    0.503134
    101          8           0       -3.161360    3.612451    1.001984
    102          6           0       -1.597004    2.019104    0.242452
    103          7           0       -8.556161    2.979741    0.122670
    104          6           0       -7.471370    3.736282    0.239682
    105          6           0       -7.818542    5.229056    0.364572
    106          6           0       -9.329481    5.189742    0.150975
    107          6           0       -9.639502    3.739631    0.179210
    108          6           0       -7.371640    5.969990    1.633570
    109          6           0       -9.811747    6.037698   -0.998695
    110          6           0      -10.760726    7.232962   -0.628814
    111          7           0      -10.454110    0.930964   -0.351458
    112          6           0      -11.390500    2.007839   -0.198165
    113          6           0      -12.748358    1.552204   -0.399842
    114          6           0      -12.534306    0.163146   -0.620520
    115          6           0      -11.168034   -0.140555   -0.569106
    116          6           0      -14.031022    2.295039   -0.531271
    117          6           0      -13.278186   -0.988581   -1.064461
    118          8           0      -14.431351   -1.164124   -1.485471
    119          6           0      -12.334393   -2.164742   -1.036874
    120          6           0      -12.717244   -3.068658    0.155706
    121          8           0      -13.030503   -2.716097    1.303136
    122          8           0      -12.644384   -4.361896   -0.269468
    123          6           0      -13.009445   -5.437416    0.706203
    124          1           0       -5.233364   -2.244013   -0.583052
    125          1           0       -5.482090    4.042967    0.512709
    126          1           0      -11.712455    4.148183    0.197235
    127          1           0       -9.635617   -4.120909    0.247775
    128          1           0       -7.246901   -3.827326   -1.552897
    129          1           0       -6.130081   -4.943734    0.022412
    130          1           0       -7.675563   -5.335033    0.738690
    131          1           0       -6.751075   -3.953302    1.381610
    132          1           0       -9.362424   -3.744081   -2.770390
    133          1           0      -10.797963   -4.520686   -1.910754
    134          1           0       -8.247918   -5.921857   -1.691856
    135          1           0       -8.878281   -5.756246   -3.413442
    136          1           0       -3.279746   -1.754855   -0.262603
    137          1           0       -2.487616   -0.625011    0.843829
    138          1           0       -2.266552   -0.451712   -0.887360
    139          1           0       -1.612011    1.660410   -0.787111
    140          1           0       -1.125682    1.228197    0.825117
    141          1           0       -0.848161    2.804747    0.336992
    142          1           0       -7.349358    5.745918   -0.471882
    143          1           0       -9.789843    5.629536    1.035528
    144          1           0       -7.056303    6.947330    1.269074
    145          1           0       -6.605775    5.401424    2.160896
    146          1           0       -8.135670    6.037214    2.408000
    147          1           0      -10.435349    5.355014   -1.575023
    148          1           0       -9.006051    6.467758   -1.592979
    149          1           0      -10.946266    7.242496    0.445567
    150          1           0      -11.710772    7.057772   -1.134546
    151          1           0      -10.445087    8.211169   -0.991841
    152          1           0      -13.839590    3.365972   -0.593420
    153          1           0      -14.537869    2.156948    0.423093
    154          1           0      -14.493195    1.892508   -1.433796
    155          1           0      -12.499886   -2.660412   -1.993630
    156          1           0      -12.568436   -5.333422    1.697865
    157          1           0      -12.823953   -6.450134    0.349825
    158          1           0      -14.079892   -5.320762    0.874560
 ---------------------------------------------------------------------

 SCF Done:  E(RPBE1PBE) =  -4067.38919679     A.U. after   16 cycles

 Excitation energies and oscillator strengths:

 Excited State   1:      Singlet-A      1.6242 eV  763.35 nm  f=0.0000  <S**2>=0.000
     312 -> 313        0.70706
 This state for optimization and/or second-order correction.
 Total Energy, E(TD-HF/TD-DFT) =  -4067.32950784
 Copying the excited state density for this state as the 1-particle RhoCI density.

 Excited State   2:      Singlet-A      1.8153 eV  682.99 nm  f=0.4973  <S**2>=0.000
     309 -> 315        0.15958
     311 -> 313        0.68739
     312 -> 314       -0.10948
     311 <- 313       -0.11218

 Excited State   3:      Singlet-A      1.8811 eV  659.12 nm  f=0.3134  <S**2>=0.000
     310 -> 316       -0.16563
     311 -> 313        0.10903
     312 -> 314        0.68194
     312 <- 314       -0.10441

 Excited State   4:      Singlet-A      2.0717 eV  598.47 nm  f=0.0000  <S**2>=0.000
     311 -> 314        0.70701

 Excited State   5:      Singlet-A      2.1799 eV  568.75 nm  f=0.1192  <S**2>=0.000
     309 -> 313        0.66140
     311 -> 315       -0.23365

 The electronic state is 1-A.
 Alpha  occ. eigenvalues --  -46.92451 -46.91350 -19.26731 -19.26192 -19.20218
 Alpha  occ. eigenvalues --  -19.19621 -19.19492 -19.19133 -19.18934 -19.17885
 Alpha  occ. eigenvalues --  -14.42274 -14.41838 -14.41316 -14.41253 -14.39701
 Alpha  occ. eigenvalues --  -14.39495 -14.38869 -14.38836 -10.37306 -10.36525
 Alpha  occ. eigenvalues --  -10.32972 -10.32219 -10.31771 -10.30421 -10.30106
 Alpha  occ. eigenvalues --  -10.29419 -10.29314 -10.29278 -10.29241 -10.28984
 Alpha  occ. eigenvalues --  -10.28828 -10.28745 -10.28515 -10.28326 -10.28128
 Alpha  occ. eigenvalues --  -10.28035 -10.27966 -10.27771 -10.27674 -10.27667
 Alpha  occ. eigenvalues --  -10.27499 -10.27038 -10.26997 -10.26779 -10.26764
 Alpha  occ. eigenvalues --  -10.26753 -10.26689 -10.26553 -10.26303 -10.26120
 Alpha  occ. eigenvalues --  -10.26078 -10.26016 -10.25980 -10.25887 -10.25713
 Alpha  occ. eigenvalues --  -10.25671 -10.25464 -10.25447 -10.25278 -10.25277
 Alpha  occ. eigenvalues --  -10.25026 -10.24994 -10.24881 -10.24825 -10.24726
 Alpha  occ. eigenvalues --  -10.24700 -10.24361 -10.24255 -10.24193 -10.23944
 Alpha  occ. eigenvalues --  -10.23869 -10.23829 -10.23810 -10.23692 -10.23545
 Alpha  occ. eigenvalues --  -10.23529 -10.23525 -10.23494 -10.23438 -10.23196
 Alpha  occ. eigenvalues --  -10.23083 -10.23066 -10.23043 -10.22924 -10.22136
 Alpha  occ. eigenvalues --  -10.22075  -3.14557  -3.13666  -1.87389  -1.86925
 Alpha  occ. eigenvalues --   -1.86793  -1.86514  -1.86053  -1.85891  -1.11088
 Alpha  occ. eigenvalues --   -1.10245  -1.05056  -1.04865  -1.02934  -1.02638
 Alpha  occ. eigenvalues --   -1.01271  -1.00866  -1.00211  -0.99836  -0.98906
 Alpha  occ. eigenvalues --   -0.98435  -0.97899  -0.97545  -0.96911  -0.95345
 Alpha  occ. eigenvalues --   -0.86973  -0.85546  -0.84149  -0.84124  -0.83306
 Alpha  occ. eigenvalues --   -0.83157  -0.82872  -0.82359  -0.81801  -0.81617
 Alpha  occ. eigenvalues --   -0.81325  -0.81257  -0.81184  -0.80528  -0.79206
 Alpha  occ. eigenvalues --   -0.78580  -0.78340  -0.77496  -0.77412  -0.76468
 Alpha  occ. eigenvalues --   -0.76359  -0.76215  -0.76010  -0.75285  -0.74592
 Alpha  occ. eigenvalues --   -0.74290  -0.72836  -0.72715  -0.71799  -0.71701
 Alpha  occ. eigenvalues --   -0.71405  -0.70914  -0.70519  -0.70281  -0.69975
 Alpha  occ. eigenvalues --   -0.69569  -0.67483  -0.66973  -0.66510  -0.66016
 Alpha  occ. eigenvalues --   -0.64749  -0.64008  -0.63678  -0.63316  -0.62260
 Alpha  occ. eigenvalues --   -0.62093  -0.61840  -0.61810  -0.60181  -0.59767
 Alpha  occ. eigenvalues --   -0.59418  -0.59342  -0.58947  -0.58800  -0.58562
 Alpha  occ. eigenvalues --   -0.58308  -0.57099  -0.56780  -0.55068  -0.54840
 Alpha  occ. eigenvalues --   -0.54115  -0.53975  -0.53902  -0.53344  -0.53138
 Alpha  occ. eigenvalues --   -0.53107  -0.52489  -0.52487  -0.52143  -0.51766
 Alpha  occ. eigenvalues --   -0.50998  -0.50748  -0.50654  -0.50171  -0.50079
 Alpha  occ. eigenvalues --   -0.49945  -0.49554  -0.49549  -0.49145  -0.49001
 Alpha  occ. eigenvalues --   -0.48533  -0.48199  -0.48042  -0.47860  -0.47678
 Alpha  occ. eigenvalues --   -0.47514  -0.47241  -0.47024  -0.46994  -0.46905
 Alpha  occ. eigenvalues --   -0.46647  -0.46254  -0.46018  -0.45639  -0.45609
 Alpha  occ. eigenvalues --   -0.45553  -0.45345  -0.45207  -0.45182  -0.44963
 Alpha  occ. eigenvalues --   -0.44855  -0.44691  -0.44458  -0.44253  -0.44109
 Alpha  occ. eigenvalues --   -0.44089  -0.43816  -0.43715  -0.43648  -0.43479
 Alpha  occ. eigenvalues --   -0.43420  -0.43408  -0.43109  -0.43050  -0.42944
 Alpha  occ. eigenvalues --   -0.42716  -0.42602  -0.42338  -0.42335  -0.42112
 Alpha  occ. eigenvalues --   -0.41942  -0.41822  -0.41666  -0.41511  -0.41354
 Alpha  occ. eigenvalues --   -0.41084  -0.41036  -0.40898  -0.40783  -0.40699
 Alpha  occ. eigenvalues --   -0.40557  -0.40374  -0.39873  -0.39579  -0.39440
 Alpha  occ. eigenvalues --   -0.39432  -0.39338  -0.39272  -0.39141  -0.39023
 Alpha  occ. eigenvalues --   -0.39019  -0.38695  -0.38681  -0.38543  -0.38542
 Alpha  occ. eigenvalues --   -0.38257  -0.38080  -0.37687  -0.37626  -0.37552
 Alpha  occ. eigenvalues --   -0.37550  -0.37241  -0.36877  -0.36858  -0.36736
 Alpha  occ. eigenvalues --   -0.36673  -0.36636  -0.36606  -0.36268  -0.36263
 Alpha  occ. eigenvalues --   -0.35900  -0.35840  -0.35559  -0.35517  -0.35282
 Alpha  occ. eigenvalues --   -0.35054  -0.34394  -0.34163  -0.34123  -0.34009
 Alpha  occ. eigenvalues --   -0.33889  -0.33125  -0.32743  -0.32521  -0.32358
 Alpha  occ. eigenvalues --   -0.32023  -0.31968  -0.31769  -0.31562  -0.31401
 Alpha  occ. eigenvalues --   -0.31106  -0.30905  -0.29723  -0.29378  -0.29330
 Alpha  occ. eigenvalues --   -0.29010  -0.28809  -0.28563  -0.27265  -0.26643
 Alpha  occ. eigenvalues --   -0.26461  -0.26028  -0.25986  -0.25949  -0.25617
 Alpha  occ. eigenvalues --   -0.25245  -0.25218  -0.24682  -0.21348  -0.20732
 Alpha  occ. eigenvalues --   -0.19293  -0.18601
 Alpha virt. eigenvalues --   -0.11882  -0.10896  -0.05416  -0.05200  -0.04071
 Alpha virt. eigenvalues --   -0.03441  -0.02398  -0.01747  -0.00734  -0.00537
 Alpha virt. eigenvalues --   -0.00107   0.00881   0.01055   0.01270   0.01724

 Mulliken charges:
               1
     1  Mg  12.000000
     2  C    6.000000
     3  C    6.000000
     4  C    6.000000
     5  C    6.000000
     6  N    7.000000
     7  C    6.000000
     8  C    6.000000
     9  C    6.000000
    10  C    6.000000
    11  C    6.000000
    12  C    6.000000
    13  C    6.000000
    14  H    1.000000
    15  N    7.000000
    16  C    6.000001
    17  C    6.000000
    18  C    6.000000
    19  C    6.000000
    20  C    6.000000
    21  C    6.000000
    22  O    8.000000
    23  C    6.000000
    24  N    7.000000
    25  C    6.000000
    26  C    6.000000
    27  C    6.000000
    28  C    6.000000
    29  C    6.000000
    30  C    6.000000
    31  C    6.000000
    32  N    7.000000
    33  C    6.000000
    34  C    6.000000
    35  C    6.000001
    36  C    6.000000
    37  C    6.000000
    38  C    6.000000
    39  O    8.000000
    40  C    6.000000
    41  C    6.000000
    42  O    8.000000
    43  O    8.000000
    44  C    6.000000
    45  H    1.000000
    46  H    1.000000
    47  H    1.000000
    48  H    1.000000
    49  H    1.000000
    50  H    1.000000
    51  H    1.000000
    52  H    1.000000
    53  H    1.000000
    54  H    1.000000
    55  H    1.000000
    56  H    1.000000
    57  H    1.000000
    58  H    1.000000
    59  H    1.000000
    60  H    1.000000
    61  H    1.000000
    62  H    1.000000
    63  H    1.000000
    64  H    1.000000
    65  H    1.000000
    66  H    1.000000
    67  H    1.000000
    68  H    1.000000
    69  H    1.000000
    70  H    1.000000
    71  H    1.000000
    72  H    1.000000
    73  H    1.000000
    74  H    1.000000
    75  H    1.000000
    76  H    1.000000
    77  H    1.000000
    78  H    1.000000
    79  H    1.000000
    80  Mg  12.000000
    81  C    6.000000
    82  C    5.999999
    83  C    6.000001
    84  C    6.000001
    85  N    7.000000
    86  C    6.000000
    87  C    6.000000
    88  C    6.000000
    89  C    6.000000
    90  C    6.000000
    91  C    6.000000
    92  C    6.000000
    93  H    1.000000
    94  N    7.000001
    95  C    6.000001
    96  C    6.000002
    97  C    6.000000
    98  C    5.999998
    99  C    6.000000
   100  C    6.000001
   101  O    8.000003
   102  C    5.999999
   103  N    7.000000
   104  C    5.999998
   105  C    6.000000
   106  C    6.000000
   107  C    5.999998
   108  C    5.999999
   109  C    6.000000
   110  C    6.000000
   111  N    7.000000
   112  C    5.999999
   113  C    5.999999
   114  C    5.999999
   115  C    6.000000
   116  C    6.000000
   117  C    6.000000
   118  O    7.999999
   119  C    6.000000
   120  C    6.000000
   121  O    8.000000
   122  O    8.000000
   123  C    6.000000
   124  H    1.000000
   125  H    1.000000
   126  H    1.000000
   127  H    1.000000
   128  H    1.000000
   129  H    1.000000
   130  H    1.000000
   131  H    1.000000
   132  H    1.000000
   133  H    1.000000
   134  H    1.000000
   135  H    1.000000
   136  H    1.000001
   137  H    1.000002
   138  H    1.000001
   139  H    1.000000
   140  H    1.000000
   141  H    1.000000
   142  H    1.000000
   143  H    1.000000
   144  H    1.000000
   145  H    1.000000
   146  H    1.000000
   147  H    1.000000
   148  H    1.000000
   149  H    1.000000
   150  H    1.000000
   151  H    1.000000
   152  H    1.000000
   153  H    1.000000
   154  H    1.000000
   155  H    1.000000
   156  H    1.000000
   157  H    1.000000
   158  H    1.000000
 Sum of Mulliken charges = 624.00000

 Dipole moment (field-independent basis, Debye):
    X=              0.0005    Y=              0.0000    Z=             -0.0000  Tot=              0.0005
 Quadrupole moment (field-independent basis, Debye-Ang):
   XX=             -0.0040   YY=             -0.0001   ZZ=              0.0000
   XY=              0.0004   XZ=             -0.0009   YZ=              0.0000

 Normal termination of Gaussian 16 at Thu Oct 14 08:36:35 2021.
