 Gaussian 16, Revision A.03,
 Gaussian 16:  ES64L-G16RevA.03 25-Dec-2016

 --------------------------------------------------------
 #p PBE1PBE/Def2SVP td=(nstates=5) density=(transition=1)
 --------------------------------------------------------

 --------------------------------
 TDDFT excited states in gaussian
 --------------------------------
 Symbolic Z-matrix:
 Charge =  0 Multiplicity = 1

                         Standard orientation:
 ---------------------------------------------------------------------
 Center     Atomic      Atomic             Coordinates (Angstroms)
 Number     Number       Type             X           Y           Z
 ---------------------------------------------------------------------
      1         12           0      -31.258982    0.651058    0.342201
      2          6           0      -28.939227   -2.192241    0.339064
      3          6           0      -28.512870    2.513454   -0.642703
      4          6           0      -33.338913    2.840667   -0.682184
      5          6           0      -33.823895   -1.793091    0.941472
      6          7           0      -28.933083    0.101351   -0.243286
      7          6           0      -28.235198   -1.083377   -0.155885
      8          6           0      -26.780517   -0.873021   -0.714833
      9          6           0      -26.597115    0.654218   -0.748184
     10          6           0      -28.086406    1.123784   -0.535124
     11          6           0      -25.667228    1.330161    0.343281
     12          6           0      -26.520261   -1.593520   -2.081959
     13          6           0      -25.160927   -2.236045   -2.255690
     14          1           0      -24.122813   -1.458263   -3.123986
     15          7           0      -30.989055    2.459446   -0.415546
     16          6           0      -29.814125    3.117716   -0.657918
     17          6           0      -30.098583    4.479365   -1.187813
     18          6           0      -31.515431    4.555677   -1.219138
     19          6           0      -32.002038    3.242576   -0.803301
     20          6           0      -29.075388    5.520314   -1.670733
     21          6           0      -32.397933    5.656590   -1.814380
     22          8           0      -31.833346    6.663701   -2.232801
     23          6           0      -33.805045    5.612581   -1.887108
     24          7           0      -33.321969    0.413624   -0.089794
     25          6           0      -33.954584    1.628359   -0.265089
     26          6           0      -35.511082    1.385251   -0.178350
     27          6           0      -35.630918   -0.166750    0.032270
     28          6           0      -34.172326   -0.514463    0.415038
     29          6           0      -36.263370    2.214176    0.898669
     30          6           0      -36.200145   -1.056407   -1.145362
     31          6           0      -37.725285   -1.106470   -1.342085
     32          7           0      -31.450391   -1.535199    0.648086
     33          6           0      -32.531680   -2.317534    1.001275
     34          6           0      -32.133886   -3.660623    1.347226
     35          6           0      -30.707810   -3.652025    1.113531
     36          6           0      -30.289189   -2.363769    0.628986
     37          6           0      -33.087615   -4.745345    1.743151
     38          6           0      -29.579999   -4.471940    1.104081
     39          8           0      -29.465823   -5.683864    1.228038
     40          6           0      -28.419173   -3.636074    0.491280
     41          6           0      -27.323218   -3.691863    1.529809
     42          8           0      -26.151901   -3.975582    1.266921
     43          8           0      -27.693848   -3.225007    2.854835
     44          6           0      -26.529795   -2.962802    3.699674
     45          1           0      -27.651417    3.139214   -0.883099
     46          1           0      -34.160490    3.546383   -0.821546
     47          1           0      -34.700740   -2.393229    1.192986
     48          1           0      -26.069094   -1.171388    0.056525
     49          1           0      -26.325454    1.008209   -1.742658
     50          1           0      -24.763801    1.606017   -0.200207
     51          1           0      -25.370793    0.612214    1.107440
     52          1           0      -26.109725    2.163953    0.888242
     53          1           0      -26.517908   -0.934272   -2.950372
     54          1           0      -27.239159   -2.400068   -2.227667
     55          1           0      -25.334634   -3.253436   -2.606225
     56          1           0      -24.709015   -2.317898   -1.266655
     57          1           0      -29.383518    6.516120   -1.350990
     58          1           0      -29.052428    5.379744   -2.751325
     59          1           0      -28.101492    5.353159   -1.212650
     60          1           0      -34.195749    5.646567   -0.869604
     61          1           0      -34.208453    4.784712   -2.470282
     62          1           0      -34.003311    6.489775   -2.503952
     63          1           0      -36.041883    1.609756   -1.102918
     64          1           0      -36.200230   -0.402294    0.931112
     65          1           0      -36.756377    1.476119    1.531525
     66          1           0      -37.006855    2.831768    0.395739
     67          1           0      -35.468014    2.784595    1.379951
     68          1           0      -35.838981   -2.055796   -0.900515
     69          1           0      -35.847374   -0.695986   -2.111893
     70          1           0      -38.056284   -0.514742   -0.488140
     71          1           0      -38.114895   -2.108517   -1.157027
     72          1           0      -38.120024   -0.700467   -2.273136
     73          1           0      -33.791968   -4.822841    0.915952
     74          1           0      -33.713583   -4.484171    2.596223
     75          1           0      -32.622392   -5.730768    1.770589
     76          1           0      -28.079412   -4.171841   -0.394861
     77          1           0      -27.026787   -2.234146    4.341231
     78          1           0      -25.650402   -2.689950    3.116344
     79          1           0      -26.383996   -3.858590    4.303462
     80         12           0       30.818217   -0.535444   -0.510512
     81          6           0       30.534453    1.963258    1.937146
     82          6           0       30.767566   -2.921163    1.819142
     83          6           0       31.164948   -2.688810   -2.901415
     84          6           0       31.876960    2.118826   -2.729202
     85          7           0       30.771155   -0.422789    1.640622
     86          6           0       30.492080    0.622386    2.429633
     87          6           0       30.477544    0.240489    3.887295
     88          6           0       30.966336   -1.262961    3.848766
     89          6           0       30.817665   -1.572698    2.371757
     90          6           0       32.390526   -1.597765    4.399349
     91          6           0       28.977094    0.313321    4.476169
     92          6           0       28.879705    1.075175    5.838462
     93          1           0       27.337949    1.395261    6.234597
     94          7           0       30.697788   -2.475105   -0.559526
     95          6           0       30.633673   -3.339906    0.519719
     96          6           0       30.326592   -4.655910    0.030951
     97          6           0       30.394228   -4.668320   -1.422286
     98          6           0       30.653328   -3.209944   -1.731089
     99          6           0       30.164682   -5.818165    1.052365
    100          6           0       30.233791   -5.718880   -2.515217
    101          8           0       30.240062   -5.514506   -3.742594
    102          6           0       29.940277   -7.070975   -1.968401
    103          7           0       31.585664   -0.257699   -2.451147
    104          6           0       31.606556   -1.396096   -3.218518
    105          6           0       32.230757   -1.121811   -4.587209
    106          6           0       32.159912    0.426590   -4.649125
    107          6           0       31.922344    0.815068   -3.188526
    108          6           0       33.644132   -1.821540   -4.686696
    109          6           0       31.060287    1.036698   -5.618230
    110          6           0       31.312248    2.459643   -6.142008
    111          7           0       31.118089    1.618331   -0.470858
    112          6           0       31.532259    2.491938   -1.430168
    113          6           0       31.444717    3.858388   -0.966004
    114          6           0       30.980225    3.669146    0.348476
    115          6           0       30.857024    2.300676    0.628334
    116          6           0       31.752751    5.208778   -1.652845
    117          6           0       30.578899    4.388130    1.525324
    118          8           0       30.354211    5.548697    1.749353
    119          6           0       30.431204    3.260484    2.673475
    120          6           0       29.189038    3.691740    3.320096
    121          8           0       27.999987    3.466681    2.980161
    122          8           0       29.584423    4.416577    4.380820
    123          6           0       28.556478    5.030042    5.222867
    124          1           0       30.660026   -3.710258    2.566479
    125          1           0       31.209545   -3.402016   -3.727368
    126          1           0       32.112602    2.886825   -3.468868
    127          1           0       31.084476    0.870217    4.538408
    128          1           0       30.316325   -1.990436    4.335307
    129          1           0       33.017237   -1.871354    3.550554
    130          1           0       32.245453   -2.460084    5.049853
    131          1           0       32.940190   -0.823160    4.932951
    132          1           0       28.457632   -0.640546    4.575138
    133          1           0       28.368164    0.766816    3.694010
    134          1           0       29.421163    2.019607    5.788002
    135          1           0       29.234639    0.520672    6.706835
    136          1           0       29.114432   -5.869550    1.336160
    137          1           0       30.580215   -5.597543    2.036372
    138          1           0       30.673057   -6.754460    0.823321
    139          1           0       29.017036   -7.138177   -1.393981
    140          1           0       30.839420   -7.278014   -1.386794
    141          1           0       29.901853   -7.852124   -2.728157
    142          1           0       31.562070   -1.596289   -5.305543
    143          1           0       33.106748    0.813424   -5.025794
    144          1           0       34.437860   -1.076290   -4.636297
    145          1           0       33.880100   -2.399914   -5.579574
    146          1           0       33.927889   -2.473211   -3.860050
    147          1           0       30.199122    1.148496   -4.958889
    148          1           0       30.775708    0.450214   -6.492081
    149          1           0       30.580124    3.173103   -5.761541
    150          1           0       31.335608    2.633856   -7.217938
    151          1           0       32.244984    2.774569   -5.676219
    152          1           0       32.476172    4.982109   -2.436036
    153          1           0       32.159882    5.927843   -0.940776
    154          1           0       30.816830    5.543744   -2.099879
    155          1           0       31.242269    3.364929    3.394362
    156          1           0       28.549984    4.519661    6.185812
    157          1           0       27.593213    5.093964    4.717888
    158          1           0       28.876522    6.043636    5.464003
 ---------------------------------------------------------------------

 SCF Done:  E(RPBE1PBE) =  -4067.31975548     A.U. after   16 cycles

 Excitation energies and oscillator strengths:

 Excited State   1:      Singlet-A      1.8703 eV  662.91 nm  f=0.3249  <S**2>=0.000
     309 -> 315        0.19143
     311 -> 313        0.68627
 This state for optimization and/or second-order correction.
 Total Energy, E(TD-HF/TD-DFT) =  -4067.25102291
 Copying the excited state density for this state as the 1-particle RhoCI density.

 Excited State   2:      Singlet-A      1.8755 eV  661.09 nm  f=0.3866  <S**2>=0.000
     310 -> 316       -0.18970
     312 -> 314        0.68780

 Excited State   3:      Singlet-A      1.9699 eV  629.40 nm  f=0.0000  <S**2>=0.000
     312 -> 313        0.70711

 Excited State   4:      Singlet-A      2.1485 eV  577.08 nm  f=0.0000  <S**2>=0.000
     311 -> 314        0.70711

 Excited State   5:      Singlet-A      2.2322 eV  555.44 nm  f=0.0728  <S**2>=0.000
     308 -> 313       -0.10212
     309 -> 313        0.63201
     311 -> 315       -0.29400

 The electronic state is 1-A.
 Alpha  occ. eigenvalues --  -46.94134 -46.90982 -19.25509 -19.24375 -19.20329
 Alpha  occ. eigenvalues --  -19.19808 -19.19286 -19.18928 -19.18677 -19.18178
 Alpha  occ. eigenvalues --  -14.42076 -14.42059 -14.41634 -14.41280 -14.40322
 Alpha  occ. eigenvalues --  -14.39113 -14.38907 -14.38087 -10.36456 -10.35550
 Alpha  occ. eigenvalues --  -10.33022 -10.31969 -10.31835 -10.30700 -10.29924
 Alpha  occ. eigenvalues --  -10.29555 -10.29462 -10.29437 -10.29072 -10.28979
 Alpha  occ. eigenvalues --  -10.28865 -10.28783 -10.28482 -10.28221 -10.28215
 Alpha  occ. eigenvalues --  -10.28065 -10.27998 -10.27717 -10.27599 -10.27242
 Alpha  occ. eigenvalues --  -10.27146 -10.27127 -10.27019 -10.26954 -10.26674
 Alpha  occ. eigenvalues --  -10.26657 -10.26644 -10.26565 -10.26212 -10.26193
 Alpha  occ. eigenvalues --  -10.26173 -10.26118 -10.26000 -10.25963 -10.25962
 Alpha  occ. eigenvalues --  -10.25813 -10.25662 -10.25599 -10.25572 -10.25539
 Alpha  occ. eigenvalues --  -10.25502 -10.25192 -10.25067 -10.25047 -10.25045
 Alpha  occ. eigenvalues --  -10.24925 -10.24650 -10.24523 -10.24441 -10.24429
 Alpha  occ. eigenvalues --  -10.24406 -10.24126 -10.24099 -10.24097 -10.23972
 Alpha  occ. eigenvalues --  -10.23951 -10.23934 -10.23749 -10.23507 -10.23490
 Alpha  occ. eigenvalues --  -10.23370 -10.23301 -10.23252 -10.23079 -10.22831
 Alpha  occ. eigenvalues --  -10.22227  -3.16127  -3.13396  -1.88908  -1.88552
 Alpha  occ. eigenvalues --   -1.88313  -1.86223  -1.85783  -1.85635  -1.10702
 Alpha  occ. eigenvalues --   -1.08666  -1.05559  -1.05102  -1.04020  -1.03794
 Alpha  occ. eigenvalues --   -1.01179  -1.00309  -0.99843  -0.99563  -0.98982
 Alpha  occ. eigenvalues --   -0.98267  -0.98003  -0.97893  -0.97031  -0.95838
 Alpha  occ. eigenvalues --   -0.87312  -0.87098  -0.83420  -0.83250  -0.83196
 Alpha  occ. eigenvalues --   -0.82771  -0.82526  -0.82349  -0.81788  -0.81268
 Alpha  occ. eigenvalues --   -0.81166  -0.81119  -0.80615  -0.80346  -0.79233
 Alpha  occ. eigenvalues --   -0.78809  -0.78119  -0.78113  -0.77925  -0.76833
 Alpha  occ. eigenvalues --   -0.76686  -0.76454  -0.75624  -0.75529  -0.74620
 Alpha  occ. eigenvalues --   -0.74233  -0.72513  -0.72455  -0.71667  -0.71630
 Alpha  occ. eigenvalues --   -0.71315  -0.71204  -0.70232  -0.70134  -0.69731
 Alpha  occ. eigenvalues --   -0.69609  -0.67339  -0.67242  -0.66592  -0.66381
 Alpha  occ. eigenvalues --   -0.63590  -0.63502  -0.63200  -0.63041  -0.62299
 Alpha  occ. eigenvalues --   -0.62154  -0.61616  -0.61379  -0.60474  -0.60010
 Alpha  occ. eigenvalues --   -0.60000  -0.59835  -0.59472  -0.59427  -0.59007
 Alpha  occ. eigenvalues --   -0.58605  -0.56401  -0.56349  -0.54881  -0.54772
 Alpha  occ. eigenvalues --   -0.54426  -0.54370  -0.53774  -0.53755  -0.53512
 Alpha  occ. eigenvalues --   -0.53259  -0.52622  -0.51850  -0.51556  -0.51545
 Alpha  occ. eigenvalues --   -0.51215  -0.50902  -0.50389  -0.50273  -0.50039
 Alpha  occ. eigenvalues --   -0.49353  -0.48874  -0.48733  -0.48486  -0.48424
 Alpha  occ. eigenvalues --   -0.48298  -0.48116  -0.47929  -0.47849  -0.47660
 Alpha  occ. eigenvalues --   -0.47468  -0.47452  -0.47116  -0.47089  -0.46762
 Alpha  occ. eigenvalues --   -0.46597  -0.46408  -0.46221  -0.45947  -0.45910
 Alpha  occ. eigenvalues --   -0.45592  -0.45585  -0.45240  -0.45217  -0.45032
 Alpha  occ. eigenvalues --   -0.44757  -0.44566  -0.44512  -0.44493  -0.44057
 Alpha  occ. eigenvalues --   -0.44021  -0.43870  -0.43714  -0.43621  -0.43512
 Alpha  occ. eigenvalues --   -0.43302  -0.43073  -0.43034  -0.42847  -0.42702
 Alpha  occ. eigenvalues --   -0.42632  -0.42631  -0.42404  -0.42115  -0.41960
 Alpha  occ. eigenvalues --   -0.41867  -0.41588  -0.41461  -0.41195  -0.41136
 Alpha  occ. eigenvalues --   -0.41095  -0.40909  -0.40603  -0.40595  -0.40472
 Alpha  occ. eigenvalues --   -0.40265  -0.40157  -0.39938  -0.39747  -0.39643
 Alpha  occ. eigenvalues --   -0.39493  -0.39271  -0.39146  -0.38935  -0.38908
 Alpha  occ. eigenvalues --   -0.38727  -0.38574  -0.38479  -0.38386  -0.38275
 Alpha  occ. eigenvalues --   -0.38047  -0.37928  -0.37701  -0.37649  -0.37419
 Alpha  occ. eigenvalues --   -0.37409  -0.37359  -0.37144  -0.37035  -0.36858
 Alpha  occ. eigenvalues --   -0.36843  -0.36736  -0.36678  -0.36364  -0.36224
 Alpha  occ. eigenvalues --   -0.36165  -0.36008  -0.35686  -0.35513  -0.35193
 Alpha  occ. eigenvalues --   -0.35182  -0.35060  -0.34840  -0.34510  -0.34259
 Alpha  occ. eigenvalues --   -0.33802  -0.33672  -0.32880  -0.32823  -0.32557
 Alpha  occ. eigenvalues --   -0.32432  -0.32162  -0.32010  -0.31347  -0.30468
 Alpha  occ. eigenvalues --   -0.30349  -0.30256  -0.29668  -0.29449  -0.29224
 Alpha  occ. eigenvalues --   -0.29174  -0.28410  -0.27862  -0.27108  -0.26974
 Alpha  occ. eigenvalues --   -0.26653  -0.26398  -0.26074  -0.25963  -0.25565
 Alpha  occ. eigenvalues --   -0.25203  -0.25165  -0.24434  -0.21381  -0.21102
 Alpha  occ. eigenvalues --   -0.19108  -0.18783
 Alpha virt. eigenvalues --   -0.11330  -0.10999  -0.06109  -0.05736  -0.04460
 Alpha virt. eigenvalues --   -0.04374  -0.02417  -0.02151  -0.01942   0.00095
 Alpha virt. eigenvalues --    0.00141   0.00181   0.00851   0.00965   0.01381

 Mulliken charges:
               1
     1  Mg  12.003223
     2  C    5.985026
     3  C    5.999341
     4  C    6.028433
     5  C    5.988959
     6  N    6.990244
     7  C    6.027165
     8  C    5.994685
     9  C    6.004031
    10  C    5.973805
    11  C    6.006885
    12  C    5.998451
    13  C    5.998708
    14  H    1.008090
    15  N    7.007451
    16  C    5.966499
    17  C    5.975156
    18  C    5.997075
    19  C    5.962928
    20  C    6.000908
    21  C    5.987109
    22  O    7.983289
    23  C    6.003849
    24  N    7.000933
    25  C    5.962282
    26  C    6.010475
    27  C    5.994669
    28  C    6.032564
    29  C    6.000665
    30  C    5.996918
    31  C    6.001234
    32  N    6.996647
    33  C    6.027486
    34  C    6.036559
    35  C    5.993154
    36  C    6.037809
    37  C    5.999371
    38  C    6.016658
    39  O    8.027795
    40  C    5.998202
    41  C    6.003704
    42  O    8.009132
    43  O    7.996490
    44  C    5.998629
    45  H    0.988426
    46  H    0.993791
    47  H    1.008293
    48  H    0.998940
    49  H    0.999856
    50  H    0.994206
    51  H    0.986890
    52  H    1.002814
    53  H    1.008169
    54  H    0.993123
    55  H    0.997387
    56  H    0.999143
    57  H    0.986226
    58  H    0.983599
    59  H    0.985327
    60  H    0.991922
    61  H    0.989964
    62  H    0.989449
    63  H    0.996454
    64  H    0.997436
    65  H    0.989921
    66  H    0.999572
    67  H    1.003004
    68  H    0.993369
    69  H    1.008891
    70  H    1.004365
    71  H    0.998955
    72  H    1.005312
    73  H    1.019443
    74  H    1.019793
    75  H    1.013398
    76  H    1.007346
    77  H    1.004174
    78  H    1.006357
    79  H    1.002001
    80  Mg  12.000038
    81  C    5.999538
    82  C    6.000316
    83  C    6.000255
    84  C    5.999607
    85  N    6.999889
    86  C    6.000869
    87  C    5.999690
    88  C    6.000178
    89  C    5.999166
    90  C    6.000048
    91  C    5.999950
    92  C    5.999968
    93  H    1.000080
    94  N    7.000108
    95  C    5.999265
    96  C    5.999511
    97  C    5.999501
    98  C    5.999507
    99  C    6.000102
   100  C    5.999654
   101  O    7.999240
   102  C    6.000146
   103  N    6.999872
   104  C    5.999421
   105  C    6.000141
   106  C    5.999816
   107  C    6.000802
   108  C    6.000124
   109  C    5.999940
   110  C    5.999986
   111  N    6.999983
   112  C    6.000798
   113  C    6.000716
   114  C    5.999963
   115  C    6.000766
   116  C    6.000003
   117  C    6.000403
   118  O    8.000685
   119  C    6.000064
   120  C    6.000070
   121  O    8.000188
   122  O    8.000005
   123  C    5.999934
   124  H    0.999797
   125  H    0.999860
   126  H    1.000206
   127  H    1.000037
   128  H    1.000045
   129  H    1.000011
   130  H    0.999961
   131  H    0.999697
   132  H    1.000283
   133  H    0.999933
   134  H    0.999895
   135  H    1.000121
   136  H    0.999550
   137  H    0.999579
   138  H    0.999621
   139  H    0.999791
   140  H    0.999855
   141  H    0.999635
   142  H    1.000049
   143  H    1.000091
   144  H    0.999720
   145  H    0.999948
   146  H    1.000120
   147  H    1.000030
   148  H    1.000270
   149  H    0.999937
   150  H    1.000131
   151  H    0.999936
   152  H    1.000361
   153  H    1.000325
   154  H    1.000425
   155  H    1.000178
   156  H    1.000150
   157  H    1.000072
   158  H    1.000076
 Sum of Mulliken charges = 624.00000

 Dipole moment (field-independent basis, Debye):
    X=             -1.1150    Y=             -9.1253    Z=              2.6656  Tot=              9.5718
 Quadrupole moment (field-independent basis, Debye-Ang):
   XX=             72.1741   YY=             -6.5815   ZZ=              0.8962
   XY=            297.9972   XZ=            -82.2116   YZ=              0.8863

 Normal termination of Gaussian 16 at Fri Oct 15 07:56:46 2021.
