 Gaussian 16, Revision A.03,
 Gaussian 16:  ES64L-G16RevA.03 25-Dec-2016

 --------------------------------------------------------
 #p PBE1PBE/Def2SVP td=(nstates=5) density=(transition=1)
 --------------------------------------------------------

 --------------------------------
 TDDFT excited states in gaussian
 --------------------------------
 Symbolic Z-matrix:
 Charge =  0 Multiplicity = 1

                         Standard orientation:
 ---------------------------------------------------------------------
 Center     Atomic      Atomic             Coordinates (Angstroms)
 Number     Number       Type             X           Y           Z
 ---------------------------------------------------------------------
      1         12           0      -29.026284   -0.393436    0.604697
      2          6           0      -28.520318    2.330394   -1.685126
      3          6           0      -28.532244   -2.532742   -2.179218
      4          6           0      -29.619413   -3.181343    2.622638
      5          6           0      -29.861179    1.713396    3.059185
      6          7           0      -28.769268   -0.050682   -1.777918
      7          6           0      -28.481384    1.119391   -2.387308
      8          6           0      -28.293060    0.887394   -3.929675
      9          6           0      -28.527313   -0.663222   -4.015469
     10          6           0      -28.538223   -1.161297   -2.552001
     11          6           0      -29.827663   -1.026652   -4.813953
     12          6           0      -26.915995    1.307700   -4.442808
     13          6           0      -26.894140    2.067626   -5.728357
     14          1           0      -25.552276    2.605001   -6.246552
     15          7           0      -28.877295   -2.514982    0.357722
     16          6           0      -28.677248   -3.160960   -0.857731
     17          6           0      -28.643003   -4.588366   -0.608072
     18          6           0      -28.843857   -4.812239    0.743929
     19          6           0      -29.209626   -3.468493    1.306021
     20          6           0      -28.559804   -5.641570   -1.675287
     21          6           0      -28.928458   -6.156055    1.577244
     22          8           0      -29.110328   -6.277402    2.763967
     23          6           0      -28.589207   -7.458230    0.884789
     24          7           0      -29.775235   -0.725096    2.456491
     25          6           0      -29.950408   -1.904611    3.132100
     26          6           0      -30.685227   -1.703734    4.478035
     27          6           0      -30.535310   -0.142133    4.723591
     28          6           0      -29.986773    0.311183    3.317082
     29          6           0      -32.150858   -2.244274    4.460662
     30          6           0      -29.581101    0.240277    5.895715
     31          6           0      -28.101940   -0.066072    5.672011
     32          7           0      -29.209280    1.567796    0.735154
     33          6           0      -29.509994    2.367676    1.872720
     34          6           0      -29.485372    3.786446    1.523854
     35          6           0      -29.057343    3.802026    0.184208
     36          6           0      -28.887869    2.463384   -0.258329
     37          6           0      -29.775466    4.897897    2.421925
     38          6           0      -28.752474    4.729714   -0.900296
     39          8           0      -28.723677    5.948977   -0.893184
     40          6           0      -28.471077    3.813389   -2.209386
     41          6           0      -27.104226    4.367105   -2.619033
     42          8           0      -26.003937    4.199108   -2.062915
     43          8           0      -27.261027    5.148767   -3.673174
     44          6           0      -26.037600    5.597041   -4.454328
     45          1           0      -28.305142   -3.181245   -3.027578
     46          1           0      -29.831647   -3.990067    3.326291
     47          1           0      -30.072042    2.344643    3.924590
     48          1           0      -29.021192    1.554684   -4.389584
     49          1           0      -27.684895   -1.172396   -4.485549
     50          1           0      -29.697184   -1.707756   -5.654887
     51          1           0      -30.444175   -0.166153   -5.074551
     52          1           0      -30.555954   -1.645315   -4.289116
     53          1           0      -26.547945    0.362368   -4.841932
     54          1           0      -26.262599    1.689628   -3.657617
     55          1           0      -27.578213    2.904443   -5.878395
     56          1           0      -27.204643    1.318900   -6.457205
     57          1           0      -28.346183   -5.203547   -2.649938
     58          1           0      -29.452094   -6.259246   -1.788513
     59          1           0      -27.758798   -6.371285   -1.555807
     60          1           0      -27.572368   -7.467418    0.492442
     61          1           0      -29.373048   -7.510384    0.129094
     62          1           0      -28.846598   -8.209126    1.631809
     63          1           0      -30.155332   -2.369114    5.160547
     64          1           0      -31.445058    0.458351    4.704433
     65          1           0      -32.282605   -3.121974    5.093369
     66          1           0      -32.620273   -2.428428    3.494944
     67          1           0      -32.689326   -1.386844    4.864757
     68          1           0      -30.056176   -0.084901    6.821382
     69          1           0      -29.615146    1.324803    5.997964
     70          1           0      -27.862302   -0.622405    4.766558
     71          1           0      -27.804529   -0.689644    6.514737
     72          1           0      -27.457834    0.797871    5.512298
     73          1           0      -29.710399    5.886900    1.967889
     74          1           0      -29.048524    4.804045    3.228580
     75          1           0      -30.767498    4.728105    2.842829
     76          1           0      -29.124051    4.070808   -3.043309
     77          1           0      -26.413858    5.935521   -5.419961
     78          1           0      -25.354532    4.778516   -4.679303
     79          1           0      -25.445240    6.353477   -3.938222
     80         12           0       29.398987    0.507372   -0.213382
     81          6           0       26.820685   -1.674579   -1.183766
     82          6           0       27.029745    2.929294    0.372399
     83          6           0       31.756698    2.197527    1.377254
     84          6           0       31.709833   -2.161259   -0.608653
     85          7           0       27.191029    0.518945   -0.146391
     86          6           0       26.310086   -0.498599   -0.595445
     87          6           0       24.940328   -0.008347   -0.826615
     88          6           0       25.055650    1.520693   -0.407638
     89          6           0       26.527316    1.695698   -0.067557
     90          6           0       24.461342    2.474911   -1.471726
     91          6           0       23.895633   -0.633119    0.046997
     92          6           0       24.301205   -0.943744    1.495508
     93          1           0       23.274512   -0.800910    2.685755
     94          7           0       29.437712    2.356054    0.734401
     95          6           0       28.400577    3.215083    0.743289
     96          6           0       28.848037    4.463000    1.309368
     97          6           0       30.236954    4.315696    1.546557
     98          6           0       30.565344    2.924782    1.195034
     99          6           0       27.982586    5.657068    1.610140
    100          6           0       31.171650    5.404305    2.073131
    101          8           0       30.753408    6.513238    2.342956
    102          6           0       32.621316    5.265579    2.432791
    103          7           0       31.353478   -0.002751    0.538140
    104          6           0       32.173866    0.915420    1.137541
    105          6           0       33.652215    0.408304    1.199249
    106          6           0       33.494274   -1.098537    0.833024
    107          6           0       32.119761   -1.094612    0.200645
    108          6           0       34.636857    1.107727    0.231261
    109          6           0       33.367172   -2.112633    2.065851
    110          6           0       34.194976   -3.345163    2.008771
    111          7           0       29.368828   -1.413039   -0.847221
    112          6           0       30.376531   -2.253643   -1.117658
    113          6           0       29.901826   -3.352641   -2.040554
    114          6           0       28.496077   -3.093086   -2.110874
    115          6           0       28.204534   -1.994813   -1.253277
    116          6           0       30.668102   -4.488901   -2.702369
    117          6           0       27.264609   -3.654988   -2.585703
    118          8           0       27.049469   -4.671598   -3.226613
    119          6           0       26.122518   -2.720018   -2.016366
    120          6           0       25.327181   -3.547851   -1.028312
    121          8           0       25.683117   -3.957971    0.026723
    122          8           0       24.041161   -3.663369   -1.511563
    123          6           0       23.087880   -4.190516   -0.529882
    124          1           0       26.305236    3.746071    0.366268
    125          1           0       32.590348    2.802384    1.737888
    126          1           0       32.502860   -2.879193   -0.827992
    127          1           0       24.695518   -0.195556   -1.872134
    128          1           0       24.626057    1.785915    0.558335
    129          1           0       23.843200    3.112420   -0.839350
    130          1           0       23.896354    1.858108   -2.170707
    131          1           0       25.213705    3.101802   -1.950740
    132          1           0       23.370124   -1.466925   -0.419280
    133          1           0       23.009933   -0.018540    0.209517
    134          1           0       25.171224   -0.313000    1.681198
    135          1           0       24.674755   -1.964352    1.410480
    136          1           0       28.190503    6.050551    2.605701
    137          1           0       26.933727    5.400006    1.462603
    138          1           0       28.282281    6.393129    0.863768
    139          1           0       32.833559    4.617239    3.282304
    140          1           0       32.836091    6.264002    2.814039
    141          1           0       33.273250    5.177716    1.563018
    142          1           0       34.014531    0.569035    2.214547
    143          1           0       34.242745   -1.453018    0.123867
    144          1           0       34.946144    0.388386   -0.526807
    145          1           0       35.397694    1.674802    0.767345
    146          1           0       34.096411    1.885131   -0.307609
    147          1           0       32.327159   -2.386557    2.241660
    148          1           0       33.680592   -1.516290    2.922902
    149          1           0       34.842533   -3.464443    2.877168
    150          1           0       34.801313   -3.421252    1.105887
    151          1           0       33.580658   -4.245133    2.014923
    152          1           0       30.202526   -5.413050   -2.359854
    153          1           0       31.730283   -4.325172   -2.516396
    154          1           0       30.425019   -4.422479   -3.762763
    155          1           0       25.489527   -2.312945   -2.804538
    156          1           0       23.350752   -3.938775    0.497462
    157          1           0       23.139667   -5.268581   -0.682504
    158          1           0       22.102036   -3.898765   -0.890933
 ---------------------------------------------------------------------

 SCF Done:  E(RPBE1PBE) =  -4067.35260900     A.U. after   16 cycles

 Excitation energies and oscillator strengths:

 Excited State   1:      Singlet-A      1.8203 eV  681.13 nm  f=0.3455  <S**2>=0.000
     310 -> 315        0.17686
     312 -> 314        0.69227
     312 <- 314       -0.10909
 This state for optimization and/or second-order correction.
 Total Energy, E(TD-HF/TD-DFT) =  -4067.28571485
 Copying the excited state density for this state as the 1-particle RhoCI density.

 Excited State   2:      Singlet-A      1.8294 eV  677.74 nm  f=0.3737  <S**2>=0.000
     309 -> 316        0.16659
     311 -> 313        0.69530
     311 <- 313       -0.11480

 Excited State   3:      Singlet-A      1.9543 eV  634.43 nm  f=0.0000  <S**2>=0.000
     312 -> 313        0.70711

 Excited State   4:      Singlet-A      1.9900 eV  623.05 nm  f=0.0000  <S**2>=0.000
     311 -> 314        0.70711

 Excited State   5:      Singlet-A      2.2320 eV  555.49 nm  f=0.0924  <S**2>=0.000
     310 -> 314        0.63929
     312 -> 315       -0.29197

 The electronic state is 1-A.
 Alpha  occ. eigenvalues --  -46.91957 -46.91710 -19.25576 -19.25252 -19.20584
 Alpha  occ. eigenvalues --  -19.19651 -19.19626 -19.19353 -19.18418 -19.18270
 Alpha  occ. eigenvalues --  -14.41960 -14.41877 -14.41405 -14.41111 -14.39728
 Alpha  occ. eigenvalues --  -14.39413 -14.39243 -14.39114 -10.36232 -10.35512
 Alpha  occ. eigenvalues --  -10.32683 -10.32604 -10.32131 -10.31720 -10.29425
 Alpha  occ. eigenvalues --  -10.29232 -10.29085 -10.28992 -10.28982 -10.28818
 Alpha  occ. eigenvalues --  -10.28678 -10.28658 -10.28609 -10.28484 -10.28432
 Alpha  occ. eigenvalues --  -10.28346 -10.28285 -10.28061 -10.27831 -10.27674
 Alpha  occ. eigenvalues --  -10.27580 -10.27068 -10.26666 -10.26549 -10.26483
 Alpha  occ. eigenvalues --  -10.26411 -10.26323 -10.26298 -10.26234 -10.26213
 Alpha  occ. eigenvalues --  -10.26199 -10.26140 -10.26112 -10.25984 -10.25946
 Alpha  occ. eigenvalues --  -10.25929 -10.25928 -10.25842 -10.25789 -10.25634
 Alpha  occ. eigenvalues --  -10.25346 -10.25169 -10.25056 -10.24916 -10.24714
 Alpha  occ. eigenvalues --  -10.24488 -10.24439 -10.24264 -10.24211 -10.24116
 Alpha  occ. eigenvalues --  -10.24075 -10.24049 -10.24036 -10.23961 -10.23692
 Alpha  occ. eigenvalues --  -10.23654 -10.23590 -10.23569 -10.23467 -10.23211
 Alpha  occ. eigenvalues --  -10.22960 -10.22907 -10.22891 -10.22817 -10.22791
 Alpha  occ. eigenvalues --  -10.22773  -3.14179  -3.13977  -1.86980  -1.86803
 Alpha  occ. eigenvalues --   -1.86558  -1.86420  -1.86369  -1.86206  -1.11987
 Alpha  occ. eigenvalues --   -1.10734  -1.06142  -1.05111  -1.04821  -1.04697
 Alpha  occ. eigenvalues --   -1.03773  -1.00097  -0.99206  -0.98675  -0.98383
 Alpha  occ. eigenvalues --   -0.97905  -0.97735  -0.97254  -0.96859  -0.96373
 Alpha  occ. eigenvalues --   -0.87531  -0.85212  -0.84137  -0.83732  -0.83481
 Alpha  occ. eigenvalues --   -0.83016  -0.82692  -0.82283  -0.81835  -0.81704
 Alpha  occ. eigenvalues --   -0.81234  -0.80751  -0.80628  -0.80101  -0.79000
 Alpha  occ. eigenvalues --   -0.78454  -0.78385  -0.77856  -0.76989  -0.76632
 Alpha  occ. eigenvalues --   -0.75885  -0.75651  -0.75327  -0.75148  -0.74799
 Alpha  occ. eigenvalues --   -0.74493  -0.72419  -0.72285  -0.71789  -0.71608
 Alpha  occ. eigenvalues --   -0.71244  -0.71124  -0.70348  -0.70271  -0.69499
 Alpha  occ. eigenvalues --   -0.69478  -0.67162  -0.67051  -0.66083  -0.66081
 Alpha  occ. eigenvalues --   -0.64403  -0.63930  -0.63281  -0.63159  -0.63023
 Alpha  occ. eigenvalues --   -0.61961  -0.61516  -0.60651  -0.60286  -0.59884
 Alpha  occ. eigenvalues --   -0.59617  -0.59613  -0.59133  -0.59053  -0.58893
 Alpha  occ. eigenvalues --   -0.58647  -0.56648  -0.56394  -0.54509  -0.54107
 Alpha  occ. eigenvalues --   -0.54068  -0.53918  -0.53513  -0.53478  -0.53398
 Alpha  occ. eigenvalues --   -0.52682  -0.52385  -0.52001  -0.51960  -0.51104
 Alpha  occ. eigenvalues --   -0.50640  -0.50525  -0.50272  -0.49991  -0.49959
 Alpha  occ. eigenvalues --   -0.49660  -0.49629  -0.49188  -0.49149  -0.48678
 Alpha  occ. eigenvalues --   -0.48501  -0.47805  -0.47731  -0.47605  -0.47559
 Alpha  occ. eigenvalues --   -0.47526  -0.47257  -0.46955  -0.46880  -0.46763
 Alpha  occ. eigenvalues --   -0.46636  -0.46613  -0.46251  -0.46197  -0.45936
 Alpha  occ. eigenvalues --   -0.45766  -0.45569  -0.45526  -0.45457  -0.44712
 Alpha  occ. eigenvalues --   -0.44611  -0.44384  -0.44219  -0.44201  -0.43988
 Alpha  occ. eigenvalues --   -0.43930  -0.43874  -0.43841  -0.43558  -0.43515
 Alpha  occ. eigenvalues --   -0.43416  -0.43215  -0.43189  -0.43069  -0.43064
 Alpha  occ. eigenvalues --   -0.42740  -0.42236  -0.42219  -0.42149  -0.41880
 Alpha  occ. eigenvalues --   -0.41798  -0.41594  -0.41497  -0.41447  -0.41347
 Alpha  occ. eigenvalues --   -0.41093  -0.41059  -0.40913  -0.40687  -0.40592
 Alpha  occ. eigenvalues --   -0.40565  -0.40294  -0.40240  -0.39965  -0.39899
 Alpha  occ. eigenvalues --   -0.39698  -0.39471  -0.39220  -0.39157  -0.38998
 Alpha  occ. eigenvalues --   -0.38835  -0.38815  -0.38691  -0.38413  -0.38408
 Alpha  occ. eigenvalues --   -0.38247  -0.38025  -0.37935  -0.37871  -0.37767
 Alpha  occ. eigenvalues --   -0.37648  -0.37368  -0.37224  -0.37162  -0.37031
 Alpha  occ. eigenvalues --   -0.36996  -0.36968  -0.36728  -0.36711  -0.36229
 Alpha  occ. eigenvalues --   -0.36059  -0.35729  -0.35647  -0.35263  -0.35262
 Alpha  occ. eigenvalues --   -0.35138  -0.34784  -0.34541  -0.34027  -0.34022
 Alpha  occ. eigenvalues --   -0.33561  -0.33414  -0.33055  -0.32828  -0.32527
 Alpha  occ. eigenvalues --   -0.32243  -0.32082  -0.31721  -0.31446  -0.31078
 Alpha  occ. eigenvalues --   -0.30735  -0.30659  -0.29899  -0.29402  -0.29108
 Alpha  occ. eigenvalues --   -0.28670  -0.28659  -0.27628  -0.26991  -0.26915
 Alpha  occ. eigenvalues --   -0.26080  -0.26079  -0.25842  -0.25680  -0.25521
 Alpha  occ. eigenvalues --   -0.25497  -0.25242  -0.25123  -0.21218  -0.21040
 Alpha  occ. eigenvalues --   -0.18695  -0.18637
 Alpha virt. eigenvalues --   -0.11229  -0.11156  -0.05495  -0.05310  -0.03993
 Alpha virt. eigenvalues --   -0.03592  -0.02055  -0.01898  -0.01316   0.00604
 Alpha virt. eigenvalues --    0.00862   0.00891   0.01023   0.01360   0.01417

 Mulliken charges:
               1
     1  Mg  12.000216
     2  C    5.983190
     3  C    6.014740
     4  C    6.020968
     5  C    5.999233
     6  N    6.990810
     7  C    6.026087
     8  C    5.995417
     9  C    6.005725
    10  C    5.970005
    11  C    6.001936
    12  C    5.994997
    13  C    5.998376
    14  H    1.000107
    15  N    7.004514
    16  C    5.958476
    17  C    5.984369
    18  C    5.983071
    19  C    5.965820
    20  C    6.005322
    21  C    5.987345
    22  O    7.974674
    23  C    6.003084
    24  N    7.011195
    25  C    5.962763
    26  C    6.006173
    27  C    5.996121
    28  C    6.031180
    29  C    6.004459
    30  C    5.995130
    31  C    5.994513
    32  N    6.997686
    33  C    6.032529
    34  C    6.028561
    35  C    6.002225
    36  C    6.029788
    37  C    5.999450
    38  C    6.015659
    39  O    8.026818
    40  C    6.002008
    41  C    6.003617
    42  O    8.004923
    43  O    8.000299
    44  C    5.998088
    45  H    0.989876
    46  H    0.993729
    47  H    1.011724
    48  H    0.996361
    49  H    1.001287
    50  H    0.997459
    51  H    0.988276
    52  H    1.002341
    53  H    1.008524
    54  H    0.996465
    55  H    0.996749
    56  H    1.005261
    57  H    0.983956
    58  H    0.981454
    59  H    0.982646
    60  H    0.992777
    61  H    0.995269
    62  H    0.986909
    63  H    1.002785
    64  H    0.997833
    65  H    1.000546
    66  H    1.001558
    67  H    0.987866
    68  H    1.009503
    69  H    0.996062
    70  H    1.010265
    71  H    1.007827
    72  H    0.996172
    73  H    1.013457
    74  H    1.017031
    75  H    1.017035
    76  H    1.008460
    77  H    1.004318
    78  H    1.005043
    79  H    1.001506
    80  Mg  11.999986
    81  C    5.999464
    82  C    6.000106
    83  C    6.000417
    84  C    5.999853
    85  N    6.999874
    86  C    6.000721
    87  C    5.999750
    88  C    6.000135
    89  C    5.999526
    90  C    6.000045
    91  C    5.999946
    92  C    5.999897
    93  H    1.000148
    94  N    7.000098
    95  C    5.999369
    96  C    5.999587
    97  C    5.999946
    98  C    5.999231
    99  C    6.000059
   100  C    5.999801
   101  O    7.999669
   102  C    6.000080
   103  N    7.000017
   104  C    5.999403
   105  C    6.000124
   106  C    5.999906
   107  C    6.000436
   108  C    5.999993
   109  C    5.999870
   110  C    5.999986
   111  N    6.999993
   112  C    6.000587
   113  C    6.000663
   114  C    5.999933
   115  C    6.000674
   116  C    5.999963
   117  C    6.000270
   118  O    8.000448
   119  C    6.000046
   120  C    6.000054
   121  O    8.000062
   122  O    8.000025
   123  C    5.999980
   124  H    0.999774
   125  H    0.999848
   126  H    1.000201
   127  H    1.000028
   128  H    1.000029
   129  H    0.999986
   130  H    0.999788
   131  H    1.000023
   132  H    0.999953
   133  H    1.000142
   134  H    1.000162
   135  H    0.999894
   136  H    0.999710
   137  H    0.999700
   138  H    0.999680
   139  H    0.999819
   140  H    0.999801
   141  H    0.999805
   142  H    1.000004
   143  H    1.000003
   144  H    0.999800
   145  H    0.999997
   146  H    1.000075
   147  H    0.999992
   148  H    1.000243
   149  H    1.000096
   150  H    1.000012
   151  H    0.999959
   152  H    1.000332
   153  H    1.000299
   154  H    1.000334
   155  H    1.000173
   156  H    1.000065
   157  H    1.000042
   158  H    1.000092
 Sum of Mulliken charges = 624.00000

 Dipole moment (field-independent basis, Debye):
    X=             -0.3275    Y=              9.8853    Z=              1.5053  Tot=             10.0046
 Quadrupole moment (field-independent basis, Debye-Ang):
   XX=             18.4950   YY=            -10.2230   ZZ=              3.2807
   XY=           -295.9329   XZ=            -49.0318   YZ=              3.8541

 Normal termination of Gaussian 16 at Thu Oct 14 13:46:01 2021.
