 Gaussian 16, Revision A.03,
 Gaussian 16:  ES64L-G16RevA.03 25-Dec-2016

 --------------------------------------------------------
 #p PBE1PBE/Def2SVP td=(nstates=5) density=(transition=1)
 --------------------------------------------------------

 --------------------------------
 TDDFT excited states in gaussian
 --------------------------------
 Symbolic Z-matrix:
 Charge =  0 Multiplicity = 1

                         Standard orientation:
 ---------------------------------------------------------------------
 Center     Atomic      Atomic             Coordinates (Angstroms)
 Number     Number       Type             X           Y           Z
 ---------------------------------------------------------------------
      1         12           0      -10.573307    0.324014    0.251745
      2          6           0       -8.177035    0.487338   -2.313680
      3          6           0      -11.026245   -3.004247   -0.482878
      4          6           0      -12.208714    0.082528    3.117522
      5          6           0       -9.818873    3.696259    1.074324
      6          7           0       -9.523484   -1.124868   -1.043752
      7          6           0       -8.553969   -0.844319   -2.040967
      8          6           0       -8.393369   -1.943848   -3.008061
      9          6           0       -9.406325   -3.033754   -2.448750
     10          6           0      -10.065703   -2.345051   -1.264271
     11          6           0      -10.342306   -3.594140   -3.546897
     12          6           0       -7.031349   -2.567937   -3.026451
     13          6           0       -6.314950   -2.704004   -1.674630
     14          1           0       -5.393656   -3.944607   -1.353211
     15          7           0      -11.546813   -1.240090    1.212619
     16          6           0      -11.707992   -2.464614    0.675755
     17          6           0      -12.595343   -3.220278    1.524013
     18          6           0      -13.020752   -2.333243    2.543447
     19          6           0      -12.287234   -1.076557    2.322674
     20          6           0      -12.953954   -4.672342    1.356159
     21          6           0      -14.032984   -2.657389    3.641774
     22          8           0      -14.549831   -3.755166    3.714012
     23          6           0      -14.436415   -1.787500    4.795320
     24          7           0      -10.750050    1.596337    1.982353
     25          6           0      -11.546800    1.279448    3.050121
     26          6           0      -11.823697    2.529293    3.948847
     27          6           0      -10.783221    3.555776    3.407207
     28          6           0      -10.439390    2.933796    2.071495
     29          6           0      -13.257787    3.105447    3.864309
     30          6           0       -9.388202    3.623495    4.190626
     31          6           0       -8.870201    4.975930    4.522647
     32          7           0       -9.404286    1.810684   -0.465084
     33          6           0       -9.364439    3.112233   -0.149489
     34          6           0       -8.741986    3.901013   -1.278761
     35          6           0       -8.316131    2.861661   -2.165801
     36          6           0       -8.611687    1.609635   -1.556088
     37          6           0       -8.548034    5.400932   -1.448735
     38          6           0       -7.539111    2.633069   -3.349733
     39          8           0       -6.969002    3.418414   -4.090512
     40          6           0       -7.449169    1.061100   -3.503054
     41          6           0       -5.997027    0.681115   -3.300534
     42          8           0       -5.364709    0.739946   -2.298186
     43          8           0       -5.535219    0.131741   -4.477669
     44          6           0       -4.239327   -0.541637   -4.345183
     45          1           0      -11.307997   -3.995019   -0.844906
     46          1           0      -12.885886    0.075628    3.973250
     47          1           0       -9.747984    4.759778    1.311669
     48          1           0       -8.622439   -1.548291   -3.997581
     49          1           0       -8.959089   -3.878909   -1.925597
     50          1           0      -10.242631   -4.663810   -3.361722
     51          1           0       -9.937848   -3.268001   -4.505165
     52          1           0      -11.387133   -3.321263   -3.397324
     53          1           0       -6.373810   -2.171793   -3.800737
     54          1           0       -7.007465   -3.600385   -3.375830
     55          1           0       -7.109595   -2.632284   -0.931228
     56          1           0       -5.758342   -1.768265   -1.619938
     57          1           0      -12.886441   -5.204624    2.305537
     58          1           0      -12.340273   -5.116502    0.572533
     59          1           0      -13.994286   -4.649862    1.030770
     60          1           0      -13.652725   -1.581556    5.523662
     61          1           0      -15.112893   -2.454255    5.330242
     62          1           0      -15.076349   -0.954588    4.502087
     63          1           0      -11.643336    2.238594    4.983691
     64          1           0      -11.192590    4.557102    3.271069
     65          1           0      -13.210215    4.082205    3.383208
     66          1           0      -13.791321    3.004089    4.809243
     67          1           0      -13.842224    2.477651    3.192650
     68          1           0       -8.616170    3.062641    3.664337
     69          1           0       -9.586948    3.084379    5.117042
     70          1           0       -8.679408    5.109916    5.587221
     71          1           0       -9.513130    5.785664    4.176805
     72          1           0       -7.902632    5.163356    4.057831
     73          1           0       -7.475670    5.560618   -1.561275
     74          1           0       -9.079714    5.898272   -0.636583
     75          1           0       -8.976106    5.639336   -2.422312
     76          1           0       -7.826661    0.716839   -4.465646
     77          1           0       -4.075756   -0.959963   -3.352128
     78          1           0       -3.520946    0.253178   -4.546170
     79          1           0       -4.167816   -1.213148   -5.200358
     80         12           0       10.160583    0.147859    0.641802
     81          6           0        7.751363   -1.333855   -1.482954
     82          6           0        9.847028    2.884301   -1.143347
     83          6           0       13.065299    1.035607    1.948153
     84          6           0       10.733136   -3.136551    1.871925
     85          7           0        8.741371    0.683383   -1.040615
     86          6           0        7.838301    0.022871   -1.668692
     87          6           0        6.979492    0.959642   -2.542991
     88          6           0        7.959351    2.215209   -2.797863
     89          6           0        8.985159    1.897720   -1.631631
     90          6           0        8.644448    2.300341   -4.218983
     91          6           0        5.668165    1.454269   -1.736362
     92          6           0        4.330453    1.735731   -2.494277
     93          1           0        4.464684    2.203343   -3.990330
     94          7           0       11.201106    1.829554    0.595449
     95          6           0       10.842003    2.906023   -0.201676
     96          6           0       11.835624    4.013632    0.026732
     97          6           0       12.776564    3.453129    0.988154
     98          6           0       12.442319    2.052869    1.262011
     99          6           0       11.735063    5.328039   -0.724026
    100          6           0       13.943526    4.162983    1.638580
    101          8           0       14.744074    3.631122    2.420276
    102          6           0       14.139744    5.599111    1.365599
    103          7           0       11.685436   -0.913912    1.882613
    104          6           0       12.796136   -0.285524    2.222997
    105          6           0       13.568080   -1.110773    3.346172
    106          6           0       12.760612   -2.517451    3.266565
    107          6           0       11.629529   -2.159268    2.306343
    108          6           0       15.113225   -1.200011    3.117805
    109          6           0       12.213902   -3.127170    4.599007
    110          6           0       12.861242   -4.397932    5.086398
    111          7           0        9.281290   -1.843968    0.465714
    112          6           0        9.658966   -3.038015    1.047093
    113          6           0        8.900851   -4.092781    0.516148
    114          6           0        8.167985   -3.469323   -0.511469
    115          6           0        8.428026   -2.120077   -0.556420
    116          6           0        8.937759   -5.492557    0.874571
    117          6           0        7.169365   -3.765510   -1.463943
    118          8           0        6.476193   -4.775226   -1.764221
    119          6           0        7.055800   -2.428272   -2.325292
    120          6           0        5.634511   -2.138572   -2.642083
    121          8           0        4.722662   -1.884244   -1.857881
    122          8           0        5.523217   -2.091696   -4.067566
    123          6           0        4.191512   -1.826325   -4.626602
    124          1           0        9.609547    3.809955   -1.672567
    125          1           0       13.991600    1.365400    2.421829
    126          1           0       10.862998   -4.127595    2.313235
    127          1           0        6.912054    0.500508   -3.528929
    128          1           0        7.361400    3.125173   -2.761189
    129          1           0        8.539049    1.371032   -4.778368
    130          1           0        9.720726    2.451369   -4.137682
    131          1           0        8.142043    3.115284   -4.739978
    132          1           0        5.894344    2.329416   -1.127012
    133          1           0        5.454142    0.717092   -0.962245
    134          1           0        3.707120    2.493119   -2.017882
    135          1           0        3.851027    0.767822   -2.645768
    136          1           0       11.882747    6.187704   -0.069380
    137          1           0       10.785734    5.453317   -1.244822
    138          1           0       12.403398    5.302294   -1.584350
    139          1           0       14.264164    5.783306    0.298130
    140          1           0       15.015561    5.961022    1.904259
    141          1           0       13.341594    6.257654    1.708212
    142          1           0       13.390067   -0.723262    4.349225
    143          1           0       13.296210   -3.265571    2.680285
    144          1           0       15.381184   -0.757544    2.158199
    145          1           0       15.275826   -2.268187    3.262966
    146          1           0       15.584245   -0.731762    3.981118
    147          1           0       11.159203   -3.353681    4.441236
    148          1           0       12.260653   -2.375301    5.387049
    149          1           0       13.720307   -4.508177    4.425946
    150          1           0       12.172319   -5.218951    4.884514
    151          1           0       13.224172   -4.334275    6.111483
    152          1           0        8.823443   -5.541106    1.957144
    153          1           0        9.908540   -5.981524    0.792847
    154          1           0        8.111309   -6.015844    0.393326
    155          1           0        7.622605   -2.570330   -3.245984
    156          1           0        4.207557   -1.901414   -5.714209
    157          1           0        3.956242   -0.773253   -4.471252
    158          1           0        3.492350   -2.574897   -4.255388
 ---------------------------------------------------------------------

 SCF Done:  E(RPBE1PBE) =  -4067.33529685     A.U. after   16 cycles

 Excitation energies and oscillator strengths:

 Excited State   1:      Singlet-A      1.8290 eV  677.87 nm  f=0.3575  <S**2>=0.000
     309 -> 316       -0.16654
     312 -> 313        0.69542
     312 <- 313       -0.11482
 This state for optimization and/or second-order correction.
 Total Energy, E(TD-HF/TD-DFT) =  -4067.26808098
 Copying the excited state density for this state as the 1-particle RhoCI density.

 Excited State   2:      Singlet-A      1.8695 eV  663.20 nm  f=0.0000  <S**2>=0.000
     312 -> 314        0.70709

 Excited State   3:      Singlet-A      1.9486 eV  636.27 nm  f=0.3518  <S**2>=0.000
     310 -> 315        0.20418
     311 -> 314        0.68087

 Excited State   4:      Singlet-A      2.0312 eV  610.40 nm  f=0.0000  <S**2>=0.000
     311 -> 313        0.70709

 Excited State   5:      Singlet-A      2.2121 eV  560.48 nm  f=0.0840  <S**2>=0.000
     310 -> 314        0.64640
     311 -> 315       -0.26566

 The electronic state is 1-A.
 Alpha  occ. eigenvalues --  -46.92734 -46.91888 -19.25157 -19.24573 -19.20490
 Alpha  occ. eigenvalues --  -19.20348 -19.19295 -19.19131 -19.18715 -19.18355
 Alpha  occ. eigenvalues --  -14.41802 -14.41596 -14.41339 -14.41097 -14.39608
 Alpha  occ. eigenvalues --  -14.39177 -14.39045 -14.38245 -10.36241 -10.36141
 Alpha  occ. eigenvalues --  -10.32156 -10.32070 -10.31658 -10.31617 -10.29184
 Alpha  occ. eigenvalues --  -10.28916 -10.28611 -10.28548 -10.28546 -10.28408
 Alpha  occ. eigenvalues --  -10.28368 -10.28346 -10.28336 -10.28294 -10.28282
 Alpha  occ. eigenvalues --  -10.28274 -10.28019 -10.27995 -10.27874 -10.27511
 Alpha  occ. eigenvalues --  -10.26999 -10.26710 -10.26434 -10.26421 -10.26414
 Alpha  occ. eigenvalues --  -10.26269 -10.26240 -10.26113 -10.26067 -10.26038
 Alpha  occ. eigenvalues --  -10.26019 -10.26018 -10.25875 -10.25830 -10.25627
 Alpha  occ. eigenvalues --  -10.25543 -10.25443 -10.25435 -10.25370 -10.25353
 Alpha  occ. eigenvalues --  -10.25279 -10.25051 -10.25021 -10.24984 -10.24650
 Alpha  occ. eigenvalues --  -10.24565 -10.24373 -10.24051 -10.24036 -10.23997
 Alpha  occ. eigenvalues --  -10.23989 -10.23914 -10.23875 -10.23847 -10.23791
 Alpha  occ. eigenvalues --  -10.23576 -10.23462 -10.23309 -10.23260 -10.23020
 Alpha  occ. eigenvalues --  -10.22836 -10.22828 -10.22812 -10.22753 -10.22716
 Alpha  occ. eigenvalues --  -10.22338  -3.14770  -3.14110  -1.87613  -1.87153
 Alpha  occ. eigenvalues --   -1.86979  -1.86911  -1.86489  -1.86351  -1.11893
 Alpha  occ. eigenvalues --   -1.08629  -1.05049  -1.04638  -1.04050  -1.03679
 Alpha  occ. eigenvalues --   -1.01989  -1.01488  -1.00375  -0.99807  -0.99138
 Alpha  occ. eigenvalues --   -0.98608  -0.98175  -0.97835  -0.97182  -0.96031
 Alpha  occ. eigenvalues --   -0.87459  -0.87315  -0.84035  -0.83783  -0.83674
 Alpha  occ. eigenvalues --   -0.82886  -0.82631  -0.82137  -0.81855  -0.81763
 Alpha  occ. eigenvalues --   -0.81569  -0.81064  -0.80565  -0.80038  -0.78929
 Alpha  occ. eigenvalues --   -0.78531  -0.78395  -0.78221  -0.76948  -0.76904
 Alpha  occ. eigenvalues --   -0.76155  -0.75808  -0.75732  -0.75075  -0.74969
 Alpha  occ. eigenvalues --   -0.74727  -0.73224  -0.72226  -0.72003  -0.71719
 Alpha  occ. eigenvalues --   -0.71204  -0.71037  -0.70268  -0.70162  -0.69535
 Alpha  occ. eigenvalues --   -0.69429  -0.67652  -0.67095  -0.66692  -0.66010
 Alpha  occ. eigenvalues --   -0.63839  -0.63355  -0.63207  -0.62968  -0.62907
 Alpha  occ. eigenvalues --   -0.62238  -0.61549  -0.61443  -0.60373  -0.60227
 Alpha  occ. eigenvalues --   -0.60040  -0.59959  -0.59540  -0.59107  -0.58968
 Alpha  occ. eigenvalues --   -0.58811  -0.56558  -0.55780  -0.55025  -0.54675
 Alpha  occ. eigenvalues --   -0.54445  -0.54003  -0.53852  -0.53446  -0.53316
 Alpha  occ. eigenvalues --   -0.52974  -0.52601  -0.52269  -0.51931  -0.51824
 Alpha  occ. eigenvalues --   -0.51438  -0.51033  -0.50440  -0.50291  -0.49955
 Alpha  occ. eigenvalues --   -0.49875  -0.49579  -0.49115  -0.48785  -0.48605
 Alpha  occ. eigenvalues --   -0.48496  -0.48026  -0.47694  -0.47531  -0.47494
 Alpha  occ. eigenvalues --   -0.47489  -0.47026  -0.46955  -0.46794  -0.46704
 Alpha  occ. eigenvalues --   -0.46606  -0.46555  -0.46192  -0.46006  -0.45860
 Alpha  occ. eigenvalues --   -0.45708  -0.45679  -0.45454  -0.45446  -0.45014
 Alpha  occ. eigenvalues --   -0.44938  -0.44544  -0.44427  -0.44176  -0.44150
 Alpha  occ. eigenvalues --   -0.43911  -0.43867  -0.43718  -0.43438  -0.43375
 Alpha  occ. eigenvalues --   -0.43335  -0.43209  -0.43129  -0.42991  -0.42987
 Alpha  occ. eigenvalues --   -0.42587  -0.42421  -0.42250  -0.42147  -0.41943
 Alpha  occ. eigenvalues --   -0.41806  -0.41736  -0.41610  -0.41530  -0.41479
 Alpha  occ. eigenvalues --   -0.41382  -0.41029  -0.41017  -0.40842  -0.40618
 Alpha  occ. eigenvalues --   -0.40515  -0.40252  -0.40175  -0.40091  -0.39890
 Alpha  occ. eigenvalues --   -0.39684  -0.39412  -0.39096  -0.38930  -0.38756
 Alpha  occ. eigenvalues --   -0.38734  -0.38688  -0.38604  -0.38341  -0.38341
 Alpha  occ. eigenvalues --   -0.38086  -0.37946  -0.37731  -0.37562  -0.37418
 Alpha  occ. eigenvalues --   -0.37288  -0.37088  -0.36972  -0.36915  -0.36705
 Alpha  occ. eigenvalues --   -0.36650  -0.36382  -0.36324  -0.35991  -0.35920
 Alpha  occ. eigenvalues --   -0.35818  -0.35605  -0.35576  -0.35468  -0.35224
 Alpha  occ. eigenvalues --   -0.35164  -0.34958  -0.34726  -0.33968  -0.33886
 Alpha  occ. eigenvalues --   -0.33447  -0.33292  -0.32821  -0.32745  -0.32384
 Alpha  occ. eigenvalues --   -0.32142  -0.32011  -0.31501  -0.31365  -0.30975
 Alpha  occ. eigenvalues --   -0.30633  -0.30580  -0.29807  -0.29734  -0.29321
 Alpha  occ. eigenvalues --   -0.28899  -0.28735  -0.28591  -0.27365  -0.26920
 Alpha  occ. eigenvalues --   -0.26020  -0.25996  -0.25896  -0.25431  -0.25244
 Alpha  occ. eigenvalues --   -0.25181  -0.25060  -0.24962  -0.21148  -0.21055
 Alpha  occ. eigenvalues --   -0.19257  -0.18627
 Alpha virt. eigenvalues --   -0.11162  -0.11119  -0.06013  -0.05238  -0.04370
 Alpha virt. eigenvalues --   -0.03930  -0.02093  -0.01833  -0.01252  -0.00479
 Alpha virt. eigenvalues --    0.00024   0.01032   0.01137   0.01213   0.01497

 Mulliken charges:
               1
     1  Mg  11.997988
     2  C    5.972773
     3  C    6.007517
     4  C    6.021329
     5  C    5.992763
     6  N    6.993372
     7  C    6.039527
     8  C    5.986066
     9  C    6.008403
    10  C    5.971020
    11  C    6.001924
    12  C    5.996539
    13  C    5.994370
    14  H    1.008426
    15  N    7.008075
    16  C    5.960480
    17  C    5.977815
    18  C    5.994605
    19  C    5.957387
    20  C    6.002712
    21  C    5.989289
    22  O    7.981519
    23  C    6.003632
    24  N    7.003702
    25  C    5.967175
    26  C    6.006396
    27  C    5.994623
    28  C    6.023281
    29  C    5.999838
    30  C    5.992827
    31  C    5.999724
    32  N    6.998904
    33  C    6.034216
    34  C    6.038915
    35  C    5.994879
    36  C    6.037041
    37  C    5.999576
    38  C    6.015064
    39  O    8.024996
    40  C    6.001938
    41  C    6.002716
    42  O    8.003737
    43  O    8.002033
    44  C    5.998791
    45  H    0.987716
    46  H    0.992466
    47  H    1.011078
    48  H    1.001292
    49  H    1.001867
    50  H    0.999851
    51  H    0.987753
    52  H    1.001785
    53  H    0.996500
    54  H    1.008540
    55  H    1.009491
    56  H    0.993363
    57  H    0.984120
    58  H    0.982936
    59  H    0.982553
    60  H    0.989528
    61  H    0.989315
    62  H    0.988874
    63  H    1.000363
    64  H    0.999707
    65  H    0.987958
    66  H    0.999897
    67  H    1.004632
    68  H    0.999223
    69  H    1.013862
    70  H    1.005273
    71  H    1.000568
    72  H    0.997055
    73  H    1.018312
    74  H    1.017333
    75  H    1.018652
    76  H    1.009758
    77  H    1.003952
    78  H    1.001411
    79  H    1.005108
    80  Mg  11.999994
    81  C    5.999650
    82  C    5.999730
    83  C    6.000575
    84  C    6.000507
    85  N    6.999668
    86  C    6.000014
    87  C    5.999886
    88  C    6.000082
    89  C    5.999948
    90  C    6.000093
    91  C    6.000192
    92  C    6.000174
    93  H    0.999511
    94  N    7.000001
    95  C    5.999916
    96  C    5.999550
    97  C    6.000105
    98  C    5.999838
    99  C    6.000075
   100  C    6.000215
   101  O    7.999894
   102  C    5.999979
   103  N    7.000105
   104  C    5.999725
   105  C    6.000037
   106  C    6.000028
   107  C    6.000141
   108  C    5.999979
   109  C    5.999828
   110  C    5.999992
   111  N    7.000092
   112  C    6.000003
   113  C    6.000410
   114  C    6.000057
   115  C    6.000214
   116  C    5.999888
   117  C    5.999910
   118  O    8.000383
   119  C    5.999984
   120  C    6.000076
   121  O    7.999593
   122  O    8.000187
   123  C    6.000089
   124  H    0.999628
   125  H    1.000187
   126  H    1.000464
   127  H    0.999903
   128  H    0.999429
   129  H    0.999966
   130  H    1.000308
   131  H    0.999549
   132  H    0.999956
   133  H    1.000078
   134  H    0.998904
   135  H    0.999712
   136  H    0.999901
   137  H    0.999696
   138  H    1.000010
   139  H    1.000017
   140  H    1.000131
   141  H    0.999901
   142  H    1.000137
   143  H    1.000147
   144  H    1.000048
   145  H    1.000184
   146  H    1.000192
   147  H    0.999996
   148  H    1.000189
   149  H    1.000105
   150  H    1.000156
   151  H    1.000294
   152  H    1.000368
   153  H    1.000423
   154  H    1.000308
   155  H    1.000133
   156  H    1.000036
   157  H    0.999304
   158  H    0.999920
 Sum of Mulliken charges = 624.00000

 Dipole moment (field-independent basis, Debye):
    X=              5.7695    Y=              7.2790    Z=             -4.1002  Tot=             10.1529
 Quadrupole moment (field-independent basis, Debye-Ang):
   XX=           -116.9411   YY=              5.9770   ZZ=             -0.9348
   XY=            -79.4695   XZ=             45.9861   YZ=              0.1050

 Normal termination of Gaussian 16 at Wed Oct 13 23:03:16 2021.
