 Gaussian 16, Revision A.03,
 Gaussian 16:  ES64L-G16RevA.03 25-Dec-2016

 --------------------------------------------------------
 #p PBE1PBE/Def2SVP td=(nstates=5) density=(transition=1)
 --------------------------------------------------------

 --------------------------------
 TDDFT excited states in gaussian
 --------------------------------
 Symbolic Z-matrix:
 Charge =  0 Multiplicity = 1

                         Standard orientation:
 ---------------------------------------------------------------------
 Center     Atomic      Atomic             Coordinates (Angstroms)
 Number     Number       Type             X           Y           Z
 ---------------------------------------------------------------------
      1         12           0      -26.356935   -0.579792   -0.090504
      2          6           0      -24.902005    2.234523   -1.406784
      3          6           0      -27.140992    1.217859    2.722169
      4          6           0      -27.732072   -3.442437    1.303199
      5          6           0      -25.155078   -2.449512   -2.751341
      6          7           0      -26.017363    1.514609    0.639662
      7          6           0      -25.468487    2.480482   -0.154850
      8          6           0      -25.472245    3.769535    0.513057
      9          6           0      -25.978317    3.495979    1.920566
     10          6           0      -26.393203    1.963664    1.812641
     11          6           0      -25.023489    3.773097    3.132773
     12          6           0      -26.322226    4.826361   -0.271279
     13          6           0      -25.844695    6.318070   -0.202454
     14          1           0      -25.079567    6.754997    1.062185
     15          7           0      -27.407514   -0.988802    1.728277
     16          6           0      -27.629520   -0.076772    2.745790
     17          6           0      -28.364934   -0.748296    3.836526
     18          6           0      -28.555528   -2.138209    3.427123
     19          6           0      -27.916838   -2.243697    2.103692
     20          6           0      -28.780519   -0.081633    5.137744
     21          6           0      -29.354922   -3.206324    4.136284
     22          8           0      -29.479120   -4.322184    3.601614
     23          6           0      -29.991395   -3.043188    5.465700
     24          7           0      -26.374950   -2.672905   -0.593560
     25          6           0      -27.043740   -3.594117    0.105898
     26          6           0      -27.052314   -4.941503   -0.635182
     27          6           0      -26.434252   -4.603956   -2.099692
     28          6           0      -26.030132   -3.112736   -1.824518
     29          6           0      -26.279792   -6.035209    0.164811
     30          6           0      -27.434582   -4.694015   -3.284614
     31          6           0      -27.184869   -5.835627   -4.281485
     32          7           0      -25.185915   -0.245296   -1.740079
     33          6           0      -24.752969   -1.107890   -2.749792
     34          6           0      -23.948419   -0.364464   -3.744657
     35          6           0      -23.992390    0.943738   -3.207537
     36          6           0      -24.739499    0.959720   -1.999392
     37          6           0      -23.348292   -0.855055   -4.968860
     38          6           0      -23.623677    2.345670   -3.493518
     39          8           0      -23.073576    2.850943   -4.435764
     40          6           0      -24.168014    3.219428   -2.307801
     41          6           0      -23.051034    4.003709   -1.757320
     42          8           0      -22.159284    3.446160   -1.097433
     43          8           0      -23.165035    5.351294   -1.912834
     44          6           0      -22.214127    6.219304   -1.225456
     45          1           0      -27.376797    1.818625    3.603047
     46          1           0      -28.137932   -4.340052    1.774905
     47          1           0      -24.909136   -3.049938   -3.629551
     48          1           0      -24.441182    4.120806    0.566019
     49          1           0      -26.946775    3.967092    2.092607
     50          1           0      -24.022180    4.182514    2.995241
     51          1           0      -24.910146    2.841893    3.687312
     52          1           0      -25.467400    4.409931    3.898342
     53          1           0      -27.371139    4.733792    0.010604
     54          1           0      -26.436274    4.488949   -1.301277
     55          1           0      -26.696531    6.988062   -0.322387
     56          1           0      -25.098875    6.560108   -0.959023
     57          1           0      -28.600830    0.992840    5.149222
     58          1           0      -28.210890   -0.475683    5.979849
     59          1           0      -29.865541   -0.102655    5.238080
     60          1           0      -30.558320   -3.955793    5.647185
     61          1           0      -30.646688   -2.173674    5.531649
     62          1           0      -29.224563   -2.832134    6.211232
     63          1           0      -28.096840   -5.189609   -0.824068
     64          1           0      -25.531436   -5.175827   -2.313852
     65          1           0      -26.835887   -6.966121    0.276342
     66          1           0      -26.048130   -5.687883    1.172056
     67          1           0      -25.343857   -6.148146   -0.382854
     68          1           0      -27.475476   -3.785115   -3.883724
     69          1           0      -28.462460   -4.809979   -2.940232
     70          1           0      -26.689692   -6.661305   -3.770321
     71          1           0      -26.516387   -5.462894   -5.056928
     72          1           0      -28.144222   -6.055142   -4.748238
     73          1           0      -23.113667   -0.057476   -5.673438
     74          1           0      -23.965912   -1.587275   -5.488586
     75          1           0      -22.345206   -1.205624   -4.725481
     76          1           0      -24.911728    3.825970   -2.825730
     77          1           0      -21.187271    6.130223   -1.581094
     78          1           0      -22.289887    6.102942   -0.144377
     79          1           0      -22.463623    7.260949   -1.426911
     80         12           0       26.234770   -0.669937   -0.051037
     81          6           0       23.935925    1.634705    1.084700
     82          6           0       27.666484    2.005874   -1.953173
     83          6           0       28.260135   -2.802181   -1.466875
     84          6           0       24.551655   -3.219507    1.571314
     85          7           0       25.666950    1.568155   -0.533735
     86          6           0       24.848212    2.271907    0.230006
     87          6           0       25.138406    3.794162    0.103042
     88          6           0       25.911840    3.804496   -1.261744
     89          6           0       26.483914    2.378518   -1.305739
     90          6           0       24.970659    4.109117   -2.481014
     91          6           0       26.005309    4.168126    1.325924
     92          6           0       26.311656    5.659630    1.518269
     93          1           0       25.993609    6.651403    0.417343
     94          7           0       27.811180   -0.509336   -1.396794
     95          6           0       28.254075    0.701626   -2.031897
     96          6           0       29.494091    0.362856   -2.716769
     97          6           0       29.731164   -1.027776   -2.482916
     98          6           0       28.556934   -1.538831   -1.777199
     99          6           0       30.396028    1.387518   -3.500834
    100          6           0       31.005769   -1.846036   -2.874558
    101          8           0       30.986177   -3.034726   -2.707662
    102          6           0       32.192348   -1.164321   -3.474598
    103          7           0       26.440745   -2.735532    0.115481
    104          6           0       27.372943   -3.428995   -0.576163
    105          6           0       27.278619   -4.940044   -0.368012
    106          6           0       26.177867   -5.044157    0.712982
    107          6           0       25.679634   -3.545035    0.810064
    108          6           0       26.959593   -5.786201   -1.654944
    109          6           0       26.538880   -5.728593    2.006649
    110          6           0       27.848699   -5.389119    2.758116
    111          7           0       24.582036   -0.858801    1.091267
    112          6           0       24.007266   -1.938108    1.699073
    113          6           0       22.921640   -1.438935    2.516443
    114          6           0       22.836581   -0.012783    2.359030
    115          6           0       23.890808    0.271623    1.448413
    116          6           0       22.044949   -2.306246    3.364863
    117          6           0       22.122468    1.177962    2.676632
    118          8           0       21.112526    1.403511    3.378397
    119          6           0       22.697195    2.249697    1.599062
    120          6           0       22.767675    3.595529    2.322501
    121          8           0       23.311314    3.794892    3.340822
    122          8           0       22.050018    4.501550    1.594687
    123          6           0       22.256982    5.909141    1.866509
    124          1           0       28.055291    2.810576   -2.579934
    125          1           0       28.877072   -3.563678   -1.948539
    126          1           0       23.966091   -3.978548    2.092778
    127          1           0       24.226855    4.379768   -0.015389
    128          1           0       26.689683    4.552075   -1.104368
    129          1           0       25.131957    5.133564   -2.814296
    130          1           0       23.942629    3.948841   -2.155535
    131          1           0       25.183229    3.497783   -3.358092
    132          1           0       26.979548    3.700518    1.185825
    133          1           0       25.643173    3.703562    2.242548
    134          1           0       27.274191    5.841577    1.996833
    135          1           0       25.693352    5.949325    2.368110
    136          1           0       30.645699    1.038282   -4.503172
    137          1           0       31.269477    1.548957   -2.869276
    138          1           0       29.898956    2.357779   -3.533560
    139          1           0       33.006743   -1.814452   -3.154149
    140          1           0       32.403375   -0.201383   -3.010903
    141          1           0       32.168726   -0.815769   -4.507061
    142          1           0       28.254433   -5.230212    0.020819
    143          1           0       25.272000   -5.531274    0.352188
    144          1           0       26.334536   -6.610621   -1.312853
    145          1           0       27.949661   -6.130167   -1.954920
    146          1           0       26.561052   -5.146819   -2.442573
    147          1           0       26.780412   -6.722002    1.630119
    148          1           0       25.773970   -5.779704    2.782230
    149          1           0       28.584999   -6.180108    2.894298
    150          1           0       27.655724   -5.149176    3.803694
    151          1           0       28.361635   -4.581852    2.235115
    152          1           0       21.301122   -1.636132    3.794930
    153          1           0       22.619107   -2.716507    4.196688
    154          1           0       21.640384   -3.187946    2.868712
    155          1           0       21.989887    2.215040    0.770181
    156          1           0       21.187306    6.064363    2.007940
    157          1           0       22.789326    6.436698    1.074772
    158          1           0       22.761847    6.116724    2.810332
 ---------------------------------------------------------------------

 SCF Done:  E(RPBE1PBE) =  -4067.41030428     A.U. after   16 cycles

 Excitation energies and oscillator strengths:

 Excited State   1:      Singlet-A      1.8859 eV  657.44 nm  f=0.3737  <S**2>=0.000
     310 -> 315        0.19016
     311 -> 313        0.68799
     311 <- 313       -0.10013
 This state for optimization and/or second-order correction.
 Total Energy, E(TD-HF/TD-DFT) =  -4067.34100027
 Copying the excited state density for this state as the 1-particle RhoCI density.

 Excited State   2:      Singlet-A      1.8897 eV  656.10 nm  f=0.3650  <S**2>=0.000
     309 -> 316       -0.18006
     312 -> 314        0.68955
     312 <- 314       -0.10436

 Excited State   3:      Singlet-A      1.9867 eV  624.06 nm  f=0.0000  <S**2>=0.000
     312 -> 313        0.70711

 Excited State   4:      Singlet-A      2.0947 eV  591.89 nm  f=0.0000  <S**2>=0.000
     311 -> 314        0.70711

 Excited State   5:      Singlet-A      2.2137 eV  560.07 nm  f=0.0898  <S**2>=0.000
     310 -> 313        0.64980
     311 -> 315       -0.26392

 The electronic state is 1-A.
 Alpha  occ. eigenvalues --  -46.92266 -46.91647 -19.26565 -19.25008 -19.20382
 Alpha  occ. eigenvalues --  -19.19512 -19.19337 -19.19247 -19.19181 -19.18550
 Alpha  occ. eigenvalues --  -14.41302 -14.41235 -14.41208 -14.41158 -14.39170
 Alpha  occ. eigenvalues --  -14.38999 -14.38907 -14.38884 -10.36538 -10.35853
 Alpha  occ. eigenvalues --  -10.32447 -10.32140 -10.32038 -10.32009 -10.29515
 Alpha  occ. eigenvalues --  -10.28728 -10.28650 -10.28363 -10.28356 -10.28313
 Alpha  occ. eigenvalues --  -10.28312 -10.28273 -10.28234 -10.28142 -10.28109
 Alpha  occ. eigenvalues --  -10.27813 -10.27693 -10.27661 -10.27208 -10.26920
 Alpha  occ. eigenvalues --  -10.26804 -10.26793 -10.26681 -10.26363 -10.26265
 Alpha  occ. eigenvalues --  -10.26245 -10.26153 -10.26065 -10.26051 -10.25858
 Alpha  occ. eigenvalues --  -10.25787 -10.25628 -10.25617 -10.25609 -10.25592
 Alpha  occ. eigenvalues --  -10.25390 -10.25305 -10.25265 -10.25236 -10.25236
 Alpha  occ. eigenvalues --  -10.25208 -10.25099 -10.25071 -10.24979 -10.24762
 Alpha  occ. eigenvalues --  -10.24611 -10.24316 -10.24303 -10.24172 -10.24105
 Alpha  occ. eigenvalues --  -10.24066 -10.23801 -10.23741 -10.23683 -10.23656
 Alpha  occ. eigenvalues --  -10.23528 -10.23522 -10.23484 -10.23367 -10.23326
 Alpha  occ. eigenvalues --  -10.23140 -10.23004 -10.23000 -10.22788 -10.22674
 Alpha  occ. eigenvalues --  -10.22623  -3.14273  -3.13862  -1.87136  -1.86704
 Alpha  occ. eigenvalues --   -1.86631  -1.86503  -1.86253  -1.86077  -1.12329
 Alpha  occ. eigenvalues --   -1.11175  -1.06315  -1.05698  -1.04597  -1.03584
 Alpha  occ. eigenvalues --   -1.02658  -1.01891  -0.99860  -0.99728  -0.98706
 Alpha  occ. eigenvalues --   -0.98642  -0.98045  -0.97669  -0.96803  -0.95584
 Alpha  occ. eigenvalues --   -0.87322  -0.86824  -0.83645  -0.83407  -0.83037
 Alpha  occ. eigenvalues --   -0.82753  -0.82567  -0.82004  -0.81636  -0.81498
 Alpha  occ. eigenvalues --   -0.81062  -0.80690  -0.80447  -0.79934  -0.78342
 Alpha  occ. eigenvalues --   -0.78237  -0.77986  -0.77820  -0.76702  -0.76568
 Alpha  occ. eigenvalues --   -0.75985  -0.75947  -0.75716  -0.75505  -0.74888
 Alpha  occ. eigenvalues --   -0.74592  -0.72743  -0.72318  -0.71842  -0.71653
 Alpha  occ. eigenvalues --   -0.71601  -0.71060  -0.70534  -0.70164  -0.69881
 Alpha  occ. eigenvalues --   -0.69231  -0.67082  -0.67052  -0.66437  -0.65968
 Alpha  occ. eigenvalues --   -0.64619  -0.63538  -0.63279  -0.62732  -0.62487
 Alpha  occ. eigenvalues --   -0.62456  -0.61350  -0.60670  -0.60247  -0.59839
 Alpha  occ. eigenvalues --   -0.59645  -0.59594  -0.59405  -0.58870  -0.58805
 Alpha  occ. eigenvalues --   -0.58615  -0.57302  -0.56872  -0.55065  -0.54382
 Alpha  occ. eigenvalues --   -0.54181  -0.54100  -0.53765  -0.53703  -0.53361
 Alpha  occ. eigenvalues --   -0.53207  -0.52894  -0.52712  -0.52361  -0.51853
 Alpha  occ. eigenvalues --   -0.50744  -0.50675  -0.50571  -0.50305  -0.50229
 Alpha  occ. eigenvalues --   -0.49903  -0.49838  -0.49257  -0.48773  -0.48507
 Alpha  occ. eigenvalues --   -0.48263  -0.48056  -0.48050  -0.47651  -0.47599
 Alpha  occ. eigenvalues --   -0.47352  -0.46981  -0.46923  -0.46725  -0.46594
 Alpha  occ. eigenvalues --   -0.46584  -0.46245  -0.46239  -0.46102  -0.45806
 Alpha  occ. eigenvalues --   -0.45718  -0.45348  -0.45245  -0.44853  -0.44755
 Alpha  occ. eigenvalues --   -0.44613  -0.44508  -0.44404  -0.44253  -0.44102
 Alpha  occ. eigenvalues --   -0.43921  -0.43913  -0.43889  -0.43539  -0.43335
 Alpha  occ. eigenvalues --   -0.43131  -0.43038  -0.42900  -0.42777  -0.42751
 Alpha  occ. eigenvalues --   -0.42616  -0.42579  -0.42291  -0.42107  -0.41846
 Alpha  occ. eigenvalues --   -0.41759  -0.41524  -0.41405  -0.41344  -0.41238
 Alpha  occ. eigenvalues --   -0.40942  -0.40667  -0.40638  -0.40630  -0.40442
 Alpha  occ. eigenvalues --   -0.40259  -0.40221  -0.39920  -0.39902  -0.39730
 Alpha  occ. eigenvalues --   -0.39678  -0.39507  -0.39307  -0.39123  -0.38682
 Alpha  occ. eigenvalues --   -0.38587  -0.38411  -0.38304  -0.38176  -0.38149
 Alpha  occ. eigenvalues --   -0.37970  -0.37817  -0.37771  -0.37700  -0.37577
 Alpha  occ. eigenvalues --   -0.37506  -0.37206  -0.36962  -0.36932  -0.36805
 Alpha  occ. eigenvalues --   -0.36659  -0.36589  -0.36385  -0.36333  -0.36291
 Alpha  occ. eigenvalues --   -0.35969  -0.35817  -0.35746  -0.35531  -0.35256
 Alpha  occ. eigenvalues --   -0.35084  -0.34847  -0.34502  -0.34434  -0.34402
 Alpha  occ. eigenvalues --   -0.33314  -0.33146  -0.32789  -0.32521  -0.32465
 Alpha  occ. eigenvalues --   -0.32178  -0.32154  -0.31711  -0.31646  -0.31276
 Alpha  occ. eigenvalues --   -0.31064  -0.30866  -0.30118  -0.29247  -0.29114
 Alpha  occ. eigenvalues --   -0.28903  -0.28815  -0.28480  -0.26944  -0.26678
 Alpha  occ. eigenvalues --   -0.26021  -0.25785  -0.25658  -0.25609  -0.25533
 Alpha  occ. eigenvalues --   -0.25226  -0.25110  -0.24974  -0.20798  -0.20738
 Alpha  occ. eigenvalues --   -0.18718  -0.18484
 Alpha virt. eigenvalues --   -0.10928  -0.10768  -0.05333  -0.05198  -0.03995
 Alpha virt. eigenvalues --   -0.03633  -0.01807  -0.01794  -0.00219   0.00294
 Alpha virt. eigenvalues --    0.00362   0.01304   0.01333   0.01492   0.01842

 Mulliken charges:
               1
     1  Mg  12.000008
     2  C    6.000329
     3  C    5.999941
     4  C    5.999641
     5  C    5.999976
     6  N    7.000202
     7  C    5.999572
     8  C    6.000143
     9  C    5.999960
    10  C    6.000346
    11  C    6.000002
    12  C    6.000041
    13  C    6.000011
    14  H    0.999891
    15  N    6.999899
    16  C    6.000457
    17  C    6.000326
    18  C    6.000169
    19  C    6.000438
    20  C    5.999954
    21  C    6.000150
    22  O    8.000348
    23  C    5.999951
    24  N    6.999780
    25  C    6.000443
    26  C    5.999915
    27  C    6.000113
    28  C    5.999658
    29  C    5.999965
    30  C    6.000069
    31  C    5.999984
    32  N    7.000074
    33  C    5.999589
    34  C    5.999645
    35  C    5.999886
    36  C    5.999608
    37  C    6.000071
    38  C    5.999807
    39  O    7.999669
    40  C    5.999920
    41  C    5.999980
    42  O    7.999929
    43  O    7.999991
    44  C    6.000039
    45  H    1.000145
    46  H    1.000031
    47  H    0.999839
    48  H    0.999966
    49  H    1.000007
    50  H    1.000107
    51  H    0.999933
    52  H    1.000038
    53  H    0.999917
    54  H    1.000085
    55  H    1.000001
    56  H    1.000047
    57  H    1.000187
    58  H    1.000205
    59  H    1.000231
    60  H    1.000171
    61  H    1.000083
    62  H    1.000057
    63  H    1.000001
    64  H    0.999971
    65  H    1.000022
    66  H    0.999904
    67  H    1.000094
    68  H    1.000046
    69  H    0.999877
    70  H    0.999927
    71  H    1.000034
    72  H    0.999970
    73  H    0.999832
    74  H    0.999836
    75  H    0.999735
    76  H    0.999963
    77  H    0.999956
    78  H    0.999917
    79  H    0.999972
    80  Mg  12.002954
    81  C    5.995296
    82  C    6.023363
    83  C    6.012073
    84  C    5.986804
    85  N    7.004718
    86  C    6.022878
    87  C    5.995799
    88  C    6.008667
    89  C    5.964229
    90  C    6.002393
    91  C    5.993201
    92  C    6.001330
    93  H    1.005571
    94  N    7.007713
    95  C    5.948695
    96  C    5.989540
    97  C    5.981059
    98  C    5.974873
    99  C    5.999394
   100  C    5.985608
   101  O    7.974329
   102  C    6.004388
   103  N    6.997865
   104  C    5.965914
   105  C    6.009174
   106  C    5.995136
   107  C    6.029914
   108  C    6.001120
   109  C    5.993541
   110  C    5.998452
   111  N    6.997874
   112  C    6.031479
   113  C    6.032910
   114  C    6.003689
   115  C    6.021407
   116  C    5.999076
   117  C    6.017041
   118  O    8.032491
   119  C    5.999272
   120  C    6.005840
   121  O    8.004557
   122  O    8.001512
   123  C    5.999233
   124  H    0.991808
   125  H    0.993775
   126  H    1.005147
   127  H    0.998298
   128  H    0.998135
   129  H    0.995713
   130  H    0.986088
   131  H    1.003621
   132  H    1.012321
   133  H    0.992300
   134  H    1.003661
   135  H    0.996335
   136  H    0.986434
   137  H    0.986037
   138  H    0.984365
   139  H    0.986566
   140  H    0.993708
   141  H    0.990072
   142  H    1.000525
   143  H    0.997196
   144  H    0.989294
   145  H    1.002070
   146  H    0.999635
   147  H    1.007726
   148  H    0.994815
   149  H    1.003662
   150  H    0.996358
   151  H    1.009194
   152  H    1.011349
   153  H    1.022279
   154  H    1.020357
   155  H    1.006957
   156  H    1.001663
   157  H    1.007031
   158  H    1.003134
 Sum of Mulliken charges = 624.00000

 Dipole moment (field-independent basis, Debye):
    X=             -8.0502    Y=              0.1311    Z=              6.2994  Tot=             10.2227
 Quadrupole moment (field-independent basis, Debye-Ang):
   XX=           -415.5672   YY=              1.6741   ZZ=             -0.5626
   XY=              8.1445   XZ=            159.6155   YZ=             -2.6680

 Normal termination of Gaussian 16 at Fri Oct 15 01:22:15 2021.
