 Gaussian 16, Revision A.03,
 Gaussian 16:  ES64L-G16RevA.03 25-Dec-2016

 --------------------------------------------------------
 #p PBE1PBE/Def2SVP td=(nstates=5) density=(transition=1)
 --------------------------------------------------------

 --------------------------------
 TDDFT excited states in gaussian
 --------------------------------
 Symbolic Z-matrix:
 Charge =  0 Multiplicity = 1

                         Standard orientation:
 ---------------------------------------------------------------------
 Center     Atomic      Atomic             Coordinates (Angstroms)
 Number     Number       Type             X           Y           Z
 ---------------------------------------------------------------------
      1         12           0      -26.626045    0.078334   -0.078125
      2          6           0      -23.233619    0.938981   -0.122942
      3          6           0      -26.216919   -0.777443   -3.403924
      4          6           0      -29.750808   -1.095055   -0.046164
      5          6           0      -26.586706    0.193446    3.415524
      6          7           0      -24.724454   -0.082539   -1.576789
      7          6           0      -23.503789    0.447311   -1.369163
      8          6           0      -22.581585    0.324216   -2.558286
      9          6           0      -23.704474    0.046663   -3.629087
     10          6           0      -24.969347   -0.351018   -2.875242
     11          6           0      -23.999592    1.340145   -4.434447
     12          6           0      -21.480208   -0.713255   -2.306095
     13          6           0      -21.816432   -2.025619   -1.567763
     14          1           0      -21.318824   -3.307061   -2.225925
     15          7           0      -27.812052   -0.790658   -1.500446
     16          6           0      -27.484890   -0.934368   -2.822728
     17          6           0      -28.718035   -1.110205   -3.600906
     18          6           0      -29.777400   -1.370029   -2.642210
     19          6           0      -29.118760   -1.066913   -1.335021
     20          6           0      -28.717045   -1.358988   -5.157764
     21          6           0      -31.203051   -1.834241   -2.950584
     22          8           0      -31.594866   -1.892576   -4.082766
     23          6           0      -32.140747   -2.176587   -1.828978
     24          7           0      -27.900343   -0.587216    1.552445
     25          6           0      -29.242307   -0.947656    1.329825
     26          6           0      -30.051689   -1.182968    2.674749
     27          6           0      -28.990075   -0.687102    3.768224
     28          6           0      -27.740078   -0.288438    2.857453
     29          6           0      -31.518921   -0.547759    2.863295
     30          6           0      -28.621986   -1.697369    4.948417
     31          6           0      -28.321399   -0.893035    6.308086
     32          7           0      -25.240701    0.531360    1.419553
     33          6           0      -25.402226    0.621415    2.787177
     34          6           0      -24.173118    1.133361    3.380875
     35          6           0      -23.269977    1.356031    2.309563
     36          6           0      -23.949757    0.893328    1.125524
     37          6           0      -23.969402    1.532360    4.818992
     38          6           0      -21.892459    1.745145    1.863633
     39          8           0      -20.912205    2.033375    2.513346
     40          6           0      -21.889682    1.528518    0.290748
     41          6           0      -21.630720    2.875116   -0.327049
     42          8           0      -20.499807    3.420658   -0.374176
     43          8           0      -22.783307    3.330185   -0.950924
     44          6           0      -22.621875    4.483697   -1.771511
     45          1           0      -26.114786   -0.961527   -4.475515
     46          1           0      -30.823052   -1.267806    0.069415
     47          1           0      -26.654243    0.414269    4.482945
     48          1           0      -22.151169    1.285997   -2.836617
     49          1           0      -23.523516   -0.733091   -4.367669
     50          1           0      -25.062998    1.305218   -4.672436
     51          1           0      -23.326181    1.422653   -5.286396
     52          1           0      -23.962203    2.303667   -3.925218
     53          1           0      -20.765449   -0.224636   -1.644640
     54          1           0      -21.008317   -0.943423   -3.261389
     55          1           0      -22.899655   -2.131082   -1.513019
     56          1           0      -21.342669   -1.991757   -0.587112
     57          1           0      -28.436894   -2.367074   -5.464551
     58          1           0      -28.051843   -0.642717   -5.640129
     59          1           0      -29.647124   -1.135047   -5.678899
     60          1           0      -33.061090   -2.635186   -2.192051
     61          1           0      -32.410867   -1.315572   -1.217269
     62          1           0      -31.599035   -2.977797   -1.325572
     63          1           0      -30.116431   -2.270171    2.652663
     64          1           0      -29.319213    0.238180    4.240232
     65          1           0      -32.234461   -1.283916    2.498848
     66          1           0      -31.620571    0.391938    2.321104
     67          1           0      -31.665761   -0.330182    3.921415
     68          1           0      -27.672372   -2.196132    4.754916
     69          1           0      -29.394849   -2.456490    5.071424
     70          1           0      -27.298743   -1.063518    6.644799
     71          1           0      -29.002710   -1.233190    7.087416
     72          1           0      -28.332388    0.196245    6.291891
     73          1           0      -24.158622    0.661966    5.446340
     74          1           0      -24.680848    2.314279    5.085466
     75          1           0      -22.946784    1.850796    5.020694
     76          1           0      -20.989289    0.941432    0.111224
     77          1           0      -23.560493    4.692908   -2.284155
     78          1           0      -21.750917    4.388560   -2.420189
     79          1           0      -22.494733    5.391168   -1.181291
     80         12           0       25.649430   -0.839957   -0.298378
     81          6           0       26.789508    2.451868   -0.477925
     82          6           0       22.983588    0.172831    1.417554
     83          6           0       25.388180   -4.019304    0.929873
     84          6           0       28.481923   -1.856609   -2.053277
     85          7           0       24.875012    1.141830    0.254095
     86          6           0       25.493476    2.300630    0.062073
     87          6           0       24.535258    3.468278    0.495851
     88          6           0       23.385907    2.703250    1.194742
     89          6           0       23.757993    1.239660    0.977146
     90          6           0       23.321630    2.929399    2.786363
     91          6           0       23.998100    4.385621   -0.694641
     92          6           0       23.987085    5.831587   -0.334129
     93          1           0       22.720681    6.646941   -0.545456
     94          7           0       24.341857   -1.779182    0.976495
     95          6           0       23.266645   -1.185109    1.582459
     96          6           0       22.398635   -2.236104    2.131556
     97          6           0       23.114261   -3.456855    1.982681
     98          6           0       24.370936   -3.088721    1.309593
     99          6           0       21.040424   -1.937093    2.842817
    100          6           0       22.726007   -4.880675    2.483477
    101          8           0       23.408099   -5.883312    2.303691
    102          6           0       21.438136   -5.037774    3.199690
    103          7           0       26.744368   -2.616270   -0.485596
    104          6           0       26.506627   -3.830726    0.165020
    105          6           0       27.697804   -4.793147   -0.081483
    106          6           0       28.268370   -4.298194   -1.482306
    107          6           0       27.776057   -2.832583   -1.315801
    108          6           0       28.702691   -4.831234    1.089882
    109          6           0       27.695424   -4.929209   -2.719458
    110          6           0       26.357316   -4.511980   -3.253311
    111          7           0       27.221551    0.050302   -1.299132
    112          6           0       28.324681   -0.468833   -1.936510
    113          6           0       29.207556    0.581735   -2.448554
    114          6           0       28.694237    1.795083   -1.802661
    115          6           0       27.489246    1.379913   -1.112795
    116          6           0       30.436953    0.392222   -3.178424
    117          6           0       28.910600    3.220097   -1.583943
    118          8           0       29.783221    3.945410   -1.884087
    119          6           0       27.608991    3.716916   -0.763506
    120          6           0       27.921248    4.568782    0.440810
    121          8           0       28.071969    4.149958    1.584726
    122          8           0       27.911686    5.907765    0.051345
    123          6           0       28.164593    6.922353    1.090456
    124          1           0       21.980834    0.322662    1.824018
    125          1           0       25.251099   -5.008052    1.373490
    126          1           0       29.293620   -2.236518   -2.676608
    127          1           0       24.987042    4.111562    1.251365
    128          1           0       22.375622    2.935449    0.857881
    129          1           0       22.640572    3.763391    2.957041
    130          1           0       24.258265    3.234209    3.252456
    131          1           0       22.906029    2.026209    3.234693
    132          1           0       22.980929    4.118854   -0.982002
    133          1           0       24.538189    4.296374   -1.637318
    134          1           0       24.698722    6.263666   -1.037147
    135          1           0       24.326410    6.112588    0.662472
    136          1           0       21.284231   -1.803829    3.896436
    137          1           0       20.304780   -2.718226    2.649577
    138          1           0       20.647974   -0.938180    2.649455
    139          1           0       21.095017   -4.303265    3.928127
    140          1           0       21.429085   -5.988895    3.731454
    141          1           0       20.660612   -5.301151    2.482051
    142          1           0       27.214719   -5.760436   -0.216608
    143          1           0       29.352282   -4.393126   -1.544820
    144          1           0       29.746807   -4.637230    0.844275
    145          1           0       28.580606   -5.695937    1.742559
    146          1           0       28.472593   -4.037032    1.799873
    147          1           0       27.598285   -6.012844   -2.665244
    148          1           0       28.403595   -4.763126   -3.531381
    149          1           0       26.631235   -3.772920   -4.006000
    150          1           0       25.696959   -4.010139   -2.545734
    151          1           0       25.863332   -5.375867   -3.699208
    152          1           0       30.489266    1.218683   -3.887406
    153          1           0       30.341751   -0.544107   -3.727705
    154          1           0       31.287852    0.429040   -2.498906
    155          1           0       27.021808    4.332015   -1.445407
    156          1           0       29.094089    6.641969    1.586695
    157          1           0       27.377424    6.910631    1.843873
    158          1           0       28.245131    7.972588    0.809575
 ---------------------------------------------------------------------

 SCF Done:  E(RPBE1PBE) =  -4067.37900699     A.U. after   16 cycles

 Excitation energies and oscillator strengths:

 Excited State   1:      Singlet-A      1.8400 eV  673.85 nm  f=0.3655  <S**2>=0.000
     310 -> 316       -0.17114
     312 -> 314        0.69450
     312 <- 314       -0.11329
 This state for optimization and/or second-order correction.
 Total Energy, E(TD-HF/TD-DFT) =  -4067.31139004
 Copying the excited state density for this state as the 1-particle RhoCI density.

 Excited State   2:      Singlet-A      1.8968 eV  653.64 nm  f=0.3473  <S**2>=0.000
     309 -> 315        0.18767
     311 -> 313        0.68734

 Excited State   3:      Singlet-A      1.9012 eV  652.13 nm  f=0.0000  <S**2>=0.000
     312 -> 313        0.70711

 Excited State   4:      Singlet-A      2.1432 eV  578.51 nm  f=0.0000  <S**2>=0.000
     311 -> 314        0.70711

 Excited State   5:      Singlet-A      2.2341 eV  554.97 nm  f=0.1044  <S**2>=0.000
     309 -> 313        0.64927
     311 -> 315       -0.26854

 The electronic state is 1-A.
 Alpha  occ. eigenvalues --  -46.93807 -46.91318 -19.26714 -19.25601 -19.20301
 Alpha  occ. eigenvalues --  -19.20213 -19.19901 -19.19745 -19.19443 -19.19127
 Alpha  occ. eigenvalues --  -14.41879 -14.41610 -14.41215 -14.41007 -14.40077
 Alpha  occ. eigenvalues --  -14.39242 -14.38910 -14.38891 -10.37043 -10.36597
 Alpha  occ. eigenvalues --  -10.33099 -10.32815 -10.32515 -10.32339 -10.30504
 Alpha  occ. eigenvalues --  -10.29319 -10.29205 -10.28994 -10.28948 -10.28754
 Alpha  occ. eigenvalues --  -10.28462 -10.28377 -10.28375 -10.28276 -10.28078
 Alpha  occ. eigenvalues --  -10.27810 -10.27724 -10.27635 -10.27523 -10.27338
 Alpha  occ. eigenvalues --  -10.27209 -10.27207 -10.27110 -10.27068 -10.26886
 Alpha  occ. eigenvalues --  -10.26562 -10.26258 -10.26243 -10.26218 -10.26164
 Alpha  occ. eigenvalues --  -10.26072 -10.26038 -10.26035 -10.25949 -10.25926
 Alpha  occ. eigenvalues --  -10.25725 -10.25720 -10.25718 -10.25598 -10.25519
 Alpha  occ. eigenvalues --  -10.25502 -10.25479 -10.25372 -10.25299 -10.25223
 Alpha  occ. eigenvalues --  -10.25020 -10.24897 -10.24504 -10.24442 -10.24297
 Alpha  occ. eigenvalues --  -10.23957 -10.23902 -10.23834 -10.23816 -10.23774
 Alpha  occ. eigenvalues --  -10.23709 -10.23621 -10.23541 -10.23473 -10.23443
 Alpha  occ. eigenvalues --  -10.23420 -10.23151 -10.23126 -10.23086 -10.23015
 Alpha  occ. eigenvalues --  -10.21938  -3.15754  -3.13596  -1.88554  -1.88146
 Alpha  occ. eigenvalues --   -1.87965  -1.86441  -1.85947  -1.85847  -1.11248
 Alpha  occ. eigenvalues --   -1.09810  -1.07608  -1.06160  -1.05545  -1.04926
 Alpha  occ. eigenvalues --   -1.02181  -1.01882  -0.99776  -0.99356  -0.98454
 Alpha  occ. eigenvalues --   -0.98198  -0.97703  -0.97558  -0.96781  -0.96650
 Alpha  occ. eigenvalues --   -0.86907  -0.86120  -0.83303  -0.83294  -0.82834
 Alpha  occ. eigenvalues --   -0.82611  -0.82351  -0.82022  -0.81718  -0.81417
 Alpha  occ. eigenvalues --   -0.81224  -0.80587  -0.80508  -0.79830  -0.79122
 Alpha  occ. eigenvalues --   -0.78437  -0.77839  -0.77682  -0.76888  -0.76800
 Alpha  occ. eigenvalues --   -0.76089  -0.76050  -0.75265  -0.75165  -0.74755
 Alpha  occ. eigenvalues --   -0.74700  -0.72556  -0.71860  -0.71620  -0.71541
 Alpha  occ. eigenvalues --   -0.71022  -0.70945  -0.70731  -0.70082  -0.69674
 Alpha  occ. eigenvalues --   -0.69210  -0.67327  -0.66669  -0.66488  -0.65903
 Alpha  occ. eigenvalues --   -0.64266  -0.63793  -0.63578  -0.62919  -0.62775
 Alpha  occ. eigenvalues --   -0.62082  -0.61562  -0.61129  -0.60360  -0.60108
 Alpha  occ. eigenvalues --   -0.59447  -0.59340  -0.59184  -0.59159  -0.58782
 Alpha  occ. eigenvalues --   -0.58537  -0.58318  -0.56345  -0.54734  -0.54583
 Alpha  occ. eigenvalues --   -0.54079  -0.53897  -0.53482  -0.53429  -0.52839
 Alpha  occ. eigenvalues --   -0.52741  -0.52321  -0.52289  -0.51930  -0.51605
 Alpha  occ. eigenvalues --   -0.50789  -0.50639  -0.50422  -0.50085  -0.50052
 Alpha  occ. eigenvalues --   -0.49804  -0.49650  -0.49309  -0.48856  -0.48582
 Alpha  occ. eigenvalues --   -0.48368  -0.48161  -0.47904  -0.47813  -0.47515
 Alpha  occ. eigenvalues --   -0.47458  -0.47330  -0.47040  -0.46708  -0.46558
 Alpha  occ. eigenvalues --   -0.46215  -0.46191  -0.46144  -0.46040  -0.45864
 Alpha  occ. eigenvalues --   -0.45764  -0.45734  -0.45358  -0.45181  -0.44967
 Alpha  occ. eigenvalues --   -0.44731  -0.44643  -0.44607  -0.44561  -0.44344
 Alpha  occ. eigenvalues --   -0.44145  -0.44141  -0.44120  -0.43812  -0.43617
 Alpha  occ. eigenvalues --   -0.43380  -0.43256  -0.43078  -0.42963  -0.42638
 Alpha  occ. eigenvalues --   -0.42427  -0.42240  -0.41983  -0.41920  -0.41635
 Alpha  occ. eigenvalues --   -0.41606  -0.41386  -0.41362  -0.41307  -0.41096
 Alpha  occ. eigenvalues --   -0.40983  -0.40806  -0.40777  -0.40509  -0.40421
 Alpha  occ. eigenvalues --   -0.40280  -0.40207  -0.40134  -0.39970  -0.39787
 Alpha  occ. eigenvalues --   -0.39674  -0.39636  -0.39452  -0.39137  -0.39047
 Alpha  occ. eigenvalues --   -0.38937  -0.38822  -0.38690  -0.38560  -0.38455
 Alpha  occ. eigenvalues --   -0.38183  -0.38163  -0.38073  -0.38006  -0.37814
 Alpha  occ. eigenvalues --   -0.37678  -0.37654  -0.37493  -0.37211  -0.37058
 Alpha  occ. eigenvalues --   -0.36872  -0.36730  -0.36642  -0.36393  -0.36300
 Alpha  occ. eigenvalues --   -0.36164  -0.36163  -0.35998  -0.35383  -0.35290
 Alpha  occ. eigenvalues --   -0.35152  -0.34853  -0.34205  -0.34025  -0.33910
 Alpha  occ. eigenvalues --   -0.33601  -0.33162  -0.32979  -0.32672  -0.32270
 Alpha  occ. eigenvalues --   -0.32228  -0.31913  -0.31745  -0.31606  -0.31423
 Alpha  occ. eigenvalues --   -0.31391  -0.30921  -0.29812  -0.29506  -0.29469
 Alpha  occ. eigenvalues --   -0.29227  -0.28719  -0.28345  -0.26942  -0.26781
 Alpha  occ. eigenvalues --   -0.26200  -0.26198  -0.26086  -0.26008  -0.25779
 Alpha  occ. eigenvalues --   -0.25652  -0.25465  -0.25133  -0.20998  -0.20890
 Alpha  occ. eigenvalues --   -0.19049  -0.18419
 Alpha virt. eigenvalues --   -0.11178  -0.10920  -0.05555  -0.04889  -0.04148
 Alpha virt. eigenvalues --   -0.03818  -0.02417  -0.01997  -0.01914  -0.00145
 Alpha virt. eigenvalues --   -0.00142   0.00172   0.01126   0.01429   0.01959

 Mulliken charges:
               1
     1  Mg  12.000009
     2  C    6.000070
     3  C    6.000069
     4  C    6.000006
     5  C    5.999928
     6  N    7.000036
     7  C    6.000054
     8  C    5.999971
     9  C    6.000020
    10  C    5.999842
    11  C    6.000018
    12  C    5.999980
    13  C    5.999951
    14  H    1.000077
    15  N    6.999993
    16  C    5.999839
    17  C    5.999937
    18  C    5.999916
    19  C    5.999897
    20  C    6.000030
    21  C    5.999940
    22  O    7.999872
    23  C    6.000030
    24  N    6.999941
    25  C    5.999884
    26  C    6.000040
    27  C    5.999969
    28  C    6.000170
    29  C    6.000003
    30  C    5.999991
    31  C    5.999997
    32  N    7.000029
    33  C    6.000190
    34  C    6.000086
    35  C    6.000065
    36  C    6.000030
    37  C    5.999981
    38  C    6.000118
    39  O    8.000177
    40  C    5.999949
    41  C    5.999993
    42  O    8.000069
    43  O    7.999989
    44  C    5.999990
    45  H    0.999941
    46  H    0.999952
    47  H    1.000041
    48  H    1.000016
    49  H    1.000009
    50  H    1.000020
    51  H    0.999971
    52  H    0.999939
    53  H    1.000006
    54  H    1.000050
    55  H    1.000015
    56  H    0.999998
    57  H    0.999907
    58  H    0.999916
    59  H    0.999908
    60  H    0.999913
    61  H    0.999941
    62  H    0.999977
    63  H    0.999990
    64  H    0.999986
    65  H    0.999998
    66  H    0.999980
    67  H    0.999952
    68  H    1.000012
    69  H    1.000033
    70  H    1.000006
    71  H    1.000010
    72  H    0.999983
    73  H    1.000095
    74  H    1.000071
    75  H    1.000089
    76  H    1.000076
    77  H    1.000014
    78  H    1.000035
    79  H    1.000006
    80  Mg  12.001667
    81  C    5.975769
    82  C    5.995311
    83  C    6.029007
    84  C    6.007049
    85  N    6.988055
    86  C    6.033240
    87  C    5.990447
    88  C    6.008201
    89  C    5.974195
    90  C    6.006276
    91  C    5.998369
    92  C    5.999916
    93  H    1.005215
    94  N    7.004620
    95  C    5.966951
    96  C    5.977993
    97  C    5.988372
    98  C    5.960704
    99  C    6.001461
   100  C    5.986174
   101  O    7.972236
   102  C    6.009604
   103  N    7.017907
   104  C    5.963916
   105  C    6.003868
   106  C    5.991760
   107  C    6.020586
   108  C    5.998939
   109  C    5.994534
   110  C    5.996843
   111  N    6.997857
   112  C    6.023912
   113  C    6.035952
   114  C    6.003857
   115  C    6.027338
   116  C    5.995293
   117  C    6.014941
   118  O    8.023782
   119  C    6.004258
   120  C    6.002786
   121  O    8.008602
   122  O    8.000156
   123  C    5.997954
   124  H    0.988644
   125  H    0.996063
   126  H    1.014246
   127  H    1.000170
   128  H    0.995594
   129  H    0.990180
   130  H    0.988037
   131  H    1.007004
   132  H    1.007049
   133  H    0.993180
   134  H    0.995424
   135  H    1.001032
   136  H    0.982705
   137  H    0.985156
   138  H    0.983821
   139  H    0.994429
   140  H    0.986045
   141  H    0.989263
   142  H    1.003670
   143  H    1.001988
   144  H    0.989464
   145  H    1.003038
   146  H    1.001606
   147  H    1.011580
   148  H    0.998638
   149  H    0.993589
   150  H    1.011983
   151  H    1.007278
   152  H    1.017951
   153  H    1.015463
   154  H    1.023395
   155  H    1.006173
   156  H    1.000796
   157  H    1.006111
   158  H    1.003364
 Sum of Mulliken charges = 624.00000

 Dipole moment (field-independent basis, Debye):
    X=              7.8139    Y=              3.8458    Z=             -5.3774  Tot=             10.2354
 Quadrupole moment (field-independent basis, Debye-Ang):
   XX=            399.3448   YY=             -4.6345   ZZ=              0.5648
   XY=             93.0701   XZ=           -140.6843   YZ=              7.2264

 Normal termination of Gaussian 16 at Thu Oct 14 21:59:30 2021.
