 Gaussian 16, Revision A.03,
 Gaussian 16:  ES64L-G16RevA.03 25-Dec-2016

 --------------------------------------------------------
 #p PBE1PBE/Def2SVP td=(nstates=5) density=(transition=1)
 --------------------------------------------------------

 --------------------------------
 TDDFT excited states in gaussian
 --------------------------------
 Symbolic Z-matrix:
 Charge =  0 Multiplicity = 1

                         Standard orientation:
 ---------------------------------------------------------------------
 Center     Atomic      Atomic             Coordinates (Angstroms)
 Number     Number       Type             X           Y           Z
 ---------------------------------------------------------------------
      1         12           0       19.017204   -0.261383   -0.171559
      2          6           0       15.739280   -1.466479   -0.652735
      3          6           0       18.359500    2.100962   -2.536705
      4          6           0       21.860432    1.353377    0.823458
      5          6           0       19.200376   -2.497632    2.597133
      6          7           0       17.162838    0.349486   -1.367378
      7          6           0       15.996878   -0.338868   -1.543894
      8          6           0       15.015513    0.403590   -2.467236
      9          6           0       16.108652    1.273068   -3.261954
     10          6           0       17.296042    1.241494   -2.332061
     11          6           0       16.484140    0.753944   -4.675832
     12          6           0       13.970868    1.340618   -1.709559
     13          6           0       12.657092    1.682382   -2.395340
     14          1           0       12.341102    3.104883   -2.904424
     15          7           0       20.082507    1.509889   -0.764279
     16          6           0       19.681938    2.232939   -1.850080
     17          6           0       20.653262    3.164968   -2.219360
     18          6           0       21.730729    2.973403   -1.274614
     19          6           0       21.269568    1.935884   -0.309298
     20          6           0       20.544176    4.124008   -3.398661
     21          6           0       23.019096    3.762046   -1.339609
     22          8           0       23.179231    4.615469   -2.249960
     23          6           0       24.244549    3.507422   -0.392955
     24          7           0       20.278543   -0.575955    1.453136
     25          6           0       21.439596    0.223920    1.631936
     26          6           0       22.356739   -0.420569    2.633824
     27          6           0       21.445209   -1.385244    3.422987
     28          6           0       20.265640   -1.580725    2.426366
     29          6           0       23.574288   -1.238742    2.147453
     30          6           0       20.903709   -0.731290    4.801104
     31          6           0       21.789357   -0.802353    6.035940
     32          7           0       17.782531   -1.820182    0.653239
     33          6           0       17.993357   -2.635020    1.755424
     34          6           0       16.902100   -3.444624    2.008540
     35          6           0       15.965957   -3.064334    1.031696
     36          6           0       16.548896   -2.053129    0.249442
     37          6           0       16.819207   -4.465926    3.098754
     38          6           0       14.746576   -3.369944    0.494909
     39          8           0       13.986475   -4.284120    0.746554
     40          6           0       14.451438   -2.181155   -0.443758
     41          6           0       13.388521   -1.390387    0.258863
     42          8           0       13.509661   -0.932677    1.352435
     43          8           0       12.230028   -1.342049   -0.518567
     44          6           0       11.139816   -0.748307    0.174167
     45          1           0       18.273199    2.735470   -3.421513
     46          1           0       22.869767    1.698351    1.059252
     47          1           0       19.386458   -3.247232    3.368806
     48          1           0       14.570195   -0.251508   -3.215249
     49          1           0       15.667090    2.258313   -3.409074
     50          1           0       15.871944    1.380391   -5.325192
     51          1           0       16.191762   -0.285225   -4.826170
     52          1           0       17.536383    0.928192   -4.901198
     53          1           0       14.411269    2.318102   -1.512681
     54          1           0       13.816609    0.895360   -0.726440
     55          1           0       11.899664    1.398024   -1.663459
     56          1           0       12.547601    0.998511   -3.236872
     57          1           0       21.433732    4.369332   -3.979809
     58          1           0       20.093904    4.962954   -2.868584
     59          1           0       19.914576    3.688010   -4.174326
     60          1           0       24.620848    2.497168   -0.551555
     61          1           0       23.812261    3.677729    0.592864
     62          1           0       25.045448    4.245525   -0.434051
     63          1           0       22.672444    0.372091    3.311369
     64          1           0       21.942442   -2.326801    3.656362
     65          1           0       23.521748   -2.309396    2.344263
     66          1           0       24.502649   -0.681049    2.272582
     67          1           0       23.484365   -1.212041    1.061614
     68          1           0       19.991740   -1.312853    4.934487
     69          1           0       20.646614    0.318285    4.657047
     70          1           0       21.899870    0.197971    6.453685
     71          1           0       22.770169   -1.185197    5.752550
     72          1           0       21.333133   -1.410038    6.817830
     73          1           0       15.875374   -4.279637    3.610355
     74          1           0       17.596705   -4.340043    3.853260
     75          1           0       16.807280   -5.488809    2.721972
     76          1           0       14.069924   -2.581089   -1.382594
     77          1           0       10.557174   -1.523378    0.671308
     78          1           0       10.386684   -0.318724   -0.487498
     79          1           0       11.465243   -0.022993    0.917946
     80         12           0      -18.784961    0.359001    0.250116
     81          6           0      -15.699245   -0.591910   -1.116958
     82          6           0      -19.999265   -2.753768   -0.580749
     83          6           0      -21.688236    1.288332    1.514639
     84          6           0      -17.417787    3.533882    0.877542
     85          7           0      -17.873581   -1.445685   -0.655382
     86          6           0      -16.594296   -1.642947   -1.175507
     87          6           0      -16.266671   -3.159593   -1.468946
     88          6           0      -17.677533   -3.713719   -1.422898
     89          6           0      -18.602482   -2.568498   -0.836655
     90          6           0      -18.207397   -4.034128   -2.895257
     91          6           0      -15.436998   -3.628763   -0.192411
     92          6           0      -14.180744   -4.571699   -0.450856
     93          1           0      -14.450084   -5.461838   -1.637100
     94          7           0      -20.576148   -0.532810    0.297760
     95          6           0      -20.897227   -1.767571   -0.078243
     96          6           0      -22.273829   -2.088583    0.191190
     97          6           0      -22.754878   -1.011602    0.961830
     98          6           0      -21.662577    0.031563    0.906750
     99          6           0      -22.973257   -3.339832   -0.195953
    100          6           0      -24.022441   -0.877207    1.780298
    101          8           0      -24.194693    0.024834    2.607977
    102          6           0      -25.201667   -1.819013    1.521416
    103          7           0      -19.458342    2.208784    1.041956
    104          6           0      -20.730493    2.248919    1.562028
    105          6           0      -20.914020    3.581151    2.285800
    106          6           0      -19.476013    4.290324    2.193506
    107          6           0      -18.692989    3.292278    1.381647
    108          6           0      -22.145628    4.347575    1.686331
    109          6           0      -18.819226    4.688657    3.505898
    110          6           0      -18.362621    6.180459    3.552946
    111          7           0      -16.953074    1.290938   -0.074782
    112          6           0      -16.536729    2.626699    0.221923
    113          6           0      -15.202176    2.836239   -0.213447
    114          6           0      -14.849266    1.582823   -0.741302
    115          6           0      -15.963795    0.721488   -0.670808
    116          6           0      -14.319951    4.038798   -0.113600
    117          6           0      -13.796899    0.828659   -1.343568
    118          8           0      -12.670222    1.111970   -1.676852
    119          6           0      -14.294394   -0.636184   -1.500121
    120          6           0      -13.984325   -1.105621   -2.875055
    121          8           0      -14.513776   -0.752649   -3.925066
    122          8           0      -13.041287   -2.045594   -2.758764
    123          6           0      -12.631631   -2.717668   -3.974024
    124          1           0      -20.469521   -3.735842   -0.661897
    125          1           0      -22.677218    1.537360    1.907482
    126          1           0      -16.933289    4.484730    1.109349
    127          1           0      -15.638150   -3.142377   -2.358784
    128          1           0      -17.719083   -4.583616   -0.768273
    129          1           0      -17.479654   -3.775532   -3.664677
    130          1           0      -19.119273   -3.461099   -3.062137
    131          1           0      -18.422804   -5.102395   -2.870185
    132          1           0      -16.035254   -4.182646    0.530451
    133          1           0      -15.132392   -2.716305    0.320835
    134          1           0      -14.089166   -5.313493    0.342612
    135          1           0      -13.243324   -4.020848   -0.369752
    136          1           0      -23.180007   -3.877839    0.730200
    137          1           0      -22.340128   -3.975573   -0.813322
    138          1           0      -23.909663   -3.166198   -0.725305
    139          1           0      -26.002686   -1.232373    1.970631
    140          1           0      -25.082810   -2.809693    1.961784
    141          1           0      -25.525059   -1.943123    0.488094
    142          1           0      -21.161901    3.512785    3.344997
    143          1           0      -19.577753    5.190395    1.587049
    144          1           0      -22.712529    4.707742    2.544893
    145          1           0      -22.752101    3.749110    1.006456
    146          1           0      -21.847357    5.310626    1.270326
    147          1           0      -17.967445    4.070055    3.786815
    148          1           0      -19.639262    4.666888    4.225042
    149          1           0      -18.703878    6.716263    2.667044
    150          1           0      -17.281980    6.274100    3.447416
    151          1           0      -18.743985    6.683988    4.441510
    152          1           0      -14.060485    4.022287    0.945300
    153          1           0      -14.906811    4.884287   -0.471875
    154          1           0      -13.391330    3.922731   -0.670659
    155          1           0      -13.626885   -1.193960   -0.841942
    156          1           0      -12.329951   -1.983579   -4.721677
    157          1           0      -13.393879   -3.296911   -4.496226
    158          1           0      -11.782311   -3.343915   -3.700352
 ---------------------------------------------------------------------

 SCF Done:  E(RPBE1PBE) =  -4067.37835371     A.U. after   16 cycles

 Excitation energies and oscillator strengths:

 Excited State   1:      Singlet-A      1.7285 eV  717.31 nm  f=0.0000  <S**2>=0.000
     312 -> 313        0.70711
 This state for optimization and/or second-order correction.
 Total Energy, E(TD-HF/TD-DFT) =  -4067.31483425
 Copying the excited state density for this state as the 1-particle RhoCI density.

 Excited State   2:      Singlet-A      1.8612 eV  666.16 nm  f=0.6821  <S**2>=0.000
     310 -> 316       -0.13452
     311 -> 313       -0.34197
     312 -> 314        0.60239

 Excited State   3:      Singlet-A      1.8623 eV  665.74 nm  f=0.0732  <S**2>=0.000
     309 -> 315       -0.15793
     311 -> 313        0.59776
     312 -> 314        0.34443

 Excited State   4:      Singlet-A      2.1541 eV  575.57 nm  f=0.1183  <S**2>=0.000
     309 -> 313        0.65689
     311 -> 315        0.24319

 Excited State   5:      Singlet-A      2.2303 eV  555.92 nm  f=0.0000  <S**2>=0.000
     311 -> 314        0.70710

 The electronic state is 1-A.
 Alpha  occ. eigenvalues --  -46.93666 -46.91149 -19.25975 -19.25958 -19.21046
 Alpha  occ. eigenvalues --  -19.19890 -19.19113 -19.18329 -19.18135 -19.17877
 Alpha  occ. eigenvalues --  -14.42473 -14.42310 -14.41758 -14.41118 -14.39690
 Alpha  occ. eigenvalues --  -14.39415 -14.38807 -14.38243 -10.36644 -10.35399
 Alpha  occ. eigenvalues --  -10.33122 -10.32204 -10.30501 -10.30430 -10.30084
 Alpha  occ. eigenvalues --  -10.30069 -10.29426 -10.29422 -10.28622 -10.28510
 Alpha  occ. eigenvalues --  -10.28424 -10.28377 -10.28329 -10.28204 -10.28157
 Alpha  occ. eigenvalues --  -10.28068 -10.27931 -10.27893 -10.27661 -10.27016
 Alpha  occ. eigenvalues --  -10.27008 -10.26542 -10.26539 -10.26345 -10.26272
 Alpha  occ. eigenvalues --  -10.26192 -10.26065 -10.25939 -10.25805 -10.25804
 Alpha  occ. eigenvalues --  -10.25669 -10.25639 -10.25580 -10.25470 -10.25435
 Alpha  occ. eigenvalues --  -10.25384 -10.25376 -10.25351 -10.25225 -10.25187
 Alpha  occ. eigenvalues --  -10.25115 -10.25047 -10.25012 -10.24982 -10.24971
 Alpha  occ. eigenvalues --  -10.24890 -10.24810 -10.24412 -10.24395 -10.24150
 Alpha  occ. eigenvalues --  -10.24024 -10.23968 -10.23922 -10.23896 -10.23712
 Alpha  occ. eigenvalues --  -10.23640 -10.23528 -10.23445 -10.23406 -10.23396
 Alpha  occ. eigenvalues --  -10.23256 -10.23170 -10.23083 -10.22927 -10.21846
 Alpha  occ. eigenvalues --  -10.21621  -3.15546  -3.13435  -1.88384  -1.87912
 Alpha  occ. eigenvalues --   -1.87764  -1.86288  -1.85790  -1.85690  -1.12322
 Alpha  occ. eigenvalues --   -1.11961  -1.04830  -1.04790  -1.04339  -1.04260
 Alpha  occ. eigenvalues --   -1.02032  -1.01969  -1.00304  -0.99437  -0.99317
 Alpha  occ. eigenvalues --   -0.98731  -0.98571  -0.97502  -0.96994  -0.96498
 Alpha  occ. eigenvalues --   -0.88689  -0.87151  -0.83824  -0.83192  -0.83001
 Alpha  occ. eigenvalues --   -0.82954  -0.82677  -0.82667  -0.82222  -0.81901
 Alpha  occ. eigenvalues --   -0.81531  -0.81394  -0.80929  -0.80190  -0.78622
 Alpha  occ. eigenvalues --   -0.78270  -0.77891  -0.77833  -0.77136  -0.76542
 Alpha  occ. eigenvalues --   -0.76125  -0.75970  -0.75531  -0.74980  -0.74665
 Alpha  occ. eigenvalues --   -0.74558  -0.73026  -0.72366  -0.71812  -0.71673
 Alpha  occ. eigenvalues --   -0.71186  -0.71108  -0.70244  -0.70017  -0.69930
 Alpha  occ. eigenvalues --   -0.69296  -0.68041  -0.67592  -0.66665  -0.65804
 Alpha  occ. eigenvalues --   -0.63886  -0.63459  -0.63233  -0.62888  -0.62757
 Alpha  occ. eigenvalues --   -0.62053  -0.61774  -0.61613  -0.60648  -0.59794
 Alpha  occ. eigenvalues --   -0.59766  -0.59706  -0.59551  -0.59258  -0.59081
 Alpha  occ. eigenvalues --   -0.58740  -0.57319  -0.57089  -0.55195  -0.54992
 Alpha  occ. eigenvalues --   -0.54694  -0.54178  -0.54110  -0.53747  -0.53699
 Alpha  occ. eigenvalues --   -0.53522  -0.53208  -0.52684  -0.52342  -0.51879
 Alpha  occ. eigenvalues --   -0.51159  -0.51098  -0.50203  -0.50152  -0.49855
 Alpha  occ. eigenvalues --   -0.49821  -0.49631  -0.49020  -0.48438  -0.48415
 Alpha  occ. eigenvalues --   -0.48128  -0.48030  -0.47782  -0.47431  -0.47307
 Alpha  occ. eigenvalues --   -0.47201  -0.47194  -0.47071  -0.46726  -0.46655
 Alpha  occ. eigenvalues --   -0.46396  -0.46394  -0.46018  -0.45956  -0.45752
 Alpha  occ. eigenvalues --   -0.45501  -0.45444  -0.45254  -0.45124  -0.45111
 Alpha  occ. eigenvalues --   -0.44870  -0.44689  -0.44555  -0.44447  -0.44311
 Alpha  occ. eigenvalues --   -0.44237  -0.43954  -0.43811  -0.43609  -0.43518
 Alpha  occ. eigenvalues --   -0.43287  -0.43068  -0.43043  -0.42853  -0.42617
 Alpha  occ. eigenvalues --   -0.42572  -0.42341  -0.42179  -0.41991  -0.41881
 Alpha  occ. eigenvalues --   -0.41856  -0.41668  -0.41519  -0.41326  -0.41249
 Alpha  occ. eigenvalues --   -0.41100  -0.41057  -0.41040  -0.40788  -0.40761
 Alpha  occ. eigenvalues --   -0.40514  -0.40050  -0.40027  -0.39885  -0.39816
 Alpha  occ. eigenvalues --   -0.39514  -0.39469  -0.39379  -0.39289  -0.39279
 Alpha  occ. eigenvalues --   -0.39055  -0.38629  -0.38594  -0.38539  -0.38187
 Alpha  occ. eigenvalues --   -0.38132  -0.37974  -0.37888  -0.37751  -0.37547
 Alpha  occ. eigenvalues --   -0.37422  -0.37383  -0.37256  -0.37247  -0.37055
 Alpha  occ. eigenvalues --   -0.36772  -0.36483  -0.36368  -0.36170  -0.35980
 Alpha  occ. eigenvalues --   -0.35978  -0.35807  -0.35649  -0.35364  -0.35358
 Alpha  occ. eigenvalues --   -0.35191  -0.34995  -0.34647  -0.34321  -0.33704
 Alpha  occ. eigenvalues --   -0.33457  -0.33280  -0.32795  -0.32638  -0.32600
 Alpha  occ. eigenvalues --   -0.32403  -0.32044  -0.31939  -0.31871  -0.31571
 Alpha  occ. eigenvalues --   -0.31484  -0.31329  -0.30352  -0.30223  -0.29462
 Alpha  occ. eigenvalues --   -0.29012  -0.28983  -0.28154  -0.27189  -0.27053
 Alpha  occ. eigenvalues --   -0.26454  -0.26375  -0.25668  -0.25309  -0.25290
 Alpha  occ. eigenvalues --   -0.25205  -0.24603  -0.24594  -0.21279  -0.21004
 Alpha  occ. eigenvalues --   -0.19599  -0.18670
 Alpha virt. eigenvalues --   -0.11960  -0.11051  -0.05952  -0.05310  -0.04243
 Alpha virt. eigenvalues --   -0.03527  -0.01831  -0.01609  -0.01364   0.00142
 Alpha virt. eigenvalues --    0.00561   0.00787   0.01292   0.01454   0.01769

 Mulliken charges:
               1
     1  Mg  12.000000
     2  C    6.000000
     3  C    6.000000
     4  C    6.000000
     5  C    6.000000
     6  N    7.000000
     7  C    6.000000
     8  C    6.000000
     9  C    6.000000
    10  C    6.000000
    11  C    6.000000
    12  C    6.000000
    13  C    6.000000
    14  H    1.000000
    15  N    7.000000
    16  C    6.000000
    17  C    6.000000
    18  C    6.000000
    19  C    6.000000
    20  C    6.000000
    21  C    6.000000
    22  O    8.000000
    23  C    6.000000
    24  N    7.000000
    25  C    6.000000
    26  C    6.000000
    27  C    6.000000
    28  C    6.000000
    29  C    6.000000
    30  C    6.000000
    31  C    6.000000
    32  N    7.000000
    33  C    6.000000
    34  C    6.000000
    35  C    6.000000
    36  C    6.000000
    37  C    6.000000
    38  C    6.000000
    39  O    8.000000
    40  C    6.000000
    41  C    6.000000
    42  O    8.000000
    43  O    8.000000
    44  C    6.000000
    45  H    1.000000
    46  H    1.000000
    47  H    1.000000
    48  H    1.000000
    49  H    1.000000
    50  H    1.000000
    51  H    1.000000
    52  H    1.000000
    53  H    1.000000
    54  H    1.000000
    55  H    1.000000
    56  H    1.000000
    57  H    1.000000
    58  H    1.000000
    59  H    1.000000
    60  H    1.000000
    61  H    1.000000
    62  H    1.000000
    63  H    1.000000
    64  H    1.000000
    65  H    1.000000
    66  H    1.000000
    67  H    1.000000
    68  H    1.000000
    69  H    1.000000
    70  H    1.000000
    71  H    1.000000
    72  H    1.000000
    73  H    1.000000
    74  H    1.000000
    75  H    1.000000
    76  H    1.000000
    77  H    1.000000
    78  H    1.000000
    79  H    1.000000
    80  Mg  12.000000
    81  C    6.000000
    82  C    6.000000
    83  C    6.000000
    84  C    6.000000
    85  N    7.000000
    86  C    6.000000
    87  C    6.000000
    88  C    6.000000
    89  C    6.000000
    90  C    6.000000
    91  C    6.000000
    92  C    6.000000
    93  H    1.000000
    94  N    7.000000
    95  C    6.000000
    96  C    6.000000
    97  C    6.000000
    98  C    6.000000
    99  C    6.000000
   100  C    6.000000
   101  O    8.000000
   102  C    6.000000
   103  N    7.000000
   104  C    6.000000
   105  C    6.000000
   106  C    6.000000
   107  C    6.000000
   108  C    6.000000
   109  C    6.000000
   110  C    6.000000
   111  N    7.000000
   112  C    6.000000
   113  C    6.000000
   114  C    6.000000
   115  C    6.000000
   116  C    6.000000
   117  C    6.000000
   118  O    8.000000
   119  C    6.000000
   120  C    6.000000
   121  O    8.000000
   122  O    8.000000
   123  C    6.000000
   124  H    1.000000
   125  H    1.000000
   126  H    1.000000
   127  H    1.000000
   128  H    1.000000
   129  H    1.000000
   130  H    1.000000
   131  H    1.000000
   132  H    1.000000
   133  H    1.000000
   134  H    1.000000
   135  H    1.000000
   136  H    1.000000
   137  H    1.000000
   138  H    1.000000
   139  H    1.000000
   140  H    1.000000
   141  H    1.000000
   142  H    1.000000
   143  H    1.000000
   144  H    1.000000
   145  H    1.000000
   146  H    1.000000
   147  H    1.000000
   148  H    1.000000
   149  H    1.000000
   150  H    1.000000
   151  H    1.000000
   152  H    1.000000
   153  H    1.000000
   154  H    1.000000
   155  H    1.000000
   156  H    1.000000
   157  H    1.000000
   158  H    1.000000
 Sum of Mulliken charges = 624.00000

 Dipole moment (field-independent basis, Debye):
    X=              0.0000    Y=              0.0000    Z=             -0.0000  Tot=              0.0000
 Quadrupole moment (field-independent basis, Debye-Ang):
   XX=             -0.0000   YY=              0.0000   ZZ=              0.0000
   XY=              0.0000   XZ=             -0.0000   YZ=              0.0000

 Normal termination of Gaussian 16 at Thu Oct 14 18:26:43 2021.
