 Gaussian 16, Revision A.03,
 Gaussian 16:  ES64L-G16RevA.03 25-Dec-2016

 --------------------------------------------------------
 #p PBE1PBE/Def2SVP td=(nstates=5) density=(transition=1)
 --------------------------------------------------------

 --------------------------------
 TDDFT excited states in gaussian
 --------------------------------
 Symbolic Z-matrix:
 Charge =  0 Multiplicity = 1

                         Standard orientation:
 ---------------------------------------------------------------------
 Center     Atomic      Atomic             Coordinates (Angstroms)
 Number     Number       Type             X           Y           Z
 ---------------------------------------------------------------------
      1         12           0        8.175855   -1.113875   -0.161735
      2          6           0       10.269351    1.807008   -0.096439
      3          6           0        5.433384    1.119169    0.089770
      4          6           0        5.964687   -3.815573   -0.072975
      5          6           0       10.835997   -3.128233    0.000471
      6          7           0        7.952213    1.270510    0.191935
      7          6           0        8.931236    2.190572    0.056630
      8          6           0        8.343946    3.632170    0.268930
      9          6           0        6.834251    3.288991    0.532932
     10          6           0        6.682011    1.792427    0.176479
     11          6           0        6.391054    3.635720    1.997146
     12          6           0        8.540470    4.551025   -0.936621
     13          6           0        8.986598    5.944858   -0.638624
     14          1           0        9.298173    6.887531   -1.810026
     15          7           0        6.048327   -1.346661   -0.221631
     16          6           0        5.131919   -0.307460   -0.099596
     17          6           0        3.799112   -0.871251   -0.181777
     18          6           0        3.901298   -2.244664   -0.328966
     19          6           0        5.359449   -2.545099   -0.131681
     20          6           0        2.528691   -0.096298    0.019687
     21          6           0        2.789959   -3.366615   -0.445428
     22          8           0        2.953065   -4.555729   -0.569995
     23          6           0        1.344565   -2.940257   -0.584347
     24          7           0        8.324469   -3.116868    0.095172
     25          6           0        7.343405   -4.073849    0.104736
     26          6           0        7.894064   -5.471823    0.471198
     27          6           0        9.456426   -5.296916    0.248033
     28          6           0        9.540651   -3.732930    0.070522
     29          6           0        7.466917   -5.941915    1.898475
     30          6           0       10.026639   -6.075213   -0.976604
     31          6           0        9.575485   -5.575300   -2.347135
     32          7           0       10.123639   -0.817739   -0.037714
     33          6           0       11.178971   -1.771955   -0.044148
     34          6           0       12.476858   -1.102511    0.006410
     35          6           0       12.159280    0.265640   -0.067139
     36          6           0       10.746780    0.406823   -0.105032
     37          6           0       13.780020   -1.755273    0.047445
     38          6           0       12.794178    1.579333   -0.095644
     39          8           0       13.978430    1.867898   -0.137605
     40          6           0       11.588264    2.662587   -0.025751
     41          6           0       11.938523    3.513166   -1.249078
     42          8           0       11.824495    3.219768   -2.452839
     43          8           0       12.470529    4.650815   -0.837349
     44          6           0       12.644310    5.790715   -1.826466
     45          1           0        4.595652    1.819200    0.092346
     46          1           0        5.352807   -4.720347   -0.038440
     47          1           0       11.659688   -3.844397   -0.021969
     48          1           0        8.938954    4.044191    1.083285
     49          1           0        6.174620    3.816819   -0.157130
     50          1           0        5.530048    4.297418    2.091608
     51          1           0        7.211090    3.933306    2.650937
     52          1           0        5.959310    2.817734    2.574296
     53          1           0        7.506114    4.792950   -1.181560
     54          1           0        9.043649    4.062851   -1.771975
     55          1           0        9.813326    6.116348    0.052638
     56          1           0        8.115919    6.377258   -0.145501
     57          1           0        2.719016    0.976020    0.056443
     58          1           0        1.965031   -0.354187    0.917633
     59          1           0        1.790979   -0.185123   -0.777973
     60          1           0        1.176166   -2.324656   -1.467896
     61          1           0        1.177544   -2.433789    0.366335
     62          1           0        0.801820   -3.883192   -0.517748
     63          1           0        7.365043   -6.141227   -0.208049
     64          1           0       10.098828   -5.359587    1.126658
     65          1           0        6.766378   -6.776585    1.873902
     66          1           0        7.102275   -5.192212    2.599798
     67          1           0        8.428848   -6.250996    2.307848
     68          1           0        9.953070   -7.138777   -0.749194
     69          1           0       11.105866   -5.923335   -0.980616
     70          1           0        8.813523   -4.796727   -2.343099
     71          1           0        9.139489   -6.442368   -2.842699
     72          1           0       10.333968   -5.063278   -2.938165
     73          1           0       14.633745   -1.078623    0.089960
     74          1           0       13.820662   -2.358096   -0.859692
     75          1           0       13.779251   -2.433963    0.901549
     76          1           0       11.695232    3.347817    0.815133
     77          1           0       12.781001    6.686674   -1.220529
     78          1           0       11.750623    5.975943   -2.421608
     79          1           0       13.454762    5.629161   -2.538168
     80         12           0       -8.640762   -0.332320   -0.321803
     81          6           0       -6.601760    2.403724    0.833759
     82          6           0      -10.614841    1.851461   -1.899748
     83          6           0      -10.902747   -2.791666   -0.578305
     84          6           0       -6.734716   -2.399144    1.775693
     85          7           0       -8.624956    1.839077   -0.450614
     86          6           0       -7.619204    2.748653   -0.081799
     87          6           0       -7.871300    4.170801   -0.713067
     88          6           0       -9.189970    3.952689   -1.515004
     89          6           0       -9.477490    2.438950   -1.329746
     90          6           0      -10.377223    4.802609   -1.139417
     91          6           0       -6.607598    4.707726   -1.575622
     92          6           0       -6.104182    6.105978   -1.196658
     93          1           0       -6.125395    7.137253   -2.385514
     94          7           0      -10.454380   -0.486547   -1.256092
     95          6           0      -11.123783    0.507503   -1.848504
     96          6           0      -12.410825    0.051185   -2.376133
     97          6           0      -12.518472   -1.298181   -1.891815
     98          6           0      -11.266293   -1.590640   -1.186406
     99          6           0      -13.311031    0.903479   -3.163186
    100          6           0      -13.803358   -2.172440   -2.038642
    101          8           0      -13.838678   -3.335636   -1.673582
    102          6           0      -15.065518   -1.659578   -2.655325
    103          7           0       -8.771211   -2.245810    0.464321
    104          6           0       -9.775067   -3.135390    0.096754
    105          6           0       -9.516852   -4.553809    0.703049
    106          6           0       -8.008910   -4.472178    1.147771
    107          6           0       -7.784139   -2.961684    1.082600
    108          6           0      -10.538415   -5.094993    1.755636
    109          6           0       -7.027923   -5.231915    0.213350
    110          6           0       -5.880555   -5.990656    0.831067
    111          7           0       -7.035194   -0.079606    1.075753
    112          6           0       -6.384062   -1.009039    1.836111
    113          6           0       -5.188433   -0.336166    2.508821
    114          6           0       -5.209696    0.976480    2.103560
    115          6           0       -6.388555    1.102867    1.291412
    116          6           0       -4.180413   -1.099886    3.337116
    117          6           0       -4.587447    2.285415    2.192976
    118          8           0       -3.556002    2.525961    2.854610
    119          6           0       -5.559784    3.352724    1.408541
    120          6           0       -6.227166    4.378146    2.301098
    121          8           0       -6.896992    4.023843    3.291378
    122          8           0       -5.851428    5.685193    1.988266
    123          6           0       -6.137651    6.617513    3.072432
    124          1           0      -11.240575    2.490370   -2.526077
    125          1           0      -11.663822   -3.551648   -0.765329
    126          1           0       -6.117647   -3.126496    2.308209
    127          1           0       -7.989941    4.799473    0.169209
    128          1           0       -8.969348    4.335521   -2.512380
    129          1           0      -10.183599    5.460833   -0.292344
    130          1           0      -11.027837    4.026392   -0.737994
    131          1           0      -10.738024    5.426097   -1.958010
    132          1           0       -6.982985    4.667621   -2.597777
    133          1           0       -5.815428    3.960122   -1.544809
    134          1           0       -5.116171    5.971186   -0.756473
    135          1           0       -6.753583    6.522563   -0.425637
    136          1           0      -14.340725    1.056293   -2.841466
    137          1           0      -13.520476    0.318290   -4.057889
    138          1           0      -12.861401    1.807270   -3.574984
    139          1           0      -14.792482   -1.396511   -3.677963
    140          1           0      -15.306562   -0.729798   -2.139292
    141          1           0      -15.795792   -2.459126   -2.537184
    142          1           0       -9.582816   -5.215865   -0.160367
    143          1           0       -7.859375   -4.742845    2.192723
    144          1           0      -11.342010   -4.358949    1.747928
    145          1           0      -10.112027   -5.277211    2.741677
    146          1           0      -11.060882   -5.984369    1.401133
    147          1           0       -6.674678   -4.370633   -0.353344
    148          1           0       -7.503763   -5.905239   -0.499903
    149          1           0       -5.829490   -6.934334    0.287834
    150          1           0       -6.044572   -6.235899    1.880874
    151          1           0       -4.977796   -5.453831    0.538569
    152          1           0       -4.511898   -2.137640    3.368040
    153          1           0       -4.240725   -0.735924    4.362541
    154          1           0       -3.180030   -0.937778    2.936307
    155          1           0       -4.982112    3.816197    0.608793
    156          1           0       -5.264261    7.020109    3.583589
    157          1           0       -6.806988    6.221191    3.836122
    158          1           0       -6.666298    7.454855    2.617644
 ---------------------------------------------------------------------

 SCF Done:  E(RPBE1PBE) =  -4067.35010666     A.U. after   16 cycles

 Excitation energies and oscillator strengths:

 Excited State   1:      Singlet-A      1.8015 eV  688.23 nm  f=0.0000  <S**2>=0.000
     312 -> 313        0.70701
 This state for optimization and/or second-order correction.
 Total Energy, E(TD-HF/TD-DFT) =  -4067.28390328
 Copying the excited state density for this state as the 1-particle RhoCI density.

 Excited State   2:      Singlet-A      1.8155 eV  682.91 nm  f=0.6046  <S**2>=0.000
     310 -> 315        0.16543
     311 -> 313        0.22954
     312 -> 314        0.65413
     312 <- 314       -0.10223

 Excited State   3:      Singlet-A      1.8374 eV  674.78 nm  f=0.0000  <S**2>=0.000
     311 -> 314        0.70701

 Excited State   4:      Singlet-A      1.8541 eV  668.70 nm  f=0.2058  <S**2>=0.000
     309 -> 316        0.15829
     311 -> 313        0.65745
     312 -> 314       -0.22691
     311 <- 313       -0.10861

 Excited State   5:      Singlet-A      2.2318 eV  555.53 nm  f=0.0836  <S**2>=0.000
     310 -> 314        0.63898
     312 -> 315       -0.29184

 The electronic state is 1-A.
 Alpha  occ. eigenvalues --  -46.91969 -46.91604 -19.27439 -19.25495 -19.21166
 Alpha  occ. eigenvalues --  -19.20264 -19.19576 -19.19531 -19.19004 -19.18186
 Alpha  occ. eigenvalues --  -14.42230 -14.41858 -14.41388 -14.40999 -14.39619
 Alpha  occ. eigenvalues --  -14.39441 -14.39310 -14.39229 -10.37938 -10.35427
 Alpha  occ. eigenvalues --  -10.33778 -10.32607 -10.32509 -10.32322 -10.29451
 Alpha  occ. eigenvalues --  -10.29351 -10.29132 -10.29096 -10.28968 -10.28965
 Alpha  occ. eigenvalues --  -10.28868 -10.28724 -10.28562 -10.28422 -10.28185
 Alpha  occ. eigenvalues --  -10.28155 -10.28122 -10.27769 -10.27725 -10.27651
 Alpha  occ. eigenvalues --  -10.27568 -10.27540 -10.26897 -10.26664 -10.26581
 Alpha  occ. eigenvalues --  -10.26561 -10.26535 -10.26453 -10.26267 -10.26235
 Alpha  occ. eigenvalues --  -10.26218 -10.26121 -10.26112 -10.26109 -10.25946
 Alpha  occ. eigenvalues --  -10.25880 -10.25825 -10.25716 -10.25682 -10.25469
 Alpha  occ. eigenvalues --  -10.25325 -10.25266 -10.25058 -10.25058 -10.24814
 Alpha  occ. eigenvalues --  -10.24791 -10.24751 -10.24423 -10.24302 -10.24112
 Alpha  occ. eigenvalues --  -10.24046 -10.23688 -10.23642 -10.23626 -10.23544
 Alpha  occ. eigenvalues --  -10.23505 -10.23494 -10.23488 -10.23381 -10.23165
 Alpha  occ. eigenvalues --  -10.23137 -10.23109 -10.23089 -10.22911 -10.22894
 Alpha  occ. eigenvalues --  -10.22760  -3.14195  -3.13871  -1.87017  -1.86698
 Alpha  occ. eigenvalues --   -1.86553  -1.86446  -1.86263  -1.86100  -1.11192
 Alpha  occ. eigenvalues --   -1.10652  -1.06070  -1.05086  -1.04728  -1.03878
 Alpha  occ. eigenvalues --   -1.02838  -1.00014  -0.98734  -0.98283  -0.98154
 Alpha  occ. eigenvalues --   -0.97622  -0.97393  -0.96752  -0.96685  -0.96266
 Alpha  occ. eigenvalues --   -0.87064  -0.85109  -0.83569  -0.83360  -0.83166
 Alpha  occ. eigenvalues --   -0.82933  -0.82517  -0.82177  -0.81789  -0.81726
 Alpha  occ. eigenvalues --   -0.81600  -0.81116  -0.80634  -0.80568  -0.78740
 Alpha  occ. eigenvalues --   -0.78272  -0.78050  -0.77774  -0.77128  -0.76523
 Alpha  occ. eigenvalues --   -0.76295  -0.75673  -0.75558  -0.75237  -0.74719
 Alpha  occ. eigenvalues --   -0.74396  -0.72972  -0.72289  -0.72050  -0.71517
 Alpha  occ. eigenvalues --   -0.71384  -0.71117  -0.70637  -0.70150  -0.69370
 Alpha  occ. eigenvalues --   -0.69292  -0.67026  -0.66946  -0.65970  -0.65604
 Alpha  occ. eigenvalues --   -0.64324  -0.63578  -0.63046  -0.62910  -0.62361
 Alpha  occ. eigenvalues --   -0.61852  -0.61339  -0.60550  -0.59887  -0.59776
 Alpha  occ. eigenvalues --   -0.59643  -0.59569  -0.59524  -0.59060  -0.59030
 Alpha  occ. eigenvalues --   -0.58545  -0.57312  -0.56305  -0.55059  -0.54445
 Alpha  occ. eigenvalues --   -0.53994  -0.53809  -0.53476  -0.53367  -0.53288
 Alpha  occ. eigenvalues --   -0.53070  -0.52277  -0.52105  -0.51865  -0.51015
 Alpha  occ. eigenvalues --   -0.50548  -0.50156  -0.50111  -0.49898  -0.49799
 Alpha  occ. eigenvalues --   -0.49530  -0.49511  -0.49069  -0.48517  -0.48407
 Alpha  occ. eigenvalues --   -0.48296  -0.47867  -0.47688  -0.47624  -0.47427
 Alpha  occ. eigenvalues --   -0.47378  -0.47154  -0.47012  -0.46877  -0.46585
 Alpha  occ. eigenvalues --   -0.46541  -0.46321  -0.46225  -0.46091  -0.46041
 Alpha  occ. eigenvalues --   -0.45867  -0.45490  -0.45482  -0.45365  -0.45032
 Alpha  occ. eigenvalues --   -0.44609  -0.44325  -0.44275  -0.44133  -0.44089
 Alpha  occ. eigenvalues --   -0.44005  -0.43755  -0.43730  -0.43562  -0.43464
 Alpha  occ. eigenvalues --   -0.43436  -0.43134  -0.43118  -0.42979  -0.42958
 Alpha  occ. eigenvalues --   -0.42766  -0.42626  -0.42112  -0.42081  -0.42060
 Alpha  occ. eigenvalues --   -0.41831  -0.41665  -0.41380  -0.41335  -0.41219
 Alpha  occ. eigenvalues --   -0.40967  -0.40957  -0.40837  -0.40814  -0.40598
 Alpha  occ. eigenvalues --   -0.40449  -0.40263  -0.40190  -0.39802  -0.39596
 Alpha  occ. eigenvalues --   -0.39480  -0.39253  -0.39128  -0.39052  -0.39031
 Alpha  occ. eigenvalues --   -0.38907  -0.38752  -0.38708  -0.38569  -0.38298
 Alpha  occ. eigenvalues --   -0.38133  -0.38094  -0.38015  -0.37816  -0.37791
 Alpha  occ. eigenvalues --   -0.37766  -0.37666  -0.37636  -0.37136  -0.36857
 Alpha  occ. eigenvalues --   -0.36778  -0.36722  -0.36614  -0.36163  -0.36131
 Alpha  occ. eigenvalues --   -0.35765  -0.35638  -0.35626  -0.35233  -0.35194
 Alpha  occ. eigenvalues --   -0.35041  -0.34577  -0.34429  -0.34191  -0.33912
 Alpha  occ. eigenvalues --   -0.33480  -0.33442  -0.32974  -0.32948  -0.32624
 Alpha  occ. eigenvalues --   -0.32453  -0.32419  -0.31684  -0.31618  -0.31285
 Alpha  occ. eigenvalues --   -0.30984  -0.30571  -0.30008  -0.29794  -0.28994
 Alpha  occ. eigenvalues --   -0.28708  -0.28563  -0.27538  -0.27250  -0.26809
 Alpha  occ. eigenvalues --   -0.26577  -0.26067  -0.25977  -0.25747  -0.25746
 Alpha  occ. eigenvalues --   -0.25591  -0.25578  -0.25424  -0.21222  -0.20933
 Alpha  occ. eigenvalues --   -0.18612  -0.18530
 Alpha virt. eigenvalues --   -0.11098  -0.11049  -0.05393  -0.05002  -0.04480
 Alpha virt. eigenvalues --   -0.03490  -0.02410  -0.01960  -0.01887  -0.00961
 Alpha virt. eigenvalues --    0.00190   0.00694   0.00968   0.01129   0.01451

 Mulliken charges:
               1
     1  Mg  11.999997
     2  C    6.000059
     3  C    5.999949
     4  C    5.999925
     5  C    6.000001
     6  N    7.000033
     7  C    5.999904
     8  C    6.000016
     9  C    5.999979
    10  C    6.000100
    11  C    5.999993
    12  C    6.000017
    13  C    6.000007
    14  H    0.999997
    15  N    6.999986
    16  C    6.000147
    17  C    6.000046
    18  C    6.000056
    19  C    6.000124
    20  C    5.999976
    21  C    6.000040
    22  O    8.000086
    23  C    5.999993
    24  N    6.999960
    25  C    6.000129
    26  C    5.999979
    27  C    6.000014
    28  C    5.999886
    29  C    5.999984
    30  C    6.000018
    31  C    6.000020
    32  N    7.000008
    33  C    5.999880
    34  C    5.999895
    35  C    5.999989
    36  C    5.999892
    37  C    6.000001
    38  C    5.999941
    39  O    7.999901
    40  C    5.999992
    41  C    5.999988
    42  O    7.999980
    43  O    7.999999
    44  C    6.000007
    45  H    1.000037
    46  H    1.000022
    47  H    0.999957
    48  H    1.000012
    49  H    0.999995
    50  H    1.000010
    51  H    1.000041
    52  H    0.999993
    53  H    0.999970
    54  H    1.000012
    55  H    1.000011
    56  H    0.999982
    57  H    1.000058
    58  H    1.000098
    59  H    1.000056
    60  H    1.000024
    61  H    1.000034
    62  H    1.000047
    63  H    0.999989
    64  H    1.000006
    65  H    0.999997
    66  H    0.999995
    67  H    1.000041
    68  H    0.999964
    69  H    1.000012
    70  H    0.999964
    71  H    0.999971
    72  H    1.000013
    73  H    0.999951
    74  H    0.999938
    75  H    0.999939
    76  H    0.999969
    77  H    0.999984
    78  H    0.999982
    79  H    0.999994
    80  Mg  12.000002
    81  C    6.000031
    82  C    5.999982
    83  C    5.999985
    84  C    6.000027
    85  N    7.000011
    86  C    5.999951
    87  C    6.000014
    88  C    5.999981
    89  C    6.000048
    90  C    5.999998
    91  C    6.000007
    92  C    6.000002
    93  H    0.999991
    94  N    6.999993
    95  C    6.000060
    96  C    6.000038
    97  C    6.000020
    98  C    6.000056
    99  C    5.999991
   100  C    6.000019
   101  O    8.000039
   102  C    5.999998
   103  N    7.000002
   104  C    6.000043
   105  C    5.999988
   106  C    6.000014
   107  C    5.999957
   108  C    6.000003
   109  C    6.000002
   110  C    6.000004
   111  N    6.999996
   112  C    5.999943
   113  C    5.999936
   114  C    5.999999
   115  C    5.999954
   116  C    6.000003
   117  C    5.999970
   118  O    7.999952
   119  C    5.999996
   120  C    5.999992
   121  O    7.999996
   122  O    7.999995
   123  C    6.000003
   124  H    1.000016
   125  H    1.000015
   126  H    0.999984
   127  H    1.000001
   128  H    1.000010
   129  H    1.000019
   130  H    0.999992
   131  H    1.000006
   132  H    0.999986
   133  H    1.000002
   134  H    1.000003
   135  H    1.000000
   136  H    1.000036
   137  H    1.000030
   138  H    1.000028
   139  H    1.000009
   140  H    1.000008
   141  H    1.000023
   142  H    1.000001
   143  H    1.000003
   144  H    0.999994
   145  H    1.000017
   146  H    1.000004
   147  H    0.999998
   148  H    0.999985
   149  H    0.999995
   150  H    1.000001
   151  H    0.999997
   152  H    0.999973
   153  H    0.999971
   154  H    0.999974
   155  H    0.999984
   156  H    0.999997
   157  H    0.999997
   158  H    0.999992
 Sum of Mulliken charges = 624.00000

 Dipole moment (field-independent basis, Debye):
    X=             -0.0560    Y=             -0.0050    Z=             -0.0075  Tot=              0.0567
 Quadrupole moment (field-independent basis, Debye-Ang):
   XX=             -0.3308   YY=             -0.0078   ZZ=             -0.0005
   XY=              0.0388   XZ=              0.0879   YZ=              0.0014

 Normal termination of Gaussian 16 at Thu Oct 14 15:38:36 2021.
