 Gaussian 16, Revision A.03,
 Gaussian 16:  ES64L-G16RevA.03 25-Dec-2016

 --------------------------------------------------------
 #p PBE1PBE/Def2SVP td=(nstates=5) density=(transition=1)
 --------------------------------------------------------

 --------------------------------
 TDDFT excited states in gaussian
 --------------------------------
 Symbolic Z-matrix:
 Charge =  0 Multiplicity = 1

                         Standard orientation:
 ---------------------------------------------------------------------
 Center     Atomic      Atomic             Coordinates (Angstroms)
 Number     Number       Type             X           Y           Z
 ---------------------------------------------------------------------
      1         12           0      -25.891104    0.289164    0.548440
      2          6           0      -23.294354   -1.778083   -0.378606
      3          6           0      -28.031913   -2.044011   -0.747816
      4          6           0      -28.422421    2.431270    1.187362
      5          6           0      -23.619746    2.814912    1.290502
      6          7           0      -25.586530   -1.655711   -0.585410
      7          6           0      -24.522662   -2.358993   -0.656679
      8          6           0      -24.677875   -3.842758   -1.275333
      9          6           0      -26.207651   -3.759532   -1.660651
     10          6           0      -26.670950   -2.358037   -1.038208
     11          6           0      -26.513908   -3.719936   -3.248646
     12          6           0      -24.326413   -5.036273   -0.285231
     13          6           0      -23.734585   -6.351000   -0.906399
     14          1           0      -23.788230   -6.471970   -2.399420
     15          7           0      -27.893256    0.190107    0.342843
     16          6           0      -28.661852   -0.933062   -0.158080
     17          6           0      -30.073682   -0.586367   -0.032283
     18          6           0      -30.201638    0.750152    0.421362
     19          6           0      -28.812701    1.169421    0.715790
     20          6           0      -31.061099   -1.646535   -0.364392
     21          6           0      -31.452855    1.611658    0.712102
     22          8           0      -31.450004    2.771508    1.000126
     23          6           0      -32.799754    0.917553    0.425482
     24          7           0      -26.071315    2.389125    1.057433
     25          6           0      -27.170983    3.042583    1.262365
     26          6           0      -26.912731    4.567024    1.428565
     27          6           0      -25.375400    4.667960    1.574350
     28          6           0      -24.959141    3.201350    1.312541
     29          6           0      -27.483310    5.359923    0.233474
     30          6           0      -24.942671    5.247597    2.955993
     31          6           0      -25.217486    6.748191    3.145402
     32          7           0      -23.842069    0.522321    0.486970
     33          6           0      -23.067185    1.583020    0.921381
     34          6           0      -21.695159    1.167915    0.792325
     35          6           0      -21.672843   -0.148250    0.241213
     36          6           0      -23.054376   -0.462906    0.126531
     37          6           0      -20.570133    1.972687    1.099099
     38          6           0      -20.895638   -1.281675   -0.147538
     39          8           0      -19.635136   -1.381737   -0.229399
     40          6           0      -21.943180   -2.336675   -0.676178
     41          6           0      -21.626536   -2.600975   -2.063502
     42          8           0      -21.974266   -1.887836   -3.004388
     43          8           0      -20.766055   -3.668984   -2.084804
     44          6           0      -20.152231   -3.892465   -3.410849
     45          1           0      -28.737759   -2.757925   -1.176355
     46          1           0      -29.292256    3.059575    1.393355
     47          1           0      -22.947654    3.617051    1.603941
     48          1           0      -24.062894   -3.806185   -2.174895
     49          1           0      -26.741374   -4.622075   -1.262071
     50          1           0      -25.601474   -3.409521   -3.758560
     51          1           0      -27.311761   -3.005421   -3.450540
     52          1           0      -26.844927   -4.655320   -3.701027
     53          1           0      -25.288069   -5.285574    0.162496
     54          1           0      -23.814531   -4.764230    0.638487
     55          1           0      -24.185662   -7.263237   -0.516133
     56          1           0      -22.664833   -6.388702   -0.700499
     57          1           0      -31.259479   -1.664750   -1.436416
     58          1           0      -31.942685   -1.623876    0.276384
     59          1           0      -30.601092   -2.597583   -0.097115
     60          1           0      -33.089924    0.166559    1.160930
     61          1           0      -32.613649    0.491993   -0.560085
     62          1           0      -33.655838    1.578281    0.292174
     63          1           0      -27.411370    4.785696    2.372532
     64          1           0      -24.969982    5.263728    0.756583
     65          1           0      -27.592510    4.801506   -0.696486
     66          1           0      -26.908126    6.207473   -0.140729
     67          1           0      -28.461866    5.708912    0.563099
     68          1           0      -23.865049    5.130614    3.061960
     69          1           0      -25.422850    4.685566    3.757738
     70          1           0      -25.769665    7.093768    2.271448
     71          1           0      -24.282502    7.294359    3.019582
     72          1           0      -25.652276    7.091338    4.083874
     73          1           0      -20.821864    2.439159    2.051614
     74          1           0      -20.352229    2.784057    0.404815
     75          1           0      -19.679212    1.344320    1.075077
     76          1           0      -21.713148   -3.222814   -0.084033
     77          1           0      -19.512038   -3.029316   -3.595296
     78          1           0      -20.898484   -4.113710   -4.173188
     79          1           0      -19.515452   -4.773223   -3.326461
     80         12           0       26.241721   -0.271954   -0.327639
     81          6           0       22.762436   -0.387543    0.451402
     82          6           0       25.489232    2.222251   -2.383045
     83          6           0       29.507708    0.595676   -0.372931
     84          6           0       26.701142   -2.236773    2.609811
     85          7           0       24.400089    0.673642   -0.964729
     86          6           0       23.059439    0.428500   -0.596519
     87          6           0       22.040625    1.347142   -1.341815
     88          6           0       22.985280    2.136577   -2.291774
     89          6           0       24.385645    1.593605   -1.936638
     90          6           0       22.491465    1.905638   -3.729665
     91          6           0       21.133151    2.309584   -0.460317
     92          6           0       19.634761    2.029670   -0.460633
     93          1           0       18.697195    3.181913   -0.875574
     94          7           0       27.362204    1.102260   -1.287978
     95          6           0       26.832666    2.086020   -2.122884
     96          6           0       27.864161    2.806812   -2.752271
     97          6           0       29.072193    2.285291   -2.327443
     98          6           0       28.729604    1.317244   -1.305246
     99          6           0       27.753211    3.977490   -3.798257
    100          6           0       30.405189    2.754129   -2.861865
    101          8           0       30.533460    3.520687   -3.769659
    102          6           0       31.695442    2.041019   -2.221236
    103          7           0       27.872673   -0.684371    0.970833
    104          6           0       29.132575   -0.228693    0.693224
    105          6           0       30.053748   -0.649849    1.910340
    106          6           0       29.247956   -1.629652    2.779539
    107          6           0       27.830525   -1.511444    2.100191
    108          6           0       31.439218   -1.090961    1.532342
    109          6           0       29.169508   -1.097672    4.205124
    110          6           0       28.903631   -2.095299    5.301040
    111          7           0       24.996051   -1.358847    1.096848
    112          6           0       25.334493   -2.115956    2.192958
    113          6           0       24.170794   -2.665578    2.787791
    114          6           0       23.064778   -2.093301    2.115895
    115          6           0       23.658193   -1.209499    1.170841
    116          6           0       24.092328   -3.525457    3.984957
    117          6           0       21.608499   -1.949837    1.985206
    118          8           0       20.715533   -2.552532    2.595854
    119          6           0       21.330302   -0.856489    0.883459
    120          6           0       20.751452   -1.488120   -0.272241
    121          8           0       21.450791   -2.175301   -1.053702
    122          8           0       19.430452   -1.222601   -0.255111
    123          6           0       18.614072   -1.592671   -1.443635
    124          1           0       25.274744    3.020960   -3.096633
    125          1           0       30.565433    0.852360   -0.462460
    126          1           0       26.782353   -2.941135    3.439919
    127          1           0       21.363388    0.735999   -1.938354
    128          1           0       23.008287    3.207380   -2.091695
    129          1           0       23.249246    2.322581   -4.392381
    130          1           0       21.534566    2.361267   -3.983964
    131          1           0       22.379796    0.846671   -3.965209
    132          1           0       21.207884    3.271640   -0.967278
    133          1           0       21.531515    2.376137    0.552152
    134          1           0       19.370261    1.686547    0.540157
    135          1           0       19.421081    1.229748   -1.170430
    136          1           0       28.351472    4.792122   -3.389628
    137          1           0       26.724501    4.313751   -3.926876
    138          1           0       28.021603    3.725915   -4.824273
    139          1           0       32.546313    2.406438   -2.795427
    140          1           0       31.476222    0.980925   -2.350890
    141          1           0       31.646360    2.379297   -1.186263
    142          1           0       30.182229    0.285320    2.456505
    143          1           0       29.605251   -2.658496    2.822258
    144          1           0       31.783377   -1.809668    2.275559
    145          1           0       32.048097   -0.186672    1.527457
    146          1           0       31.531797   -1.462904    0.512623
    147          1           0       28.440059   -0.295865    4.323242
    148          1           0       30.072397   -0.559278    4.493191
    149          1           0       28.990085   -3.128432    4.964989
    150          1           0       27.888786   -1.928098    5.662495
    151          1           0       29.498406   -1.865131    6.184935
    152          1           0       24.993083   -4.127481    4.108712
    153          1           0       23.224711   -4.166213    3.825696
    154          1           0       24.009895   -2.839125    4.828033
    155          1           0       20.777943    0.015313    1.234147
    156          1           0       17.672142   -1.844389   -0.954111
    157          1           0       19.037342   -2.401347   -2.038715
    158          1           0       18.332210   -0.713645   -2.024243
 ---------------------------------------------------------------------

 SCF Done:  E(RPBE1PBE) =  -4067.39012411     A.U. after   16 cycles

 Excitation energies and oscillator strengths:

 Excited State   1:      Singlet-A      1.8689 eV  663.41 nm  f=0.3715  <S**2>=0.000
     309 -> 315        0.16691
     311 -> 313        0.69416
     311 <- 313       -0.10955
 This state for optimization and/or second-order correction.
 Total Energy, E(TD-HF/TD-DFT) =  -4067.32144387
 Copying the excited state density for this state as the 1-particle RhoCI density.

 Excited State   2:      Singlet-A      1.9096 eV  649.28 nm  f=0.3712  <S**2>=0.000
     310 -> 316       -0.19445
     312 -> 314        0.68530

 Excited State   3:      Singlet-A      2.0007 eV  619.71 nm  f=0.0000  <S**2>=0.000
     312 -> 313        0.70711

 Excited State   4:      Singlet-A      2.0896 eV  593.34 nm  f=0.0000  <S**2>=0.000
     311 -> 314        0.70711

 Excited State   5:      Singlet-A      2.2083 eV  561.44 nm  f=0.1060  <S**2>=0.000
     310 -> 314        0.65636
     312 -> 316        0.25138

 The electronic state is 1-A.
 Alpha  occ. eigenvalues --  -46.91928 -46.91810 -19.27145 -19.25456 -19.20188
 Alpha  occ. eigenvalues --  -19.19919 -19.19716 -19.19538 -19.19129 -19.18664
 Alpha  occ. eigenvalues --  -14.41955 -14.41762 -14.41598 -14.41073 -14.39323
 Alpha  occ. eigenvalues --  -14.39082 -14.38662 -14.38233 -10.36495 -10.35543
 Alpha  occ. eigenvalues --  -10.33241 -10.32688 -10.32496 -10.32045 -10.30051
 Alpha  occ. eigenvalues --  -10.29469 -10.29454 -10.29234 -10.28488 -10.28484
 Alpha  occ. eigenvalues --  -10.28431 -10.28394 -10.28198 -10.28172 -10.28117
 Alpha  occ. eigenvalues --  -10.27982 -10.27960 -10.27025 -10.26884 -10.26834
 Alpha  occ. eigenvalues --  -10.26753 -10.26735 -10.26689 -10.26670 -10.26504
 Alpha  occ. eigenvalues --  -10.26161 -10.26007 -10.25917 -10.25851 -10.25654
 Alpha  occ. eigenvalues --  -10.25631 -10.25615 -10.25600 -10.25440 -10.25390
 Alpha  occ. eigenvalues --  -10.25383 -10.25374 -10.25290 -10.25060 -10.25026
 Alpha  occ. eigenvalues --  -10.25018 -10.24968 -10.24784 -10.24713 -10.24701
 Alpha  occ. eigenvalues --  -10.24532 -10.24428 -10.24390 -10.24335 -10.24232
 Alpha  occ. eigenvalues --  -10.23829 -10.23584 -10.23578 -10.23544 -10.23429
 Alpha  occ. eigenvalues --  -10.23426 -10.23423 -10.23255 -10.23122 -10.23022
 Alpha  occ. eigenvalues --  -10.22975 -10.22843 -10.22820 -10.22640 -10.22398
 Alpha  occ. eigenvalues --  -10.22210  -3.14100  -3.14001  -1.86916  -1.86835
 Alpha  occ. eigenvalues --   -1.86454  -1.86380  -1.86350  -1.86228  -1.11407
 Alpha  occ. eigenvalues --   -1.10278  -1.07108  -1.06594  -1.03534  -1.02184
 Alpha  occ. eigenvalues --   -1.02032  -1.01592  -1.00008  -0.98978  -0.98666
 Alpha  occ. eigenvalues --   -0.98269  -0.97858  -0.97470  -0.96367  -0.95334
 Alpha  occ. eigenvalues --   -0.86947  -0.86617  -0.83960  -0.83606  -0.83553
 Alpha  occ. eigenvalues --   -0.82962  -0.82589  -0.82034  -0.81821  -0.81632
 Alpha  occ. eigenvalues --   -0.81308  -0.81098  -0.81012  -0.80819  -0.79037
 Alpha  occ. eigenvalues --   -0.78561  -0.78202  -0.77724  -0.77519  -0.76572
 Alpha  occ. eigenvalues --   -0.76145  -0.75814  -0.75487  -0.75362  -0.74583
 Alpha  occ. eigenvalues --   -0.74503  -0.72758  -0.72079  -0.71708  -0.71639
 Alpha  occ. eigenvalues --   -0.70897  -0.70670  -0.70556  -0.70043  -0.69427
 Alpha  occ. eigenvalues --   -0.69174  -0.67250  -0.66697  -0.66158  -0.65900
 Alpha  occ. eigenvalues --   -0.63747  -0.63532  -0.63138  -0.63018  -0.62667
 Alpha  occ. eigenvalues --   -0.62210  -0.61609  -0.61343  -0.60189  -0.60059
 Alpha  occ. eigenvalues --   -0.59988  -0.59801  -0.59505  -0.59297  -0.59138
 Alpha  occ. eigenvalues --   -0.58633  -0.56836  -0.56142  -0.54636  -0.54475
 Alpha  occ. eigenvalues --   -0.54213  -0.53969  -0.53893  -0.53685  -0.53016
 Alpha  occ. eigenvalues --   -0.52897  -0.52812  -0.52459  -0.52151  -0.51813
 Alpha  occ. eigenvalues --   -0.50926  -0.50550  -0.50540  -0.50171  -0.49767
 Alpha  occ. eigenvalues --   -0.49566  -0.49269  -0.49100  -0.48880  -0.48569
 Alpha  occ. eigenvalues --   -0.48422  -0.47858  -0.47743  -0.47648  -0.47431
 Alpha  occ. eigenvalues --   -0.47361  -0.47155  -0.46922  -0.46750  -0.46733
 Alpha  occ. eigenvalues --   -0.46477  -0.46239  -0.46092  -0.45949  -0.45829
 Alpha  occ. eigenvalues --   -0.45590  -0.45438  -0.45286  -0.45171  -0.45031
 Alpha  occ. eigenvalues --   -0.44809  -0.44801  -0.44473  -0.44342  -0.44090
 Alpha  occ. eigenvalues --   -0.43743  -0.43708  -0.43577  -0.43558  -0.43143
 Alpha  occ. eigenvalues --   -0.43090  -0.43056  -0.42932  -0.42792  -0.42679
 Alpha  occ. eigenvalues --   -0.42468  -0.42447  -0.42196  -0.41988  -0.41655
 Alpha  occ. eigenvalues --   -0.41651  -0.41274  -0.41143  -0.41106  -0.41010
 Alpha  occ. eigenvalues --   -0.40992  -0.40767  -0.40711  -0.40374  -0.40301
 Alpha  occ. eigenvalues --   -0.40030  -0.39903  -0.39891  -0.39685  -0.39553
 Alpha  occ. eigenvalues --   -0.39486  -0.39188  -0.39086  -0.39066  -0.38916
 Alpha  occ. eigenvalues --   -0.38870  -0.38491  -0.38377  -0.38302  -0.38197
 Alpha  occ. eigenvalues --   -0.38107  -0.37887  -0.37881  -0.37774  -0.37650
 Alpha  occ. eigenvalues --   -0.37579  -0.37493  -0.37359  -0.37149  -0.37111
 Alpha  occ. eigenvalues --   -0.36801  -0.36608  -0.36575  -0.36510  -0.36474
 Alpha  occ. eigenvalues --   -0.36284  -0.36068  -0.35516  -0.35479  -0.35182
 Alpha  occ. eigenvalues --   -0.35142  -0.35080  -0.34671  -0.34314  -0.34065
 Alpha  occ. eigenvalues --   -0.33371  -0.33168  -0.33157  -0.32935  -0.32608
 Alpha  occ. eigenvalues --   -0.32605  -0.32188  -0.31960  -0.31753  -0.31480
 Alpha  occ. eigenvalues --   -0.31391  -0.31048  -0.29558  -0.29405  -0.29092
 Alpha  occ. eigenvalues --   -0.29089  -0.28579  -0.28570  -0.27375  -0.26957
 Alpha  occ. eigenvalues --   -0.26242  -0.26137  -0.25770  -0.25760  -0.25504
 Alpha  occ. eigenvalues --   -0.25383  -0.24953  -0.24736  -0.21156  -0.20609
 Alpha  occ. eigenvalues --   -0.18860  -0.18830
 Alpha virt. eigenvalues --   -0.11221  -0.10925  -0.05236  -0.05134  -0.04216
 Alpha virt. eigenvalues --   -0.03700  -0.02270  -0.01667  -0.00505  -0.00110
 Alpha virt. eigenvalues --    0.00023   0.00577   0.00883   0.01405   0.01514

 Mulliken charges:
               1
     1  Mg  12.000008
     2  C    6.000032
     3  C    5.999865
     4  C    5.999965
     5  C    6.000142
     6  N    7.000047
     7  C    5.999833
     8  C    6.000059
     9  C    5.999933
    10  C    6.000211
    11  C    5.999971
    12  C    6.000049
    13  C    5.999991
    14  H    0.999996
    15  N    6.999990
    16  C    6.000199
    17  C    6.000113
    18  C    6.000148
    19  C    6.000122
    20  C    5.999937
    21  C    6.000082
    22  O    8.000179
    23  C    5.999971
    24  N    6.999951
    25  C    6.000151
    26  C    5.999985
    27  C    6.000087
    28  C    5.999806
    29  C    5.999971
    30  C    6.000015
    31  C    5.999990
    32  N    7.000000
    33  C    5.999775
    34  C    5.999848
    35  C    5.999970
    36  C    5.999889
    37  C    6.000072
    38  C    5.999811
    39  O    7.999783
    40  C    6.000038
    41  C    5.999959
    42  O    7.999981
    43  O    7.999989
    44  C    6.000014
    45  H    1.000062
    46  H    1.000056
    47  H    0.999946
    48  H    1.000007
    49  H    1.000022
    50  H    1.000074
    51  H    0.999993
    52  H    1.000041
    53  H    0.999941
    54  H    1.000007
    55  H    0.999973
    56  H    0.999995
    57  H    1.000134
    58  H    1.000101
    59  H    1.000085
    60  H    1.000056
    61  H    1.000032
    62  H    1.000108
    63  H    0.999988
    64  H    0.999989
    65  H    0.999996
    66  H    1.000077
    67  H    0.999997
    68  H    1.000012
    69  H    0.999950
    70  H    0.999990
    71  H    1.000004
    72  H    0.999982
    73  H    0.999885
    74  H    0.999855
    75  H    0.999884
    76  H    0.999916
    77  H    0.999994
    78  H    0.999977
    79  H    0.999939
    80  Mg  12.000060
    81  C    5.979784
    82  C    6.001810
    83  C    6.019027
    84  C    5.993855
    85  N    6.984297
    86  C    6.028098
    87  C    5.988218
    88  C    6.013935
    89  C    5.970068
    90  C    6.002557
    91  C    5.997746
    92  C    5.997752
    93  H    1.006451
    94  N    7.002541
    95  C    5.967376
    96  C    5.977124
    97  C    5.990166
    98  C    5.967460
    99  C    6.001857
   100  C    5.991713
   101  O    7.983379
   102  C    5.996146
   103  N    7.004546
   104  C    5.973115
   105  C    6.002820
   106  C    5.993559
   107  C    6.031250
   108  C    6.000450
   109  C    5.992586
   110  C    5.999529
   111  N    7.002047
   112  C    6.031663
   113  C    6.028627
   114  C    6.004012
   115  C    6.029204
   116  C    5.998764
   117  C    6.017845
   118  O    8.029199
   119  C    6.002104
   120  C    6.002219
   121  O    8.005479
   122  O    8.001226
   123  C    5.998409
   124  H    0.986638
   125  H    0.994184
   126  H    1.009093
   127  H    1.000972
   128  H    0.997565
   129  H    1.005407
   130  H    0.988816
   131  H    0.990236
   132  H    1.008454
   133  H    0.998016
   134  H    0.995201
   135  H    0.998980
   136  H    0.985376
   137  H    0.983634
   138  H    0.982306
   139  H    0.988848
   140  H    0.993068
   141  H    0.992242
   142  H    1.000432
   143  H    1.003120
   144  H    0.992044
   145  H    1.004461
   146  H    1.002331
   147  H    1.002258
   148  H    1.012171
   149  H    0.999995
   150  H    0.994838
   151  H    1.005556
   152  H    1.016874
   153  H    1.014068
   154  H    1.020603
   155  H    1.010487
   156  H    1.001866
   157  H    1.002944
   158  H    1.006846
 Sum of Mulliken charges = 624.00000

 Dipole moment (field-independent basis, Debye):
    X=             -5.2894    Y=             -5.9861    Z=              6.4062  Tot=             10.2397
 Quadrupole moment (field-independent basis, Debye-Ang):
   XX=           -265.3983   YY=             -0.8232   ZZ=              0.1098
   XY=           -155.8644   XZ=            168.2384   YZ=              1.0576

 Normal termination of Gaussian 16 at Fri Oct 15 10:56:34 2021.
