 Gaussian 16, Revision A.03,
 Gaussian 16:  ES64L-G16RevA.03 25-Dec-2016

 ---------------------------------------------------
 #p PBE1PBE/Def2SVP td=(nstates=5) density=(current)
 ---------------------------------------------------

 --------------------------------
 TDDFT excited states in gaussian
 --------------------------------
 Symbolic Z-matrix:
 Charge =  0 Multiplicity = 1

                         Standard orientation:
 ---------------------------------------------------------------------
 Center     Atomic      Atomic             Coordinates (Angstroms)
 Number     Number       Type             X           Y           Z
 ---------------------------------------------------------------------
      1         12           0       -0.737233    0.068281    0.141032
      2          6           0        2.729366    0.339220    0.089071
      3          6           0       -0.423275   -3.343982    0.168561
      4          6           0       -4.128270   -0.132379   -0.132522
      5          6           0       -0.813837    3.610219   -0.145556
      6          7           0        0.947407   -1.334652    0.095006
      7          6           0        2.262954   -0.967260    0.200556
      8          6           0        3.067790   -2.264840    0.307857
      9          6           0        2.082564   -3.385747    0.028265
     10          6           0        0.762015   -2.632558    0.141530
     11          6           0        2.206241   -4.195304   -1.234592
     12          6           0        3.912468   -2.443663    1.657963
     13          6           0        4.558516   -3.849464    1.877043
     14          1           0        6.001329   -4.091279    1.361407
     15          7           0       -2.067403   -1.524110    0.183044
     16          6           0       -1.752288   -2.843167    0.164705
     17          6           0       -2.997389   -3.563515    0.102337
     18          6           0       -4.064980   -2.622892    0.009132
     19          6           0       -3.460267   -1.367370   -0.009154
     20          6           0       -3.008502   -5.060933    0.122204
     21          6           0       -5.570194   -2.954866   -0.207170
     22          8           0       -6.358619   -2.121785   -0.616961
     23          6           0       -6.128939   -4.289012   -0.059752
     24          7           0       -2.148280    1.460805   -0.085148
     25          6           0       -3.512506    1.175533   -0.132446
     26          6           0       -4.377080    2.444709   -0.226878
     27          6           0       -3.321225    3.566883    0.056151
     28          6           0       -2.004220    2.812137   -0.019497
     29          6           0       -5.277276    2.546595   -1.387986
     30          6           0       -3.471727    4.486620    1.390901
     31          6           0       -3.619502    6.006886    1.277736
     32          7           0        0.690707    1.724209   -0.061270
     33          6           0        0.476203    3.068745   -0.179778
     34          6           0        1.706220    3.781933   -0.260980
     35          6           0        2.677486    2.724495   -0.079522
     36          6           0        1.985737    1.481138   -0.052824
     37          6           0        1.811958    5.254921   -0.375822
     38          6           0        4.086281    2.470162    0.115988
     39          8           0        5.065450    3.180418    0.233776
     40          6           0        4.161106    0.835528    0.226321
     41          6           0        5.178277    0.273330   -0.698394
     42          8           0        5.081565    0.306775   -1.905563
     43          8           0        6.211380   -0.289455   -0.047384
     44          6           0        7.177613   -1.117173   -0.866793
     45          1           0       -0.329905   -4.430414    0.231438
     46          1           0       -5.212136   -0.225200   -0.225938
     47          1           0       -1.048278    4.675266   -0.204984
     48          1           0        3.759699   -2.122309   -0.522116
     49          1           0        2.170110   -4.143670    0.806318
     50          1           0        1.356446   -3.789296   -1.782463
     51          1           0        2.173731   -5.269230   -1.050378
     52          1           0        3.080670   -3.916962   -1.823202
     53          1           0        3.151045   -2.257903    2.415774
     54          1           0        4.699179   -1.691527    1.703683
     55          1           0        3.984245   -4.636497    1.389887
     56          1           0        4.538302   -4.061679    2.945986
     57          1           0       -2.062632   -5.582896    0.270388
     58          1           0       -3.327940   -5.362547   -0.874789
     59          1           0       -3.752505   -5.474112    0.803551
     60          1           0       -5.641552   -5.140462   -0.533599
     61          1           0       -7.189563   -4.381608   -0.293060
     62          1           0       -6.116745   -4.417111    1.022424
     63          1           0       -4.963665    2.281983    0.677713
     64          1           0       -3.402196    4.112873   -0.883626
     65          1           0       -6.348419    2.556363   -1.184546
     66          1           0       -5.067261    1.697341   -2.038714
     67          1           0       -5.148300    3.457465   -1.972470
     68          1           0       -2.588551    4.312567    2.005266
     69          1           0       -4.286999    4.248964    2.075293
     70          1           0       -2.720416    6.574898    1.518124
     71          1           0       -4.505326    6.418230    1.760859
     72          1           0       -3.734987    6.241640    0.219509
     73          1           0        1.102932    5.593602   -1.130884
     74          1           0        2.828785    5.589100   -0.580199
     75          1           0        1.353511    5.681355    0.516993
     76          1           0        4.515421    0.632398    1.236396
     77          1           0        8.059139   -1.132798   -0.226277
     78          1           0        7.350480   -0.611517   -1.816594
     79          1           0        6.746015   -2.115373   -0.941870
 ---------------------------------------------------------------------

 SCF Done:  E(RPBE1PBE) =  -2033.69240017     A.U. after   15 cycles

 Excitation energies and oscillator strengths:

 Excited State   1:      Singlet-A      1.8570 eV  667.66 nm  f=0.3823  <S**2>=0.000
     155 ->158        -0.17288
     156 ->157         0.69306
     156 <-157        -0.11172
 This state for optimization and/or second-order correction.
 Total Energy, E(TD-HF/TD-DFT) =  -2033.62415729
 Copying the excited state density for this state as the 1-particle RhoCI density.

 Excited State   2:      Singlet-A      2.2290 eV  556.24 nm  f=0.0892  <S**2>=0.000
     155 ->157         0.64384
     156 ->158         0.27288

 Excited State   3:      Singlet-A      2.8460 eV  435.64 nm  f=0.0017  <S**2>=0.000
     152 ->157         0.20289
     153 ->157         0.26011
     154 ->157         0.60468

 Excited State   4:      Singlet-A      2.9597 eV  418.91 nm  f=0.0012  <S**2>=0.000
     153 ->157         0.62774
     154 ->157        -0.29854

 Excited State   5:      Singlet-A      3.0624 eV  404.86 nm  f=0.0002  <S**2>=0.000
     152 ->157         0.63551
     153 ->157        -0.10527
     154 ->157        -0.15621
     156 ->158         0.22207

 The electronic state is 1-A.
 Alpha  occ. eigenvalues --  -46.91268 -19.25064 -19.19279 -19.18928 -19.18478
 Alpha  occ. eigenvalues --  -14.42221 -14.41548 -14.38731 -14.38105 -10.34955
 Alpha  occ. eigenvalues --  -10.32694 -10.31813 -10.29361 -10.29332 -10.28932
 Alpha  occ. eigenvalues --  -10.28851 -10.28094 -10.27446 -10.27325 -10.27134
 Alpha  occ. eigenvalues --  -10.26741 -10.25993 -10.25944 -10.25806 -10.25760
 Alpha  occ. eigenvalues --  -10.25336 -10.25330 -10.25133 -10.25016 -10.24918
 Alpha  occ. eigenvalues --  -10.24769 -10.24725 -10.24714 -10.24672 -10.24515
 Alpha  occ. eigenvalues --  -10.24510 -10.24357 -10.23696 -10.23418 -10.23204
 Alpha  occ. eigenvalues --  -10.23041 -10.23033 -10.22954  -3.13506  -1.86364
 Alpha  occ. eigenvalues --   -1.85883  -1.85731  -1.10615  -1.05697  -1.04277
 Alpha  occ. eigenvalues --   -1.01553  -0.99860  -0.98803  -0.97950  -0.97003
 Alpha  occ. eigenvalues --   -0.86805  -0.83483  -0.83027  -0.82650  -0.81885
 Alpha  occ. eigenvalues --   -0.81258  -0.80999  -0.78907  -0.77998  -0.76798
 Alpha  occ. eigenvalues --   -0.76713  -0.75717  -0.75100  -0.73131  -0.72121
 Alpha  occ. eigenvalues --   -0.71576  -0.70208  -0.69525  -0.67240  -0.66274
 Alpha  occ. eigenvalues --   -0.63683  -0.63273  -0.62725  -0.61351  -0.60097
 Alpha  occ. eigenvalues --   -0.59915  -0.59116  -0.58759  -0.56006  -0.55073
 Alpha  occ. eigenvalues --   -0.54288  -0.53595  -0.53450  -0.52576  -0.51697
 Alpha  occ. eigenvalues --   -0.50976  -0.50332  -0.49765  -0.49359  -0.49086
 Alpha  occ. eigenvalues --   -0.48405  -0.47793  -0.47368  -0.47137  -0.46908
 Alpha  occ. eigenvalues --   -0.46738  -0.45881  -0.45613  -0.45437  -0.45073
 Alpha  occ. eigenvalues --   -0.44813  -0.44563  -0.44059  -0.43943  -0.43698
 Alpha  occ. eigenvalues --   -0.43603  -0.43225  -0.42862  -0.42416  -0.42145
 Alpha  occ. eigenvalues --   -0.41809  -0.41589  -0.41349  -0.41222  -0.40982
 Alpha  occ. eigenvalues --   -0.40792  -0.39910  -0.39834  -0.39578  -0.39242
 Alpha  occ. eigenvalues --   -0.39053  -0.38872  -0.38528  -0.38076  -0.37675
 Alpha  occ. eigenvalues --   -0.37550  -0.36776  -0.36647  -0.36333  -0.36143
 Alpha  occ. eigenvalues --   -0.35818  -0.35296  -0.35090  -0.34465  -0.34213
 Alpha  occ. eigenvalues --   -0.33759  -0.32734  -0.32305  -0.31923  -0.31347
 Alpha  occ. eigenvalues --   -0.30993  -0.29489  -0.29256  -0.27887  -0.26617
 Alpha  occ. eigenvalues --   -0.26065  -0.25349  -0.25200  -0.24680  -0.21122
 Alpha  occ. eigenvalues --   -0.18775
 Alpha virt. eigenvalues --   -0.11234  -0.05375  -0.03595  -0.01725   0.00554
 Alpha virt. eigenvalues --    0.00804   0.01343   0.01689   0.03022   0.03934
 Alpha virt. eigenvalues --    0.04403   0.05324   0.05821   0.06656   0.07026

 Mulliken charges:
               1
     1  Mg   0.969483
     2  C    0.017852
     3  C   -0.074870
     4  C   -0.058436
     5  C   -0.092643
     6  N   -0.380862
     7  C    0.043702
     8  C   -0.077139
     9  C   -0.180682
    10  C    0.079073
    11  C    0.043150
    12  C   -0.019030
    13  C   -0.133517
    14  H    0.038250
    15  N   -0.520421
    16  C    0.184875
    17  C   -0.181390
    18  C   -0.064303
    19  C    0.136897
    20  C    0.044282
    21  C    0.068711
    22  O   -0.242894
    23  C   -0.011361
    24  N   -0.464287
    25  C    0.081546
    26  C   -0.111730
    27  C   -0.087616
    28  C    0.073261
    29  C    0.033676
    30  C   -0.014497
    31  C   -0.085675
    32  N   -0.416552
    33  C    0.172767
    34  C   -0.173556
    35  C   -0.076344
    36  C    0.135936
    37  C    0.093437
    38  C    0.157335
    39  O   -0.206003
    40  C   -0.174790
    41  C    0.267402
    42  O   -0.261194
    43  O   -0.375569
    44  C    0.117339
    45  H   -0.010423
    46  H    0.031628
    47  H    0.006852
    48  H    0.057347
    49  H    0.038328
    50  H    0.049016
    51  H    0.048437
    52  H    0.043697
    53  H    0.044295
    54  H    0.074948
    55  H    0.051956
    56  H    0.064781
    57  H    0.041585
    58  H    0.055361
    59  H    0.052141
    60  H    0.059382
    61  H    0.049215
    62  H    0.053946
    63  H    0.055767
    64  H    0.051356
    65  H    0.046953
    66  H    0.056206
    67  H    0.035101
    68  H    0.047650
    69  H    0.044506
    70  H    0.046776
    71  H    0.051698
    72  H    0.027481
    73  H    0.039283
    74  H    0.075035
    75  H    0.047707
    76  H    0.074932
    77  H    0.065491
    78  H    0.085248
    79  H    0.062709
 Sum of Mulliken charges =  -0.00000

 Dipole moment (field-independent basis, Debye):
    X=             -3.1235    Y=             -3.3621    Z=              2.4106  Tot=              5.1837
 Quadrupole moment (field-independent basis, Debye-Ang):
   XX=           -270.0250   YY=           -220.6258   ZZ=           -260.0923
   XY=            -33.0279   XZ=             -1.9444   YZ=             -1.1211

 Normal termination of Gaussian 16 at Wed Oct 13 18:14:06 2021.
