 Gaussian 16, Revision A.03,
 Gaussian 16:  ES64L-G16RevA.03 25-Dec-2016

 --------------------------------------------------------
 #p PBE1PBE/Def2SVP td=(nstates=5) density=(transition=1)
 --------------------------------------------------------

 --------------------------------
 TDDFT excited states in gaussian
 --------------------------------
 Symbolic Z-matrix:
 Charge =  0 Multiplicity = 1

                         Standard orientation:
 ---------------------------------------------------------------------
 Center     Atomic      Atomic             Coordinates (Angstroms)
 Number     Number       Type             X           Y           Z
 ---------------------------------------------------------------------
      1         12           0      -28.049972    0.269832    0.294506
      2          6           0      -25.354298   -1.901816    0.000527
      3          6           0      -25.653475    2.913544    0.013190
      4          6           0      -30.519110    2.427625    0.065231
      5          6           0      -30.208317   -2.465515   -0.171479
      6          7           0      -25.794151    0.453157   -0.083616
      7          6           0      -24.923858   -0.613677   -0.068369
      8          6           0      -23.486943   -0.124126   -0.268080
      9          6           0      -23.627823    1.395455    0.023904
     10          6           0      -25.112118    1.638036   -0.055635
     11          6           0      -23.059519    1.957610    1.385809
     12          6           0      -22.934810   -0.429767   -1.670131
     13          6           0      -21.497509   -0.135219   -1.871518
     14          1           0      -20.767858   -0.888853   -3.048268
     15          7           0      -28.105744    2.408249    0.055456
     16          6           0      -27.025446    3.301916   -0.010975
     17          6           0      -27.555177    4.632392   -0.121976
     18          6           0      -28.987472    4.502482   -0.247550
     19          6           0      -29.265446    3.043424   -0.012479
     20          6           0      -26.655255    5.891487   -0.258790
     21          6           0      -29.910331    5.703294   -0.478577
     22          8           0      -29.501427    6.851179   -0.422289
     23          6           0      -31.342292    5.462514   -0.770129
     24          7           0      -30.094079   -0.017461    0.211164
     25          6           0      -30.897916    1.050440    0.167501
     26          6           0      -32.391835    0.584782   -0.067276
     27          6           0      -32.338149   -0.985239   -0.206397
     28          6           0      -30.729873   -1.194483   -0.098671
     29          6           0      -33.468370    1.102023    0.922768
     30          6           0      -32.881112   -1.418443   -1.584993
     31          6           0      -33.532708   -2.806111   -1.623667
     32          7           0      -27.901704   -1.800322   -0.024897
     33          6           0      -28.839763   -2.793439   -0.068393
     34          6           0      -28.146532   -4.087180   -0.056604
     35          6           0      -26.818628   -3.775857    0.062258
     36          6           0      -26.689761   -2.406368    0.011889
     37          6           0      -28.811700   -5.467013   -0.025512
     38          6           0      -25.504544   -4.341332    0.125940
     39          8           0      -25.115869   -5.482496    0.171312
     40          6           0      -24.496874   -3.143779    0.103359
     41          6           0      -23.769819   -3.145024    1.402526
     42          8           0      -24.246919   -3.212880    2.501262
     43          8           0      -22.407223   -2.907956    1.151408
     44          6           0      -21.571980   -2.798379    2.313433
     45          1           0      -24.843357    3.645127    0.018153
     46          1           0      -31.435750    3.019658    0.013835
     47          1           0      -30.852815   -3.344056   -0.245610
     48          1           0      -22.908177   -0.567658    0.540978
     49          1           0      -23.223873    2.065472   -0.734238
     50          1           0      -22.433503    2.796141    1.081475
     51          1           0      -22.742319    1.238346    2.141365
     52          1           0      -23.899525    2.430602    1.894291
     53          1           0      -23.365249    0.154706   -2.483735
     54          1           0      -23.126204   -1.472661   -1.923037
     55          1           0      -20.998692   -0.361729   -0.929194
     56          1           0      -21.374788    0.939041   -2.008278
     57          1           0      -26.819167    6.055699   -1.324287
     58          1           0      -25.580886    5.721421   -0.185828
     59          1           0      -26.819050    6.812359    0.301216
     60          1           0      -31.337251    4.714924   -1.563331
     61          1           0      -31.767420    6.378083   -1.181666
     62          1           0      -31.736908    5.107473    0.182200
     63          1           0      -32.682213    1.020750   -1.023577
     64          1           0      -32.828928   -1.539110    0.593261
     65          1           0      -34.062155    1.858312    0.408415
     66          1           0      -32.969975    1.438919    1.831120
     67          1           0      -34.183039    0.307299    1.136594
     68          1           0      -32.017662   -1.376551   -2.248433
     69          1           0      -33.564055   -0.700622   -2.039771
     70          1           0      -34.535749   -2.592039   -1.994288
     71          1           0      -33.512831   -3.343738   -0.675606
     72          1           0      -33.048912   -3.429772   -2.375490
     73          1           0      -28.392126   -6.222020   -0.689536
     74          1           0      -29.844538   -5.220522   -0.272799
     75          1           0      -28.887304   -5.737931    1.027691
     76          1           0      -23.820925   -3.330257   -0.731245
     77          1           0      -20.953597   -3.695848    2.331805
     78          1           0      -22.031668   -2.670324    3.293722
     79          1           0      -20.951336   -1.912432    2.182026
     80         12           0       28.015090    0.163167    0.307615
     81          6           0       24.614460   -0.297614   -0.255240
     82          6           0       28.449313   -3.238107   -0.208592
     83          6           0       31.299510    0.532764    0.273054
     84          6           0       27.524478    3.589217    0.304902
     85          7           0       26.728031   -1.532593   -0.331271
     86          6           0       25.348797   -1.512030   -0.365696
     87          6           0       24.749881   -2.877706   -0.528589
     88          6           0       25.973938   -3.813679   -0.127425
     89          6           0       27.140157   -2.843416   -0.260765
     90          6           0       25.940084   -4.746670    1.174680
     91          6           0       24.081870   -3.167540   -1.951884
     92          6           0       24.705407   -2.474240   -3.199672
     93          1           0       24.801037   -3.359614   -4.418922
     94          7           0       29.665837   -1.147483   -0.051212
     95          6           0       29.625846   -2.535714   -0.231310
     96          6           0       30.937192   -3.075187   -0.465791
     97          6           0       31.814889   -1.970743   -0.352069
     98          6           0       30.966914   -0.776641   -0.060497
     99          6           0       31.154425   -4.588939   -0.494059
    100          6           0       33.346109   -2.130384   -0.489954
    101          8           0       33.867768   -3.206172   -0.800300
    102          6           0       34.148456   -0.938846   -0.174345
    103          7           0       29.183916    1.862593    0.168962
    104          6           0       30.532391    1.730902    0.454885
    105          6           0       31.235967    3.087422    0.679702
    106          6           0       29.989128    4.033510    0.437848
    107          6           0       28.846312    3.139304    0.244509
    108          6           0       31.927944    3.350491    1.979857
    109          6           0       30.155817    4.972185   -0.861973
    110          6           0       29.769380    6.395799   -0.556241
    111          7           0       26.381329    1.456121    0.270799
    112          6           0       26.340682    2.838079    0.277299
    113          6           0       24.937734    3.301443    0.178083
    114          6           0       24.211157    2.078145   -0.032701
    115          6           0       25.136330    1.029648    0.030610
    116          6           0       24.387895    4.658930    0.005584
    117          6           0       22.910403    1.447825   -0.343347
    118          8           0       21.844668    1.967156   -0.581866
    119          6           0       23.113679   -0.097388   -0.456612
    120          6           0       22.228413   -0.795976    0.476014
    121          8           0       21.319200   -1.596547    0.255943
    122          8           0       22.392524   -0.172979    1.740988
    123          6           0       21.619621   -0.773736    2.849150
    124          1           0       28.510537   -4.325523   -0.123380
    125          1           0       32.349575    0.756596    0.471747
    126          1           0       27.471888    4.675885    0.392379
    127          1           0       23.923521   -3.012710    0.169180
    128          1           0       26.002419   -4.476782   -0.992421
    129          1           0       24.994213   -4.772599    1.715459
    130          1           0       26.642508   -4.443310    1.950891
    131          1           0       26.025021   -5.790014    0.869600
    132          1           0       23.008821   -2.982346   -1.915963
    133          1           0       24.133112   -4.247239   -2.092122
    134          1           0       25.689382   -2.068169   -2.963165
    135          1           0       24.087538   -1.627647   -3.497768
    136          1           0       31.975125   -4.903970   -1.139278
    137          1           0       30.283616   -5.065907   -0.943068
    138          1           0       31.375954   -4.874119    0.534656
    139          1           0       34.092987   -0.759323    0.898925
    140          1           0       33.792792   -0.090009   -0.759208
    141          1           0       35.167698   -1.205298   -0.453930
    142          1           0       31.869213    3.271964   -0.188394
    143          1           0       29.841949    4.479181    1.421605
    144          1           0       32.153367    4.417044    1.984186
    145          1           0       32.897142    2.854172    1.930251
    146          1           0       31.315869    3.007790    2.814980
    147          1           0       29.546994    4.520802   -1.645248
    148          1           0       31.126919    4.964955   -1.358572
    149          1           0       28.845420    6.612209   -1.091955
    150          1           0       30.427587    7.117884   -1.040557
    151          1           0       29.536561    6.495624    0.503719
    152          1           0       25.118108    5.469405   -0.009687
    153          1           0       23.762209    4.838778    0.879120
    154          1           0       24.011682    4.586870   -1.014695
    155          1           0       22.863081   -0.328763   -1.491609
    156          1           0       22.365435   -0.818407    3.643619
    157          1           0       21.169362   -1.761526    2.750583
    158          1           0       20.959037    0.027478    3.181008
 ---------------------------------------------------------------------

 SCF Done:  E(RPBE1PBE) =  -4067.38013048     A.U. after   16 cycles

 Excitation energies and oscillator strengths:

 Excited State   1:      Singlet-A      1.8711 eV  662.63 nm  f=0.3570  <S**2>=0.000
     310 -> 315       -0.17707
     312 -> 314        0.68993
     312 <- 314       -0.10399
 This state for optimization and/or second-order correction.
 Total Energy, E(TD-HF/TD-DFT) =  -4067.31136876
 Copying the excited state density for this state as the 1-particle RhoCI density.

 Excited State   2:      Singlet-A      1.9036 eV  651.33 nm  f=0.3835  <S**2>=0.000
     309 -> 316       -0.17021
     311 -> 313        0.69346
     311 <- 313       -0.10647

 Excited State   3:      Singlet-A      1.9395 eV  639.27 nm  f=0.0000  <S**2>=0.000
     312 -> 313        0.70711

 Excited State   4:      Singlet-A      2.1406 eV  579.19 nm  f=0.0000  <S**2>=0.000
     311 -> 314        0.70711

 Excited State   5:      Singlet-A      2.2140 eV  560.01 nm  f=0.0900  <S**2>=0.000
     310 -> 314        0.64347
     312 -> 315        0.27381

 The electronic state is 1-A.
 Alpha  occ. eigenvalues --  -46.93028 -46.92493 -19.25655 -19.25012 -19.20756
 Alpha  occ. eigenvalues --  -19.20730 -19.19172 -19.19105 -19.18940 -19.18699
 Alpha  occ. eigenvalues --  -14.42210 -14.41777 -14.41749 -14.41679 -14.39719
 Alpha  occ. eigenvalues --  -14.39242 -14.38885 -14.38883 -10.36735 -10.36560
 Alpha  occ. eigenvalues --  -10.32348 -10.32170 -10.31795 -10.31473 -10.29880
 Alpha  occ. eigenvalues --  -10.29326 -10.29053 -10.28959 -10.28916 -10.28596
 Alpha  occ. eigenvalues --  -10.28523 -10.28523 -10.28479 -10.28438 -10.28262
 Alpha  occ. eigenvalues --  -10.28249 -10.27951 -10.27898 -10.27287 -10.26922
 Alpha  occ. eigenvalues --  -10.26887 -10.26714 -10.26465 -10.26341 -10.26317
 Alpha  occ. eigenvalues --  -10.26290 -10.26140 -10.26074 -10.26053 -10.26032
 Alpha  occ. eigenvalues --  -10.25980 -10.25970 -10.25918 -10.25894 -10.25874
 Alpha  occ. eigenvalues --  -10.25739 -10.25732 -10.25566 -10.25462 -10.25457
 Alpha  occ. eigenvalues --  -10.25244 -10.25227 -10.25169 -10.24947 -10.24849
 Alpha  occ. eigenvalues --  -10.24759 -10.24667 -10.24597 -10.24541 -10.24421
 Alpha  occ. eigenvalues --  -10.24359 -10.24221 -10.23975 -10.23955 -10.23916
 Alpha  occ. eigenvalues --  -10.23730 -10.23706 -10.23692 -10.23619 -10.23341
 Alpha  occ. eigenvalues --  -10.23271 -10.23238 -10.23216 -10.23208 -10.23110
 Alpha  occ. eigenvalues --  -10.21919  -3.15032  -3.14599  -1.87878  -1.87423
 Alpha  occ. eigenvalues --   -1.87410  -1.87240  -1.86988  -1.86814  -1.11407
 Alpha  occ. eigenvalues --   -1.09537  -1.05266  -1.05183  -1.04656  -1.04024
 Alpha  occ. eigenvalues --   -1.03706  -1.01721  -0.99686  -0.99281  -0.98427
 Alpha  occ. eigenvalues --   -0.98355  -0.98281  -0.97841  -0.97443  -0.96962
 Alpha  occ. eigenvalues --   -0.87746  -0.86821  -0.83953  -0.83643  -0.83516
 Alpha  occ. eigenvalues --   -0.83469  -0.83099  -0.82439  -0.82278  -0.81948
 Alpha  occ. eigenvalues --   -0.81246  -0.80862  -0.80432  -0.80182  -0.79407
 Alpha  occ. eigenvalues --   -0.79035  -0.78763  -0.78343  -0.77321  -0.76950
 Alpha  occ. eigenvalues --   -0.76758  -0.76575  -0.75670  -0.75219  -0.75190
 Alpha  occ. eigenvalues --   -0.74496  -0.72687  -0.72084  -0.71778  -0.71696
 Alpha  occ. eigenvalues --   -0.71259  -0.71092  -0.70533  -0.70508  -0.70093
 Alpha  occ. eigenvalues --   -0.69823  -0.67774  -0.67112  -0.66578  -0.66476
 Alpha  occ. eigenvalues --   -0.63766  -0.63746  -0.63663  -0.63412  -0.62582
 Alpha  occ. eigenvalues --   -0.62296  -0.61245  -0.61044  -0.60863  -0.60489
 Alpha  occ. eigenvalues --   -0.60106  -0.59416  -0.59367  -0.59107  -0.59074
 Alpha  occ. eigenvalues --   -0.58545  -0.57300  -0.57071  -0.54792  -0.54696
 Alpha  occ. eigenvalues --   -0.54538  -0.53978  -0.53859  -0.53540  -0.53326
 Alpha  occ. eigenvalues --   -0.53102  -0.52891  -0.52234  -0.52113  -0.51771
 Alpha  occ. eigenvalues --   -0.51096  -0.50889  -0.50400  -0.50360  -0.49927
 Alpha  occ. eigenvalues --   -0.49903  -0.49637  -0.49474  -0.49111  -0.48953
 Alpha  occ. eigenvalues --   -0.48595  -0.48378  -0.48141  -0.47815  -0.47605
 Alpha  occ. eigenvalues --   -0.47518  -0.47321  -0.47257  -0.47024  -0.46719
 Alpha  occ. eigenvalues --   -0.46554  -0.46489  -0.46305  -0.46257  -0.46122
 Alpha  occ. eigenvalues --   -0.45717  -0.45454  -0.45387  -0.45317  -0.45058
 Alpha  occ. eigenvalues --   -0.44964  -0.44865  -0.44784  -0.44512  -0.44297
 Alpha  occ. eigenvalues --   -0.44206  -0.43955  -0.43878  -0.43752  -0.43485
 Alpha  occ. eigenvalues --   -0.43349  -0.43183  -0.42940  -0.42864  -0.42787
 Alpha  occ. eigenvalues --   -0.42762  -0.42401  -0.42235  -0.42019  -0.41911
 Alpha  occ. eigenvalues --   -0.41895  -0.41758  -0.41643  -0.41242  -0.41119
 Alpha  occ. eigenvalues --   -0.41095  -0.40976  -0.40923  -0.40860  -0.40558
 Alpha  occ. eigenvalues --   -0.40460  -0.40146  -0.40119  -0.39887  -0.39853
 Alpha  occ. eigenvalues --   -0.39803  -0.39703  -0.39512  -0.39407  -0.39356
 Alpha  occ. eigenvalues --   -0.39031  -0.38732  -0.38642  -0.38383  -0.38274
 Alpha  occ. eigenvalues --   -0.38183  -0.38015  -0.37949  -0.37833  -0.37788
 Alpha  occ. eigenvalues --   -0.37685  -0.37626  -0.37326  -0.37248  -0.37155
 Alpha  occ. eigenvalues --   -0.36997  -0.36819  -0.36776  -0.36673  -0.36597
 Alpha  occ. eigenvalues --   -0.36519  -0.36389  -0.36092  -0.35461  -0.35328
 Alpha  occ. eigenvalues --   -0.35215  -0.34865  -0.34739  -0.34643  -0.34054
 Alpha  occ. eigenvalues --   -0.33728  -0.33514  -0.33036  -0.32960  -0.32676
 Alpha  occ. eigenvalues --   -0.32439  -0.31952  -0.31946  -0.31599  -0.31502
 Alpha  occ. eigenvalues --   -0.31129  -0.30561  -0.30303  -0.30139  -0.29707
 Alpha  occ. eigenvalues --   -0.29560  -0.29245  -0.28886  -0.27387  -0.26912
 Alpha  occ. eigenvalues --   -0.26018  -0.25885  -0.25795  -0.25747  -0.25593
 Alpha  occ. eigenvalues --   -0.25529  -0.25341  -0.25115  -0.21548  -0.21000
 Alpha  occ. eigenvalues --   -0.19265  -0.18867
 Alpha virt. eigenvalues --   -0.11501  -0.11161  -0.05712  -0.05471  -0.03531
 Alpha virt. eigenvalues --   -0.03309  -0.01955  -0.01714  -0.01109  -0.00727
 Alpha virt. eigenvalues --   -0.00501   0.00303   0.00681   0.00799   0.01834

 Mulliken charges:
               1
     1  Mg  11.999971
     2  C    5.999986
     3  C    5.999983
     4  C    5.999971
     5  C    6.000021
     6  N    7.000023
     7  C    5.999965
     8  C    6.000016
     9  C    5.999965
    10  C    6.000096
    11  C    5.999994
    12  C    6.000003
    13  C    5.999979
    14  H    1.000034
    15  N    6.999989
    16  C    6.000117
    17  C    6.000016
    18  C    6.000046
    19  C    6.000059
    20  C    6.000000
    21  C    6.000026
    22  O    8.000069
    23  C    6.000007
    24  N    7.000057
    25  C    6.000068
    26  C    5.999982
    27  C    6.000019
    28  C    5.999930
    29  C    5.999999
    30  C    6.000022
    31  C    6.000008
    32  N    6.999999
    33  C    5.999879
    34  C    5.999901
    35  C    5.999981
    36  C    5.999952
    37  C    6.000008
    38  C    5.999955
    39  O    7.999912
    40  C    6.000000
    41  C    5.999990
    42  O    7.999982
    43  O    7.999995
    44  C    5.999990
    45  H    1.000082
    46  H    0.999991
    47  H    0.999931
    48  H    1.000020
    49  H    1.000025
    50  H    1.000050
    51  H    1.000063
    52  H    0.999979
    53  H    0.999973
    54  H    1.000017
    55  H    1.000021
    56  H    1.000000
    57  H    1.000052
    58  H    1.000078
    59  H    1.000064
    60  H    1.000022
    61  H    1.000024
    62  H    1.000019
    63  H    0.999982
    64  H    0.999970
    65  H    0.999977
    66  H    0.999995
    67  H    1.000001
    68  H    1.000005
    69  H    0.999945
    70  H    0.999958
    71  H    1.000000
    72  H    0.999998
    73  H    0.999930
    74  H    0.999941
    75  H    0.999925
    76  H    0.999993
    77  H    1.000009
    78  H    0.999987
    79  H    1.000013
    80  Mg  11.998187
    81  C    6.020791
    82  C    5.990166
    83  C    5.971582
    84  C    6.007916
    85  N    7.006057
    86  C    5.968299
    87  C    6.010772
    88  C    5.988484
    89  C    6.031368
    90  C    5.996173
    91  C    6.002419
    92  C    6.004099
    93  H    0.992574
    94  N    6.994888
    95  C    6.038362
    96  C    6.018514
    97  C    6.012469
    98  C    6.037066
    99  C    5.997841
   100  C    6.013313
   101  O    8.019092
   102  C    5.995798
   103  N    6.997862
   104  C    6.040098
   105  C    5.984212
   106  C    6.011653
   107  C    5.966580
   108  C    5.997303
   109  C    6.004237
   110  C    5.999995
   111  N    7.000937
   112  C    5.967092
   113  C    5.969113
   114  C    5.996473
   115  C    5.972562
   116  C    6.001935
   117  C    5.983770
   118  O    7.973657
   119  C    5.998493
   120  C    5.992542
   121  O    7.990891
   122  O    8.006009
   123  C    6.002158
   124  H    1.012058
   125  H    1.005752
   126  H    0.988800
   127  H    1.000457
   128  H    1.004957
   129  H    1.013360
   130  H    0.999756
   131  H    1.002937
   132  H    1.004077
   133  H    0.991884
   134  H    0.992912
   135  H    1.006769
   136  H    1.014513
   137  H    1.014386
   138  H    1.017110
   139  H    1.008974
   140  H    1.009824
   141  H    1.012271
   142  H    1.001358
   143  H    0.998987
   144  H    1.008573
   145  H    0.994806
   146  H    1.004413
   147  H    1.000152
   148  H    0.987852
   149  H    1.003692
   150  H    0.994612
   151  H    0.999517
   152  H    0.982466
   153  H    0.982965
   154  H    0.984593
   155  H    0.993446
   156  H    0.995146
   157  H    0.993667
   158  H    0.999162
 Sum of Mulliken charges = 624.00000

 Dipole moment (field-independent basis, Debye):
    X=              7.5920    Y=             -6.5524    Z=             -0.2079  Tot=             10.0308
 Quadrupole moment (field-independent basis, Debye-Ang):
   XX=            422.4675   YY=             -1.5493   ZZ=             -0.4869
   XY=           -185.7303   XZ=             -6.7101   YZ=              0.8006

 Normal termination of Gaussian 16 at Fri Oct 15 16:47:55 2021.
