 Gaussian 16, Revision A.03,
 Gaussian 16:  ES64L-G16RevA.03 25-Dec-2016

 --------------------------------------------------------
 #p PBE1PBE/Def2SVP td=(nstates=5) density=(transition=1)
 --------------------------------------------------------

 --------------------------------
 TDDFT excited states in gaussian
 --------------------------------
 Symbolic Z-matrix:
 Charge =  0 Multiplicity = 1

                         Standard orientation:
 ---------------------------------------------------------------------
 Center     Atomic      Atomic             Coordinates (Angstroms)
 Number     Number       Type             X           Y           Z
 ---------------------------------------------------------------------
      1         12           0      -16.016381   -0.693150   -0.031625
      2          6           0      -18.123904    2.007619    0.552794
      3          6           0      -13.778383    1.383098   -1.456429
      4          6           0      -14.367439   -3.370757   -1.276834
      5          6           0      -18.721657   -2.861186    0.699712
      6          7           0      -16.006715    1.420440   -0.280732
      7          6           0      -16.863115    2.412274    0.145143
      8          6           0      -16.328152    3.809589   -0.272968
      9          6           0      -15.271749    3.419447   -1.352307
     10          6           0      -14.907154    2.000377   -0.941626
     11          6           0      -15.800782    3.447077   -2.829452
     12          6           0      -15.931869    4.565070    1.008753
     13          6           0      -16.333522    5.990829    1.024180
     14          1           0      -16.392478    6.600692    2.351096
     15          7           0      -14.210604   -0.925375   -0.998808
     16          6           0      -13.409266    0.075691   -1.446261
     17          6           0      -12.116596   -0.480674   -1.757607
     18          6           0      -12.293205   -1.910193   -1.699122
     19          6           0      -13.709904   -2.124164   -1.389525
     20          6           0      -10.948083    0.334814   -2.181839
     21          6           0      -11.322717   -3.084037   -2.052353
     22          8           0      -11.637435   -4.270122   -1.935558
     23          6           0       -9.888702   -2.825566   -2.421624
     24          7           0      -16.653659   -2.774383   -0.556805
     25          6           0      -15.670521   -3.721684   -0.953097
     26          6           0      -16.156305   -5.132870   -0.916077
     27          6           0      -17.453546   -4.904958   -0.073961
     28          6           0      -17.595223   -3.394959    0.098564
     29          6           0      -16.382432   -5.772444   -2.327834
     30          6           0      -17.415013   -5.602224    1.334896
     31          6           0      -16.163676   -5.302440    2.198992
     32          7           0      -17.981507   -0.519059    0.615875
     33          6           0      -18.948718   -1.489224    0.920831
     34          6           0      -20.101709   -0.788675    1.347524
     35          6           0      -19.798117    0.562863    1.240703
     36          6           0      -18.523871    0.661872    0.787913
     37          6           0      -21.358879   -1.416422    1.859493
     38          6           0      -20.347544    1.831533    1.357777
     39          8           0      -21.495858    2.167624    1.700215
     40          6           0      -19.307657    2.912535    0.934824
     41          6           0      -19.135237    3.772544    2.225647
     42          8           0      -18.592843    3.392958    3.278746
     43          8           0      -19.696364    5.022464    1.987282
     44          6           0      -19.887314    5.948892    3.148240
     45          1           0      -13.182581    2.137627   -1.974419
     46          1           0      -13.938838   -4.352503   -1.492141
     47          1           0      -19.511205   -3.477346    1.135062
     48          1           0      -17.135553    4.417227   -0.680215
     49          1           0      -14.385719    4.040576   -1.224353
     50          1           0      -16.820168    3.808242   -2.968486
     51          1           0      -15.867721    2.436520   -3.230404
     52          1           0      -15.174873    4.123502   -3.411147
     53          1           0      -14.842991    4.587248    1.008098
     54          1           0      -16.344214    4.016368    1.855943
     55          1           0      -17.350633    6.012381    0.632522
     56          1           0      -15.701098    6.535270    0.323225
     57          1           0      -11.068673    1.380873   -1.900848
     58          1           0      -10.727493    0.095803   -3.222726
     59          1           0      -10.067714    0.016029   -1.623673
     60          1           0       -9.602936   -3.693771   -3.015910
     61          1           0       -9.256718   -2.805667   -1.533462
     62          1           0       -9.778830   -1.933342   -3.038819
     63          1           0      -15.506111   -5.809916   -0.360268
     64          1           0      -18.306952   -5.280526   -0.639459
     65          1           0      -16.494240   -4.974856   -3.062805
     66          1           0      -17.255268   -6.415574   -2.441369
     67          1           0      -15.577112   -6.407055   -2.698856
     68          1           0      -17.567503   -6.664453    1.143038
     69          1           0      -18.339603   -5.266728    1.804537
     70          1           0      -16.413763   -4.839327    3.153708
     71          1           0      -15.523067   -4.651069    1.603835
     72          1           0      -15.593639   -6.199578    2.438587
     73          1           0      -22.159155   -1.029058    1.228994
     74          1           0      -21.458143   -1.148261    2.911308
     75          1           0      -21.417171   -2.500095    1.756986
     76          1           0      -19.757345    3.529539    0.157340
     77          1           0      -20.549311    5.430221    3.841297
     78          1           0      -20.320332    6.929095    2.948983
     79          1           0      -18.843626    5.981023    3.461070
     80         12           0       16.491596   -0.551751    0.411960
     81          6           0       15.933745    2.622850   -1.237004
     82          6           0       18.172132    1.122725    2.604974
     83          6           0       17.115350   -3.561187    1.602242
     84          6           0       15.285405   -2.291303   -2.542478
     85          7           0       16.881325    1.694483    0.695390
     86          6           0       16.594943    2.814658   -0.056967
     87          6           0       17.176675    4.026004    0.577936
     88          6           0       18.275417    3.454297    1.510429
     89          6           0       17.795294    1.986179    1.594732
     90          6           0       19.705832    3.532759    0.933326
     91          6           0       16.091929    4.738827    1.441729
     92          6           0       16.018303    6.310294    1.320582
     93          1           0       14.706156    7.076299    1.755936
     94          7           0       17.526354   -1.123837    2.015702
     95          6           0       18.065367   -0.305894    2.880065
     96          6           0       18.583366   -1.091497    3.984233
     97          6           0       18.146291   -2.409183    3.711551
     98          6           0       17.590337   -2.398305    2.385636
     99          6           0       19.255312   -0.412968    5.191748
    100          6           0       18.301188   -3.603782    4.610966
    101          8           0       17.917236   -4.677740    4.255214
    102          6           0       18.845086   -3.413064    5.989256
    103          7           0       16.466055   -2.673202   -0.554225
    104          6           0       16.642861   -3.676406    0.303070
    105          6           0       16.169570   -4.969644   -0.246139
    106          6           0       15.760193   -4.538146   -1.689963
    107          6           0       15.831943   -3.034591   -1.646408
    108          6           0       17.131362   -6.207863   -0.146052
    109          6           0       14.340835   -5.111840   -2.074922
    110          6           0       14.234143   -6.295976   -3.075860
    111          7           0       15.784376   -0.062561   -1.434042
    112          6           0       15.257570   -0.814699   -2.507734
    113          6           0       14.779511    0.103362   -3.562095
    114          6           0       15.012439    1.386002   -3.084170
    115          6           0       15.642815    1.275793   -1.856334
    116          6           0       14.283236   -0.328326   -4.963324
    117          6           0       14.841055    2.826066   -3.460750
    118          8           0       14.339451    3.391508   -4.403528
    119          6           0       15.597716    3.697983   -2.338268
    120          6           0       14.832995    4.822780   -1.941476
    121          8           0       14.056564    4.783003   -0.976792
    122          8           0       14.960575    5.972336   -2.714938
    123          6           0       14.337020    7.242601   -2.232163
    124          1           0       18.724263    1.567979    3.434499
    125          1           0       17.263710   -4.556952    2.024974
    126          1           0       14.911251   -2.798404   -3.433160
    127          1           0       17.687180    4.629688   -0.172887
    128          1           0       18.358792    3.906870    2.498330
    129          1           0       20.345521    4.135329    1.578844
    130          1           0       19.624883    3.995077   -0.050009
    131          1           0       20.184268    2.566671    0.770031
    132          1           0       16.349177    4.485736    2.470420
    133          1           0       15.148465    4.254853    1.190067
    134          1           0       16.268423    6.572099    0.292834
    135          1           0       16.835763    6.626595    1.969604
    136          1           0       18.628376   -0.575163    6.069489
    137          1           0       19.491373    0.644206    5.075210
    138          1           0       20.161759   -0.951244    5.467239
    139          1           0       18.213054   -2.770496    6.601675
    140          1           0       19.793455   -2.882644    6.074273
    141          1           0       18.855424   -4.377900    6.496908
    142          1           0       15.262298   -5.242120    0.293056
    143          1           0       16.545221   -4.829551   -2.388092
    144          1           0       17.984331   -5.882331    0.448501
    145          1           0       17.417223   -6.696932   -1.077954
    146          1           0       16.606138   -7.007137    0.377099
    147          1           0       13.752127   -4.316512   -2.532875
    148          1           0       13.817542   -5.206465   -1.123451
    149          1           0       13.538945   -7.042712   -2.692561
    150          1           0       15.222984   -6.725982   -3.236116
    151          1           0       13.835559   -5.955928   -4.032437
    152          1           0       13.792121   -1.295126   -4.856468
    153          1           0       15.145162   -0.514417   -5.604491
    154          1           0       13.603387    0.402904   -5.401211
    155          1           0       16.541787    4.039035   -2.762119
    156          1           0       14.783016    7.565461   -1.290384
    157          1           0       13.250739    7.208520   -2.306279
    158          1           0       14.718695    8.035680   -2.875039
 ---------------------------------------------------------------------

 SCF Done:  E(RPBE1PBE) =  -4067.35119628     A.U. after   17 cycles

 Excitation energies and oscillator strengths:

 Excited State   1:      Singlet-A      1.8237 eV  679.85 nm  f=0.3637  <S**2>=0.000
     309 -> 315        0.15445
     312 -> 314        0.69672
     312 <- 314       -0.11763
 This state for optimization and/or second-order correction.
 Total Energy, E(TD-HF/TD-DFT) =  -4067.28417692
 Copying the excited state density for this state as the 1-particle RhoCI density.

 Excited State   2:      Singlet-A      1.8807 eV  659.23 nm  f=0.3650  <S**2>=0.000
     310 -> 316        0.15940
     311 -> 313        0.69570
     311 <- 313       -0.11000

 Excited State   3:      Singlet-A      1.8872 eV  656.97 nm  f=0.0000  <S**2>=0.000
     312 -> 313        0.70710

 Excited State   4:      Singlet-A      2.0054 eV  618.25 nm  f=0.0000  <S**2>=0.000
     311 -> 314        0.70710

 Excited State   5:      Singlet-A      2.2326 eV  555.35 nm  f=0.1185  <S**2>=0.000
     309 -> 314        0.65174
     312 -> 315       -0.24378

 The electronic state is 1-A.
 Alpha  occ. eigenvalues --  -46.92871 -46.91678 -19.25373 -19.24706 -19.20196
 Alpha  occ. eigenvalues --  -19.20113 -19.19265 -19.18952 -19.18836 -19.17829
 Alpha  occ. eigenvalues --  -14.41514 -14.41225 -14.40892 -14.39774 -14.39721
 Alpha  occ. eigenvalues --  -14.39268 -14.38991 -14.38123 -10.37038 -10.35560
 Alpha  occ. eigenvalues --  -10.33372 -10.32427 -10.32056 -10.30701 -10.29142
 Alpha  occ. eigenvalues --  -10.28933 -10.28628 -10.28544 -10.28543 -10.28335
 Alpha  occ. eigenvalues --  -10.28098 -10.28042 -10.27976 -10.27971 -10.27962
 Alpha  occ. eigenvalues --  -10.27828 -10.27555 -10.27501 -10.26919 -10.26911
 Alpha  occ. eigenvalues --  -10.26692 -10.26679 -10.26515 -10.26102 -10.26026
 Alpha  occ. eigenvalues --  -10.25980 -10.25973 -10.25903 -10.25855 -10.25792
 Alpha  occ. eigenvalues --  -10.25735 -10.25681 -10.25478 -10.25448 -10.25371
 Alpha  occ. eigenvalues --  -10.25363 -10.25294 -10.24964 -10.24949 -10.24813
 Alpha  occ. eigenvalues --  -10.24716 -10.24640 -10.24558 -10.24469 -10.24435
 Alpha  occ. eigenvalues --  -10.24239 -10.24153 -10.23990 -10.23966 -10.23867
 Alpha  occ. eigenvalues --  -10.23749 -10.23746 -10.23694 -10.23557 -10.23505
 Alpha  occ. eigenvalues --  -10.23451 -10.23326 -10.23296 -10.23263 -10.23207
 Alpha  occ. eigenvalues --  -10.23191 -10.23176 -10.23067 -10.23048 -10.22948
 Alpha  occ. eigenvalues --  -10.21356  -3.14975  -3.13852  -1.87801  -1.87355
 Alpha  occ. eigenvalues --   -1.87199  -1.86672  -1.86230  -1.86077  -1.09113
 Alpha  occ. eigenvalues --   -1.09001  -1.06737  -1.05855  -1.04191  -1.02584
 Alpha  occ. eigenvalues --   -1.01411  -1.00939  -1.00538  -0.99652  -0.99516
 Alpha  occ. eigenvalues --   -0.99410  -0.98562  -0.98129  -0.96818  -0.95965
 Alpha  occ. eigenvalues --   -0.86853  -0.85746  -0.83581  -0.83425  -0.83282
 Alpha  occ. eigenvalues --   -0.83274  -0.82860  -0.82332  -0.82079  -0.82009
 Alpha  occ. eigenvalues --   -0.81817  -0.81398  -0.80808  -0.79769  -0.78849
 Alpha  occ. eigenvalues --   -0.78698  -0.77763  -0.77429  -0.76428  -0.76365
 Alpha  occ. eigenvalues --   -0.76090  -0.75756  -0.75358  -0.75219  -0.74756
 Alpha  occ. eigenvalues --   -0.74685  -0.72973  -0.72514  -0.71496  -0.71333
 Alpha  occ. eigenvalues --   -0.71180  -0.71110  -0.70551  -0.70297  -0.69790
 Alpha  occ. eigenvalues --   -0.69777  -0.67642  -0.67406  -0.66437  -0.65573
 Alpha  occ. eigenvalues --   -0.64099  -0.63555  -0.63254  -0.63153  -0.62440
 Alpha  occ. eigenvalues --   -0.61943  -0.61727  -0.60901  -0.60522  -0.60111
 Alpha  occ. eigenvalues --   -0.59817  -0.59642  -0.59044  -0.58989  -0.58864
 Alpha  occ. eigenvalues --   -0.58526  -0.56124  -0.55925  -0.55681  -0.54727
 Alpha  occ. eigenvalues --   -0.54417  -0.54274  -0.53726  -0.53699  -0.53071
 Alpha  occ. eigenvalues --   -0.52604  -0.52241  -0.52134  -0.51836  -0.51319
 Alpha  occ. eigenvalues --   -0.51094  -0.50523  -0.50370  -0.50161  -0.50106
 Alpha  occ. eigenvalues --   -0.49838  -0.49424  -0.49270  -0.48604  -0.48479
 Alpha  occ. eigenvalues --   -0.48025  -0.47980  -0.47612  -0.47512  -0.47405
 Alpha  occ. eigenvalues --   -0.47393  -0.47148  -0.47042  -0.46979  -0.46697
 Alpha  occ. eigenvalues --   -0.46449  -0.46395  -0.46079  -0.46011  -0.45992
 Alpha  occ. eigenvalues --   -0.45020  -0.44995  -0.44962  -0.44901  -0.44670
 Alpha  occ. eigenvalues --   -0.44488  -0.44330  -0.44102  -0.44072  -0.43993
 Alpha  occ. eigenvalues --   -0.43891  -0.43796  -0.43579  -0.43553  -0.43423
 Alpha  occ. eigenvalues --   -0.43330  -0.43145  -0.43039  -0.42700  -0.42620
 Alpha  occ. eigenvalues --   -0.42532  -0.42409  -0.42296  -0.42270  -0.42152
 Alpha  occ. eigenvalues --   -0.42023  -0.41639  -0.41289  -0.41175  -0.41008
 Alpha  occ. eigenvalues --   -0.40987  -0.40666  -0.40638  -0.40501  -0.40418
 Alpha  occ. eigenvalues --   -0.40272  -0.40228  -0.39713  -0.39661  -0.39430
 Alpha  occ. eigenvalues --   -0.39342  -0.39128  -0.39113  -0.38909  -0.38840
 Alpha  occ. eigenvalues --   -0.38486  -0.38303  -0.38275  -0.38218  -0.38183
 Alpha  occ. eigenvalues --   -0.37986  -0.37934  -0.37806  -0.37703  -0.37551
 Alpha  occ. eigenvalues --   -0.37354  -0.37194  -0.37075  -0.36773  -0.36746
 Alpha  occ. eigenvalues --   -0.36500  -0.36346  -0.36270  -0.35952  -0.35934
 Alpha  occ. eigenvalues --   -0.35727  -0.35472  -0.35453  -0.35339  -0.35147
 Alpha  occ. eigenvalues --   -0.35069  -0.34883  -0.34841  -0.34812  -0.33964
 Alpha  occ. eigenvalues --   -0.33333  -0.33170  -0.32990  -0.32696  -0.32359
 Alpha  occ. eigenvalues --   -0.32102  -0.31879  -0.31590  -0.31586  -0.31224
 Alpha  occ. eigenvalues --   -0.30964  -0.30737  -0.29264  -0.29071  -0.28837
 Alpha  occ. eigenvalues --   -0.28677  -0.28391  -0.27752  -0.27284  -0.26956
 Alpha  occ. eigenvalues --   -0.26614  -0.26176  -0.26061  -0.25613  -0.25540
 Alpha  occ. eigenvalues --   -0.25281  -0.24989  -0.24764  -0.21127  -0.20569
 Alpha  occ. eigenvalues --   -0.19162  -0.18805
 Alpha virt. eigenvalues --   -0.11469  -0.11389  -0.05094  -0.04067  -0.03627
 Alpha virt. eigenvalues --   -0.03363  -0.01982  -0.01843  -0.00519  -0.00472
 Alpha virt. eigenvalues --   -0.00099   0.00414   0.00765   0.00988   0.02164

 Mulliken charges:
               1
     1  Mg  12.002514
     2  C    5.975487
     3  C    6.002947
     4  C    6.032046
     5  C    6.016614
     6  N    6.979273
     7  C    6.032006
     8  C    5.996909
     9  C    6.006608
    10  C    5.976798
    11  C    6.003245
    12  C    5.994100
    13  C    6.000562
    14  H    0.998717
    15  N    7.006760
    16  C    5.964710
    17  C    5.980620
    18  C    5.987056
    19  C    5.962283
    20  C    6.003243
    21  C    5.987482
    22  O    7.970951
    23  C    6.004917
    24  N    7.016617
    25  C    5.958318
    26  C    6.014797
    27  C    5.992685
    28  C    6.017703
    29  C    5.999550
    30  C    5.992251
    31  C    5.994601
    32  N    6.997949
    33  C    6.027068
    34  C    6.030734
    35  C    5.999932
    36  C    6.027470
    37  C    5.997128
    38  C    6.014618
    39  O    8.028940
    40  C    6.003773
    41  C    6.003212
    42  O    8.003571
    43  O    8.001536
    44  C    5.999472
    45  H    0.985942
    46  H    0.996002
    47  H    1.015974
    48  H    0.998552
    49  H    0.998664
    50  H    0.984195
    51  H    1.000548
    52  H    0.996687
    53  H    1.011862
    54  H    0.994380
    55  H    0.996281
    56  H    1.005430
    57  H    0.985626
    58  H    0.981477
    59  H    0.982618
    60  H    0.987083
    61  H    0.989372
    62  H    0.996025
    63  H    0.999140
    64  H    1.002876
    65  H    1.000439
    66  H    0.990756
    67  H    1.003424
    68  H    1.009723
    69  H    0.993564
    70  H    0.997360
    71  H    1.013296
    72  H    1.006735
    73  H    1.017452
    74  H    1.018781
    75  H    1.016128
    76  H    1.008096
    77  H    0.999104
    78  H    1.004303
    79  H    1.004327
    80  Mg  12.000115
    81  C    5.999589
    82  C    5.999901
    83  C    6.000310
    84  C    5.999978
    85  N    6.999671
    86  C    6.000597
    87  C    5.999886
    88  C    6.000138
    89  C    5.999585
    90  C    6.000119
    91  C    5.999962
    92  C    5.999963
    93  H    1.000103
    94  N    7.000233
    95  C    5.999459
    96  C    5.999495
    97  C    5.999779
    98  C    5.999393
    99  C    6.000102
   100  C    5.999770
   101  O    7.999522
   102  C    6.000141
   103  N    7.000038
   104  C    5.999461
   105  C    6.000246
   106  C    5.999803
   107  C    6.000353
   108  C    5.999984
   109  C    5.999902
   110  C    5.999992
   111  N    7.000044
   112  C    6.000622
   113  C    6.000735
   114  C    5.999974
   115  C    6.000616
   116  C    5.999985
   117  C    6.000358
   118  O    8.000555
   119  C    6.000058
   120  C    6.000073
   121  O    8.000233
   122  O    7.999972
   123  C    5.999968
   124  H    0.999675
   125  H    0.999851
   126  H    1.000255
   127  H    0.999911
   128  H    0.999907
   129  H    0.999835
   130  H    0.999712
   131  H    0.999984
   132  H    1.000208
   133  H    1.000030
   134  H    0.999919
   135  H    0.999988
   136  H    0.999635
   137  H    0.999645
   138  H    0.999567
   139  H    0.999874
   140  H    0.999812
   141  H    0.999670
   142  H    1.000051
   143  H    0.999983
   144  H    1.000018
   145  H    0.999817
   146  H    0.999984
   147  H    1.000023
   148  H    1.000240
   149  H    1.000177
   150  H    0.999945
   151  H    1.000039
   152  H    1.000445
   153  H    1.000317
   154  H    1.000445
   155  H    1.000048
   156  H    1.000023
   157  H    1.000190
   158  H    0.999994
 Sum of Mulliken charges = 624.00000

 Dipole moment (field-independent basis, Debye):
    X=             -9.4433    Y=              0.3211    Z=              3.9874  Tot=             10.2557
 Quadrupole moment (field-independent basis, Debye-Ang):
   XX=            296.4058   YY=              1.4588   ZZ=             -2.1922
   XY=              3.4972   XZ=            -68.1715   YZ=             -2.0583

 Normal termination of Gaussian 16 at Thu Oct 14 15:21:51 2021.
