 Gaussian 16, Revision A.03,
 Gaussian 16:  ES64L-G16RevA.03 25-Dec-2016

 --------------------------------------------------------
 #p PBE1PBE/Def2SVP td=(nstates=5) density=(transition=1)
 --------------------------------------------------------

 --------------------------------
 TDDFT excited states in gaussian
 --------------------------------
 Symbolic Z-matrix:
 Charge =  0 Multiplicity = 1

                         Standard orientation:
 ---------------------------------------------------------------------
 Center     Atomic      Atomic             Coordinates (Angstroms)
 Number     Number       Type             X           Y           Z
 ---------------------------------------------------------------------
      1         12           0       12.773686    0.035617    0.172024
      2          6           0        9.441080   -0.617753   -0.213692
      3          6           0       13.083308    0.781613   -3.060612
      4          6           0       15.970198    0.389543    0.700787
      5          6           0       12.442423   -1.354380    3.437100
      6          7           0       11.430476   -0.085422   -1.528332
      7          6           0       10.083019   -0.115103   -1.375050
      8          6           0        9.368257    0.402792   -2.593070
      9          6           0       10.578279    0.573838   -3.596755
     10          6           0       11.786099    0.333410   -2.717243
     11          6           0       10.503782   -0.321090   -4.857118
     12          6           0        8.431309    1.730933   -2.318185
     13          6           0        7.002016    1.750363   -2.881206
     14          1           0        6.716448    0.838514   -4.115661
     15          7           0       14.221257    0.661706   -0.925104
     16          6           0       14.220668    0.932780   -2.256350
     17          6           0       15.532759    1.229505   -2.777504
     18          6           0       16.330626    1.319970   -1.677154
     19          6           0       15.535797    0.662854   -0.593510
     20          6           0       15.674337    1.326462   -4.285524
     21          6           0       17.803771    1.764978   -1.585331
     22          8           0       18.452434    1.754415   -0.565113
     23          6           0       18.393618    2.187467   -2.898404
     24          7           0       14.031373   -0.596791    1.807184
     25          6           0       15.312191   -0.186562    1.779222
     26          6           0       16.011405   -0.485687    3.109023
     27          6           0       14.812494   -0.746257    4.082926
     28          6           0       13.676891   -0.942720    3.057714
     29          6           0       17.106679   -1.634951    3.145013
     30          6           0       14.437614    0.429579    5.061701
     31          6           0       14.048214    1.801526    4.577580
     32          7           0       11.287863   -0.752495    1.476821
     33          6           0       11.286595   -1.364645    2.734365
     34          6           0        9.938977   -1.799944    3.122716
     35          6           0        9.168614   -1.514673    1.985440
     36          6           0       10.053920   -0.887125    1.053442
     37          6           0        9.481070   -2.358304    4.445622
     38          6           0        7.902424   -1.589062    1.414071
     39          8           0        6.841622   -2.059847    1.793753
     40          6           0        7.958791   -0.808611    0.075312
     41          6           0        7.269946   -1.727882   -0.859315
     42          8           0        7.775994   -2.719226   -1.390706
     43          8           0        5.948374   -1.409148   -0.979987
     44          6           0        5.031789   -2.361868   -1.614263
     45          1           0       13.107686    1.202875   -4.068008
     46          1           0       17.018299    0.534446    0.968113
     47          1           0       12.480727   -1.715081    4.467823
     48          1           0        8.749544   -0.377635   -3.036179
     49          1           0       10.642461    1.620329   -3.894018
     50          1           0       11.195446   -1.155009   -4.738248
     51          1           0       10.823526    0.267288   -5.717176
     52          1           0        9.473886   -0.671350   -4.926953
     53          1           0        8.996193    2.558537   -2.747401
     54          1           0        8.290892    1.883578   -1.248566
     55          1           0        6.764977    2.739796   -3.271372
     56          1           0        6.286563    1.581976   -2.076389
     57          1           0       15.429168    0.416632   -4.833655
     58          1           0       16.658254    1.428925   -4.742855
     59          1           0       15.052729    2.197455   -4.493161
     60          1           0       17.801235    2.984109   -3.347832
     61          1           0       18.447861    1.238741   -3.431930
     62          1           0       19.380419    2.648956   -2.907194
     63          1           0       16.543622    0.448836    3.290082
     64          1           0       14.969744   -1.703366    4.580730
     65          1           0       17.215309   -2.063120    2.148824
     66          1           0       16.759697   -2.480163    3.738236
     67          1           0       18.085619   -1.362094    3.542067
     68          1           0       15.350324    0.462657    5.657201
     69          1           0       13.606908    0.170171    5.717232
     70          1           0       14.228210    1.873665    3.504172
     71          1           0       14.668891    2.563338    5.049038
     72          1           0       12.997627    2.072784    4.679500
     73          1           0        9.260256   -3.423490    4.393117
     74          1           0        8.600336   -1.815531    4.789269
     75          1           0       10.367468   -2.256395    5.072233
     76          1           0        7.512076    0.181968    0.162703
     77          1           0        4.004220   -2.235475   -1.271301
     78          1           0        5.415948   -3.380301   -1.582941
     79          1           0        4.986325   -2.240943   -2.696425
     80         12           0      -12.378564   -0.458358   -0.651624
     81          6           0      -11.513724    2.995537    0.114933
     82          6           0       -9.085250   -0.939019   -1.495793
     83          6           0      -12.747246   -3.702820    0.069452
     84          6           0      -15.621072    0.235767    0.090450
     85          7           0      -10.469080    0.873429   -0.486630
     86          6           0      -10.385540    2.286869   -0.216189
     87          6           0       -8.978113    2.786365   -0.554465
     88          6           0       -8.351889    1.637857   -1.399224
     89          6           0       -9.333370    0.407490   -1.160927
     90          6           0       -8.246587    1.973931   -2.961803
     91          6           0       -8.152181    3.330248    0.574425
     92          6           0       -8.592470    2.979253    2.015272
     93          1           0       -7.869013    3.361369    3.319515
     94          7           0      -11.111612   -2.143737   -0.840609
     95          6           0       -9.778739   -2.116896   -1.186889
     96          6           0       -9.298899   -3.529960   -1.295143
     97          6           0      -10.329543   -4.278227   -0.732080
     98          6           0      -11.459520   -3.409467   -0.411167
     99          6           0       -7.930174   -3.837017   -1.790595
    100          6           0      -10.264663   -5.811954   -0.474895
    101          8           0       -9.212793   -6.382686   -0.702750
    102          6           0      -11.347938   -6.610417    0.171169
    103          7           0      -13.960268   -1.497463    0.144297
    104          6           0      -13.873064   -2.888014    0.200532
    105          6           0      -15.226418   -3.508279    0.547794
    106          6           0      -16.225960   -2.327836    0.268986
    107          6           0      -15.250028   -1.158584    0.119521
    108          6           0      -15.652226   -4.809786   -0.179156
    109          6           0      -17.333204   -2.094741    1.346364
    110          6           0      -18.812961   -2.530406    0.933039
    111          7           0      -13.432970    1.265002   -0.099318
    112          6           0      -14.800982    1.394699    0.091184
    113          6           0      -15.125940    2.792707    0.233112
    114          6           0      -13.861554    3.390690    0.322060
    115          6           0      -12.876868    2.399731    0.086111
    116          6           0      -16.557358    3.321291    0.429739
    117          6           0      -13.161051    4.630322    0.462836
    118          8           0      -13.698691    5.749274    0.586531
    119          6           0      -11.596973    4.488004    0.197202
    120          6           0      -10.967185    5.137249    1.364240
    121          8           0      -11.240110    4.943938    2.553630
    122          8           0       -9.947701    5.889609    0.882489
    123          6           0       -9.273374    6.798123    1.862066
    124          1           0       -8.034399   -1.094125   -1.747116
    125          1           0      -12.855991   -4.767521    0.287542
    126          1           0      -16.686808    0.444643    0.201313
    127          1           0       -9.276892    3.594617   -1.222013
    128          1           0       -7.412744    1.269121   -0.986361
    129          1           0       -7.172001    2.036108   -3.128924
    130          1           0       -8.793846    2.893044   -3.172554
    131          1           0       -8.653660    1.102140   -3.475260
    132          1           0       -8.071046    4.402543    0.397311
    133          1           0       -7.180512    2.892969    0.342325
    134          1           0       -8.683927    1.892639    2.016883
    135          1           0       -9.577768    3.403942    2.208478
    136          1           0       -7.379180   -4.212241   -0.928701
    137          1           0       -7.500099   -2.918943   -2.189799
    138          1           0       -7.996039   -4.544387   -2.618013
    139          1           0      -11.594566   -6.397632    1.210665
    140          1           0      -11.093849   -7.665968    0.263323
    141          1           0      -12.150652   -6.474524   -0.553461
    142          1           0      -15.021677   -3.689329    1.603609
    143          1           0      -16.641261   -2.550974   -0.714034
    144          1           0      -15.497812   -5.710807    0.415359
    145          1           0      -15.034139   -4.950257   -1.065284
    146          1           0      -16.688057   -4.682007   -0.495416
    147          1           0      -17.398787   -1.067718    1.706645
    148          1           0      -16.978013   -2.656753    2.210215
    149          1           0      -19.156665   -3.035749    1.835241
    150          1           0      -18.873612   -3.195841    0.071735
    151          1           0      -19.333180   -1.622136    0.630964
    152          1           0      -16.737700    4.328662    0.053880
    153          1           0      -16.618944    3.335511    1.517365
    154          1           0      -17.260463    2.730954   -0.157428
    155          1           0      -11.348771    4.969081   -0.750018
    156          1           0       -8.472506    7.339354    1.357111
    157          1           0       -8.824334    6.233483    2.679382
    158          1           0      -10.095143    7.441540    2.173248
 ---------------------------------------------------------------------

 SCF Done:  E(RPBE1PBE) =  -4067.33372186     A.U. after   16 cycles

 Excitation energies and oscillator strengths:

 Excited State   1:      Singlet-A      1.8049 eV  686.94 nm  f=0.3547  <S**2>=0.000
     309 -> 315        0.15289
     311 -> 313        0.69747
     311 <- 313       -0.11774
 This state for optimization and/or second-order correction.
 Total Energy, E(TD-HF/TD-DFT) =  -4067.26739340
 Copying the excited state density for this state as the 1-particle RhoCI density.

 Excited State   2:      Singlet-A      1.8234 eV  679.96 nm  f=0.0000  <S**2>=0.000
     312 -> 313        0.70710

 Excited State   3:      Singlet-A      1.8950 eV  654.26 nm  f=0.3607  <S**2>=0.000
     310 -> 316       -0.18686
     312 -> 314        0.68787

 Excited State   4:      Singlet-A      2.0198 eV  613.85 nm  f=0.0000  <S**2>=0.000
     311 -> 314        0.70709

 Excited State   5:      Singlet-A      2.2582 eV  549.04 nm  f=0.0681  <S**2>=0.000
     310 -> 314        0.63613
     312 -> 316        0.29848

 The electronic state is 1-A.
 Alpha  occ. eigenvalues --  -46.92627 -46.91367 -19.26020 -19.24633 -19.19935
 Alpha  occ. eigenvalues --  -19.19693 -19.19012 -19.18654 -19.18097 -19.17553
 Alpha  occ. eigenvalues --  -14.41911 -14.41185 -14.41095 -14.40570 -14.39544
 Alpha  occ. eigenvalues --  -14.39203 -14.38498 -14.38445 -10.36178 -10.35334
 Alpha  occ. eigenvalues --  -10.32906 -10.32420 -10.30911 -10.30832 -10.29407
 Alpha  occ. eigenvalues --  -10.29329 -10.29207 -10.28958 -10.28336 -10.28326
 Alpha  occ. eigenvalues --  -10.28298 -10.28226 -10.28117 -10.28088 -10.27946
 Alpha  occ. eigenvalues --  -10.27835 -10.27524 -10.27052 -10.26935 -10.26735
 Alpha  occ. eigenvalues --  -10.26577 -10.26428 -10.26389 -10.26333 -10.26300
 Alpha  occ. eigenvalues --  -10.26159 -10.26156 -10.25946 -10.25774 -10.25743
 Alpha  occ. eigenvalues --  -10.25715 -10.25564 -10.25515 -10.25491 -10.25443
 Alpha  occ. eigenvalues --  -10.25413 -10.25411 -10.25283 -10.25253 -10.25139
 Alpha  occ. eigenvalues --  -10.25047 -10.25043 -10.25020 -10.25009 -10.24895
 Alpha  occ. eigenvalues --  -10.24847 -10.24779 -10.24685 -10.24329 -10.24282
 Alpha  occ. eigenvalues --  -10.24091 -10.23977 -10.23913 -10.23858 -10.23661
 Alpha  occ. eigenvalues --  -10.23599 -10.23522 -10.23483 -10.23479 -10.23477
 Alpha  occ. eigenvalues --  -10.23435 -10.23140 -10.22734 -10.22650 -10.22025
 Alpha  occ. eigenvalues --  -10.21967  -3.14696  -3.13794  -1.87506  -1.87092
 Alpha  occ. eigenvalues --   -1.86899  -1.86601  -1.86184  -1.86051  -1.10850
 Alpha  occ. eigenvalues --   -1.09675  -1.06084  -1.05169  -1.03924  -1.02324
 Alpha  occ. eigenvalues --   -1.01571  -1.00797  -1.00150  -0.99628  -0.99285
 Alpha  occ. eigenvalues --   -0.98847  -0.98722  -0.97790  -0.97211  -0.94811
 Alpha  occ. eigenvalues --   -0.86828  -0.86350  -0.83801  -0.83597  -0.83168
 Alpha  occ. eigenvalues --   -0.82830  -0.82698  -0.82291  -0.82254  -0.81827
 Alpha  occ. eigenvalues --   -0.81036  -0.81022  -0.80844  -0.80453  -0.78650
 Alpha  occ. eigenvalues --   -0.78543  -0.78025  -0.77904  -0.76885  -0.76732
 Alpha  occ. eigenvalues --   -0.76700  -0.76540  -0.75414  -0.75294  -0.74839
 Alpha  occ. eigenvalues --   -0.74474  -0.73221  -0.72225  -0.72027  -0.71862
 Alpha  occ. eigenvalues --   -0.71331  -0.70794  -0.70299  -0.70046  -0.69554
 Alpha  occ. eigenvalues --   -0.69482  -0.67489  -0.67161  -0.66125  -0.66030
 Alpha  occ. eigenvalues --   -0.64003  -0.63978  -0.63443  -0.63273  -0.62649
 Alpha  occ. eigenvalues --   -0.62104  -0.61676  -0.61264  -0.60507  -0.59855
 Alpha  occ. eigenvalues --   -0.59742  -0.59484  -0.59267  -0.59208  -0.58350
 Alpha  occ. eigenvalues --   -0.58078  -0.56710  -0.56368  -0.55552  -0.54048
 Alpha  occ. eigenvalues --   -0.53930  -0.53823  -0.53706  -0.53627  -0.52587
 Alpha  occ. eigenvalues --   -0.52469  -0.52391  -0.52135  -0.51979  -0.51751
 Alpha  occ. eigenvalues --   -0.51303  -0.50848  -0.50677  -0.49884  -0.49687
 Alpha  occ. eigenvalues --   -0.49638  -0.49182  -0.49128  -0.48738  -0.48734
 Alpha  occ. eigenvalues --   -0.48259  -0.48232  -0.47827  -0.47705  -0.47404
 Alpha  occ. eigenvalues --   -0.47319  -0.47083  -0.47064  -0.46917  -0.46896
 Alpha  occ. eigenvalues --   -0.46842  -0.46428  -0.46161  -0.45864  -0.45838
 Alpha  occ. eigenvalues --   -0.45750  -0.45442  -0.45270  -0.45256  -0.44993
 Alpha  occ. eigenvalues --   -0.44854  -0.44542  -0.44288  -0.44013  -0.43942
 Alpha  occ. eigenvalues --   -0.43919  -0.43742  -0.43590  -0.43421  -0.43301
 Alpha  occ. eigenvalues --   -0.43161  -0.42942  -0.42753  -0.42734  -0.42674
 Alpha  occ. eigenvalues --   -0.42415  -0.42403  -0.42220  -0.41865  -0.41814
 Alpha  occ. eigenvalues --   -0.41506  -0.41500  -0.41364  -0.41310  -0.41252
 Alpha  occ. eigenvalues --   -0.41182  -0.40947  -0.40533  -0.40435  -0.40261
 Alpha  occ. eigenvalues --   -0.40167  -0.40057  -0.39880  -0.39681  -0.39649
 Alpha  occ. eigenvalues --   -0.39290  -0.39258  -0.38890  -0.38765  -0.38728
 Alpha  occ. eigenvalues --   -0.38675  -0.38628  -0.38294  -0.38176  -0.38121
 Alpha  occ. eigenvalues --   -0.37945  -0.37762  -0.37698  -0.37613  -0.37511
 Alpha  occ. eigenvalues --   -0.37304  -0.37225  -0.37073  -0.37018  -0.36984
 Alpha  occ. eigenvalues --   -0.36777  -0.36736  -0.36616  -0.36439  -0.36100
 Alpha  occ. eigenvalues --   -0.35934  -0.35907  -0.35698  -0.35654  -0.35433
 Alpha  occ. eigenvalues --   -0.34848  -0.34502  -0.34275  -0.34165  -0.33984
 Alpha  occ. eigenvalues --   -0.33474  -0.33329  -0.33194  -0.32357  -0.32100
 Alpha  occ. eigenvalues --   -0.32100  -0.31529  -0.31518  -0.31390  -0.31335
 Alpha  occ. eigenvalues --   -0.30813  -0.30135  -0.29588  -0.29223  -0.28993
 Alpha  occ. eigenvalues --   -0.28739  -0.28249  -0.27882  -0.27692  -0.27038
 Alpha  occ. eigenvalues --   -0.26364  -0.26144  -0.25767  -0.25534  -0.25338
 Alpha  occ. eigenvalues --   -0.25225  -0.25130  -0.24246  -0.21211  -0.20682
 Alpha  occ. eigenvalues --   -0.18402  -0.18284
 Alpha virt. eigenvalues --   -0.11040  -0.10453  -0.05245  -0.05236  -0.03939
 Alpha virt. eigenvalues --   -0.03067  -0.01955  -0.01876  -0.01349  -0.00068
 Alpha virt. eigenvalues --    0.00209   0.00918   0.01077   0.01649   0.02033

 Mulliken charges:
               1
     1  Mg  11.999851
     2  C    5.999720
     3  C    6.000229
     4  C    6.000269
     5  C    5.999837
     6  N    6.999866
     7  C    6.000787
     8  C    5.999763
     9  C    6.000258
    10  C    5.999233
    11  C    6.000062
    12  C    5.999941
    13  C    5.999819
    14  H    1.000591
    15  N    7.000079
    16  C    5.999227
    17  C    5.999433
    18  C    5.999489
    19  C    5.999399
    20  C    6.000085
    21  C    5.999588
    22  O    7.999206
    23  C    6.000201
    24  N    7.000021
    25  C    5.999190
    26  C    6.000215
    27  C    5.999875
    28  C    6.000594
    29  C    6.000026
    30  C    5.999870
    31  C    5.999918
    32  N    7.000047
    33  C    6.000658
    34  C    6.000638
    35  C    6.000280
    36  C    6.000327
    37  C    5.999948
    38  C    6.000430
    39  O    8.001455
    40  C    6.000078
    41  C    6.000095
    42  O    8.000175
    43  O    8.000025
    44  C    5.999559
    45  H    0.999686
    46  H    0.999663
    47  H    1.000161
    48  H    1.000318
    49  H    0.999847
    50  H    0.999969
    51  H    0.999865
    52  H    0.999993
    53  H    0.999967
    54  H    0.999776
    55  H    0.999903
    56  H    1.000188
    57  H    0.999578
    58  H    0.999492
    59  H    0.999623
    60  H    0.999775
    61  H    0.999865
    62  H    0.999441
    63  H    0.999895
    64  H    0.999965
    65  H    1.000095
    66  H    0.999726
    67  H    0.999773
    68  H    1.000051
    69  H    0.999882
    70  H    1.000361
    71  H    0.999907
    72  H    0.999875
    73  H    1.000641
    74  H    1.000451
    75  H    1.000174
    76  H    1.000184
    77  H    1.001034
    78  H    1.000161
    79  H    1.000355
    80  Mg  11.999726
    81  C    5.972568
    82  C    5.991171
    83  C    6.031109
    84  C    6.007956
    85  N    6.976430
    86  C    6.025585
    87  C    5.996450
    88  C    6.002152
    89  C    5.988127
    90  C    6.002030
    91  C    5.998645
    92  C    5.994120
    93  H    1.001974
    94  N    7.008200
    95  C    5.968265
    96  C    5.972870
    97  C    5.998142
    98  C    5.954919
    99  C    6.004475
   100  C    5.988138
   101  O    7.984190
   102  C    6.001757
   103  N    7.008580
   104  C    5.960633
   105  C    6.010204
   106  C    5.988597
   107  C    6.031773
   108  C    5.999927
   109  C    5.993536
   110  C    6.001987
   111  N    7.000336
   112  C    6.030526
   113  C    6.023789
   114  C    6.001454
   115  C    6.035672
   116  C    6.001253
   117  C    6.016217
   118  O    8.032289
   119  C    6.007025
   120  C    6.003903
   121  O    8.001083
   122  O    8.002267
   123  C    6.000104
   124  H    0.986690
   125  H    0.994876
   126  H    1.015722
   127  H    0.995133
   128  H    1.000751
   129  H    0.994979
   130  H    0.986096
   131  H    1.002775
   132  H    0.997205
   133  H    1.007758
   134  H    1.009902
   135  H    0.993170
   136  H    0.982594
   137  H    0.985762
   138  H    0.982064
   139  H    0.989737
   140  H    0.989083
   141  H    0.992482
   142  H    0.999494
   143  H    1.006640
   144  H    1.002823
   145  H    1.004879
   146  H    0.991231
   147  H    0.994583
   148  H    1.008884
   149  H    1.004829
   150  H    1.005613
   151  H    0.997485
   152  H    1.014892
   153  H    1.015494
   154  H    1.013022
   155  H    1.005764
   156  H    1.004560
   157  H    1.004039
   158  H    0.998844
 Sum of Mulliken charges = 624.00000

 Dipole moment (field-independent basis, Debye):
    X=             -6.8397    Y=              7.2547    Z=              2.0569  Tot=             10.1806
 Quadrupole moment (field-independent basis, Debye-Ang):
   XX=            155.0668   YY=             -4.3792   ZZ=             -2.1732
   XY=            -86.9904   XZ=            -17.3507   YZ=             -1.3717

 Normal termination of Gaussian 16 at Wed Oct 13 20:19:53 2021.
