 Gaussian 16, Revision A.03,
 Gaussian 16:  ES64L-G16RevA.03 25-Dec-2016

 --------------------------------------------------------
 #p PBE1PBE/Def2SVP td=(nstates=5) density=(transition=1)
 --------------------------------------------------------

 --------------------------------
 TDDFT excited states in gaussian
 --------------------------------
 Symbolic Z-matrix:
 Charge =  0 Multiplicity = 1

                         Standard orientation:
 ---------------------------------------------------------------------
 Center     Atomic      Atomic             Coordinates (Angstroms)
 Number     Number       Type             X           Y           Z
 ---------------------------------------------------------------------
      1         12           0       -9.183836   -0.371473   -0.147919
      2          6           0       -7.513483    2.475249    0.936512
      3          6           0      -11.096712    1.748452   -2.116801
      4          6           0      -11.158766   -3.053897   -0.833841
      5          6           0       -7.277917   -2.277833    2.017528
      6          7           0       -9.321504    1.866490   -0.496902
      7          6           0       -8.506579    2.857551    0.028749
      8          6           0       -8.920573    4.319079   -0.403014
      9          6           0      -10.286578    4.007411   -1.128664
     10          6           0      -10.278000    2.437868   -1.235008
     11          6           0      -11.621273    4.459582   -0.528966
     12          6           0       -7.822151    4.969437   -1.263905
     13          6           0       -7.006831    6.062731   -0.625063
     14          1           0       -6.596734    7.239781   -1.527803
     15          7           0      -10.765937   -0.704817   -1.445789
     16          6           0      -11.315543    0.290996   -2.191420
     17          6           0      -12.413234   -0.344070   -2.946509
     18          6           0      -12.528617   -1.681615   -2.536814
     19          6           0      -11.493394   -1.894223   -1.601425
     20          6           0      -13.111263    0.381337   -4.024435
     21          6           0      -13.529191   -2.729930   -2.926461
     22          8           0      -13.450843   -3.936082   -2.562221
     23          6           0      -14.689351   -2.469482   -3.719343
     24          7           0       -9.168598   -2.344830    0.418192
     25          6           0      -10.062382   -3.276751   -0.012177
     26          6           0       -9.842132   -4.619515    0.564995
     27          6           0       -8.556283   -4.409924    1.442770
     28          6           0       -8.369871   -2.943396    1.331591
     29          6           0      -10.935365   -5.400149    1.352386
     30          6           0       -7.296904   -5.331335    1.053664
     31          6           0       -6.284051   -4.957149   -0.068946
     32          7           0       -7.730709   -0.046536    1.238849
     33          6           0       -7.019533   -0.914030    2.016936
     34          6           0       -5.958836   -0.247157    2.636140
     35          6           0       -6.196362    1.136982    2.283269
     36          6           0       -7.266863    1.185927    1.412740
     37          6           0       -4.828552   -0.847678    3.469965
     38          6           0       -5.605584    2.438553    2.407304
     39          8           0       -4.585289    2.868020    2.906204
     40          6           0       -6.611488    3.411662    1.698191
     41          6           0       -7.336731    4.207343    2.708425
     42          8           0       -8.556311    4.135122    2.976123
     43          8           0       -6.562398    5.067493    3.405285
     44          6           0       -7.205817    6.098964    4.288675
     45          1           0      -11.736072    2.426946   -2.684293
     46          1           0      -11.775442   -3.942646   -0.984394
     47          1           0       -6.528488   -2.830956    2.588374
     48          1           0       -9.302075    4.902414    0.435660
     49          1           0      -10.182805    4.422327   -2.131201
     50          1           0      -12.186874    3.596510   -0.177020
     51          1           0      -12.224130    4.808400   -1.366115
     52          1           0      -11.552359    5.203381    0.265583
     53          1           0       -8.354933    5.440882   -2.090560
     54          1           0       -7.208276    4.174358   -1.687114
     55          1           0       -6.091706    5.606949   -0.246112
     56          1           0       -7.445515    6.520120    0.261869
     57          1           0      -12.893924   -0.187843   -4.927338
     58          1           0      -12.878747    1.431170   -4.207619
     59          1           0      -14.186516    0.347214   -3.849216
     60          1           0      -15.110447   -1.549565   -3.314570
     61          1           0      -15.309208   -3.361164   -3.803698
     62          1           0      -14.414729   -2.169882   -4.730772
     63          1           0       -9.612518   -5.163328   -0.350862
     64          1           0       -8.800273   -4.597331    2.487788
     65          1           0      -11.251005   -6.302698    0.828977
     66          1           0      -11.838213   -4.800418    1.472543
     67          1           0      -10.639776   -5.650875    2.371078
     68          1           0       -7.784541   -6.245550    0.714586
     69          1           0       -6.847205   -5.474378    2.036332
     70          1           0       -6.386812   -3.951163   -0.474982
     71          1           0       -6.153150   -5.694553   -0.861417
     72          1           0       -5.318717   -5.025868    0.430841
     73          1           0       -4.776459   -0.404356    4.464927
     74          1           0       -3.889374   -0.590427    2.980473
     75          1           0       -4.837239   -1.936381    3.528663
     76          1           0       -6.019676    4.164714    1.177550
     77          1           0       -6.324701    6.728303    4.414628
     78          1           0       -7.601971    5.719284    5.229911
     79          1           0       -8.016855    6.589714    3.749748
     80         12           0        8.592897   -0.914219   -0.569315
     81          6           0       11.107516    1.564507   -0.681054
     82          6           0        6.265511    1.416720   -0.412960
     83          6           0        6.411306   -3.346992    0.428235
     84          6           0       11.301957   -3.275393    0.303064
     85          7           0        8.730944    1.257361   -0.494685
     86          6           0        9.795951    2.029684   -0.792280
     87          6           0        9.314309    3.465712   -1.077622
     88          6           0        7.821342    3.410864   -1.019444
     89          6           0        7.547865    1.942418   -0.573873
     90          6           0        7.192757    4.590579   -0.170661
     91          6           0        9.863206    4.198941   -2.347049
     92          6           0        8.976947    5.203006   -3.201686
     93          1           0        9.601965    6.532700   -3.648546
     94          7           0        6.560752   -0.970554   -0.308039
     95          6           0        5.753600    0.144440   -0.289182
     96          6           0        4.398825   -0.301552   -0.128656
     97          6           0        4.374497   -1.720026    0.167688
     98          6           0        5.815082   -2.057249    0.157068
     99          6           0        3.329856    0.714824   -0.123039
    100          6           0        3.185623   -2.691102    0.372696
    101          8           0        3.383798   -3.827099    0.653295
    102          6           0        1.802524   -2.285542   -0.020643
    103          7           0        8.865276   -3.005992    0.306469
    104          6           0        7.756086   -3.760769    0.473274
    105          6           0        8.100109   -5.222597    0.903609
    106          6           0        9.657738   -5.234060    0.831734
    107          6           0       10.003910   -3.766527    0.477731
    108          6           0        7.588832   -5.641131    2.256480
    109          6           0       10.345149   -6.227585   -0.168949
    110          6           0       10.376621   -5.892446   -1.621799
    111          7           0       10.755523   -0.986164   -0.245400
    112          6           0       11.645009   -1.984729    0.030577
    113          6           0       12.988056   -1.465894   -0.059399
    114          6           0       12.868762   -0.077747   -0.332374
    115          6           0       11.481938    0.168633   -0.389269
    116          6           0       14.259997   -2.167323    0.263612
    117          6           0       13.572460    1.158216   -0.523710
    118          8           0       14.761587    1.451333   -0.571946
    119          6           0       12.468199    2.272725   -0.808030
    120          6           0       12.649258    3.518442    0.042808
    121          8           0       12.535631    3.535220    1.241285
    122          8           0       12.912458    4.599919   -0.782783
    123          6           0       13.138336    5.845580   -0.048844
    124          1           0        5.424651    2.098555   -0.558849
    125          1           0        5.646760   -4.081914    0.687610
    126          1           0       12.110990   -3.992638    0.455673
    127          1           0        9.780067    3.956859   -0.223242
    128          1           0        7.448749    3.598114   -2.026901
    129          1           0        7.975221    5.300990    0.095610
    130          1           0        6.624146    4.142415    0.644112
    131          1           0        6.534457    5.209326   -0.780775
    132          1           0       10.181173    3.420060   -3.040551
    133          1           0       10.779089    4.750430   -2.133023
    134          1           0        8.107187    5.394138   -2.572808
    135          1           0        8.617648    4.687143   -4.092211
    136          1           0        2.600163    0.365692    0.607199
    137          1           0        2.857230    0.684606   -1.104065
    138          1           0        3.532540    1.765474    0.085363
    139          1           0        1.412785   -1.869160    0.907324
    140          1           0        1.288782   -3.145596   -0.451236
    141          1           0        1.746532   -1.457126   -0.727169
    142          1           0        7.797569   -5.949557    0.149618
    143          1           0       10.238423   -5.352203    1.746046
    144          1           0        6.878848   -4.916065    2.656467
    145          1           0        8.386164   -5.704260    2.997477
    146          1           0        7.103430   -6.603961    2.098909
    147          1           0        9.878051   -7.209199   -0.088508
    148          1           0       11.337965   -6.452228    0.221516
    149          1           0        9.571670   -5.195538   -1.855990
    150          1           0       10.221846   -6.659636   -2.380786
    151          1           0       11.383880   -5.514105   -1.798991
    152          1           0       14.331715   -2.538617    1.285506
    153          1           0       15.010865   -1.379908    0.333616
    154          1           0       14.494562   -2.939823   -0.469251
    155          1           0       12.565871    2.519131   -1.865503
    156          1           0       12.206423    6.250242   -0.442454
    157          1           0       14.031408    6.254182   -0.521081
    158          1           0       13.193035    5.704846    1.030863
 ---------------------------------------------------------------------

 SCF Done:  E(RPBE1PBE) =  -4067.36870079     A.U. after   17 cycles

 Excitation energies and oscillator strengths:

 Excited State   1:      Singlet-A      1.7983 eV  689.44 nm  f=0.0000  <S**2>=0.000
     312 -> 313        0.70706
 This state for optimization and/or second-order correction.
 Total Energy, E(TD-HF/TD-DFT) =  -4067.30261289
 Copying the excited state density for this state as the 1-particle RhoCI density.

 Excited State   2:      Singlet-A      1.8536 eV  668.89 nm  f=0.6788  <S**2>=0.000
     309 -> 315       -0.10520
     310 -> 316        0.13695
     311 -> 313        0.43733
     312 -> 314        0.53638

 Excited State   3:      Singlet-A      1.8719 eV  662.34 nm  f=0.0940  <S**2>=0.000
     309 -> 315       -0.13375
     310 -> 316       -0.11549
     311 -> 313        0.53598
     312 -> 314       -0.43606

 Excited State   4:      Singlet-A      1.9351 eV  640.71 nm  f=0.0000  <S**2>=0.000
     311 -> 314        0.70702

 Excited State   5:      Singlet-A      2.1926 eV  565.47 nm  f=0.0910  <S**2>=0.000
     310 -> 314        0.65313
     312 -> 316       -0.25406

 The electronic state is 1-A.
 Alpha  occ. eigenvalues --  -46.93292 -46.91086 -19.25372 -19.24830 -19.20174
 Alpha  occ. eigenvalues --  -19.19593 -19.18820 -19.18692 -19.18658 -19.18295
 Alpha  occ. eigenvalues --  -14.41652 -14.41610 -14.41554 -14.41151 -14.39332
 Alpha  occ. eigenvalues --  -14.39029 -14.38418 -14.38216 -10.36052 -10.35685
 Alpha  occ. eigenvalues --  -10.32670 -10.31886 -10.31714 -10.31536 -10.29365
 Alpha  occ. eigenvalues --  -10.29180 -10.28893 -10.28775 -10.28720 -10.28450
 Alpha  occ. eigenvalues --  -10.28440 -10.28404 -10.28314 -10.28296 -10.28100
 Alpha  occ. eigenvalues --  -10.27933 -10.27827 -10.27058 -10.26919 -10.26691
 Alpha  occ. eigenvalues --  -10.26574 -10.26436 -10.26257 -10.26146 -10.26127
 Alpha  occ. eigenvalues --  -10.26123 -10.26116 -10.25972 -10.25786 -10.25705
 Alpha  occ. eigenvalues --  -10.25612 -10.25485 -10.25474 -10.25405 -10.25367
 Alpha  occ. eigenvalues --  -10.25347 -10.25264 -10.25195 -10.25160 -10.25102
 Alpha  occ. eigenvalues --  -10.25036 -10.25005 -10.24941 -10.24660 -10.24494
 Alpha  occ. eigenvalues --  -10.24455 -10.24398 -10.24318 -10.24224 -10.24201
 Alpha  occ. eigenvalues --  -10.23949 -10.23881 -10.23870 -10.23737 -10.23712
 Alpha  occ. eigenvalues --  -10.23668 -10.23638 -10.23598 -10.23519 -10.23276
 Alpha  occ. eigenvalues --  -10.23015 -10.22771 -10.22582 -10.22577 -10.22497
 Alpha  occ. eigenvalues --  -10.22313  -3.15186  -3.13378  -1.87996  -1.87567
 Alpha  occ. eigenvalues --   -1.87398  -1.86231  -1.85757  -1.85606  -1.10997
 Alpha  occ. eigenvalues --   -1.10028  -1.07488  -1.04512  -1.03910  -1.03313
 Alpha  occ. eigenvalues --   -1.02729  -1.00030  -0.99678  -0.98909  -0.98724
 Alpha  occ. eigenvalues --   -0.98015  -0.97687  -0.97027  -0.97020  -0.96377
 Alpha  occ. eigenvalues --   -0.87647  -0.85888  -0.83447  -0.83434  -0.83068
 Alpha  occ. eigenvalues --   -0.82857  -0.82747  -0.82443  -0.81975  -0.81596
 Alpha  occ. eigenvalues --   -0.81474  -0.81296  -0.80616  -0.80355  -0.78779
 Alpha  occ. eigenvalues --   -0.78188  -0.78083  -0.77854  -0.77110  -0.76839
 Alpha  occ. eigenvalues --   -0.76553  -0.76137  -0.75448  -0.75070  -0.75019
 Alpha  occ. eigenvalues --   -0.74668  -0.73035  -0.72460  -0.71959  -0.71348
 Alpha  occ. eigenvalues --   -0.71297  -0.71297  -0.70658  -0.70099  -0.69786
 Alpha  occ. eigenvalues --   -0.68928  -0.67707  -0.66700  -0.65918  -0.65775
 Alpha  occ. eigenvalues --   -0.64618  -0.64006  -0.63561  -0.63280  -0.62605
 Alpha  occ. eigenvalues --   -0.62604  -0.61645  -0.61219  -0.59808  -0.59651
 Alpha  occ. eigenvalues --   -0.59385  -0.59361  -0.59057  -0.58691  -0.58552
 Alpha  occ. eigenvalues --   -0.58411  -0.56226  -0.56185  -0.54631  -0.54417
 Alpha  occ. eigenvalues --   -0.54335  -0.53992  -0.53874  -0.53414  -0.53277
 Alpha  occ. eigenvalues --   -0.52840  -0.52463  -0.52402  -0.51983  -0.51844
 Alpha  occ. eigenvalues --   -0.50910  -0.50513  -0.50314  -0.50257  -0.49818
 Alpha  occ. eigenvalues --   -0.49608  -0.49526  -0.49074  -0.49059  -0.48555
 Alpha  occ. eigenvalues --   -0.48548  -0.48043  -0.47982  -0.47632  -0.47391
 Alpha  occ. eigenvalues --   -0.47325  -0.47250  -0.47157  -0.46876  -0.46723
 Alpha  occ. eigenvalues --   -0.46652  -0.46281  -0.45826  -0.45633  -0.45567
 Alpha  occ. eigenvalues --   -0.45408  -0.45242  -0.45109  -0.45070  -0.44935
 Alpha  occ. eigenvalues --   -0.44733  -0.44540  -0.44478  -0.44336  -0.44131
 Alpha  occ. eigenvalues --   -0.44038  -0.43788  -0.43760  -0.43582  -0.43536
 Alpha  occ. eigenvalues --   -0.43293  -0.43188  -0.43138  -0.42942  -0.42821
 Alpha  occ. eigenvalues --   -0.42752  -0.42552  -0.42205  -0.42028  -0.41805
 Alpha  occ. eigenvalues --   -0.41745  -0.41587  -0.41372  -0.41332  -0.41132
 Alpha  occ. eigenvalues --   -0.40935  -0.40673  -0.40568  -0.40408  -0.40311
 Alpha  occ. eigenvalues --   -0.40233  -0.40181  -0.40078  -0.40069  -0.39734
 Alpha  occ. eigenvalues --   -0.39270  -0.39225  -0.39196  -0.38952  -0.38926
 Alpha  occ. eigenvalues --   -0.38773  -0.38740  -0.38694  -0.38401  -0.38320
 Alpha  occ. eigenvalues --   -0.38298  -0.38013  -0.37914  -0.37804  -0.37725
 Alpha  occ. eigenvalues --   -0.37591  -0.37481  -0.37388  -0.37111  -0.36821
 Alpha  occ. eigenvalues --   -0.36625  -0.36589  -0.36411  -0.36329  -0.36139
 Alpha  occ. eigenvalues --   -0.35781  -0.35655  -0.35384  -0.35322  -0.34928
 Alpha  occ. eigenvalues --   -0.34927  -0.34731  -0.33993  -0.33972  -0.33828
 Alpha  occ. eigenvalues --   -0.33367  -0.32990  -0.32971  -0.32756  -0.32283
 Alpha  occ. eigenvalues --   -0.32066  -0.31878  -0.31729  -0.31631  -0.30794
 Alpha  occ. eigenvalues --   -0.30690  -0.30673  -0.29681  -0.29447  -0.28929
 Alpha  occ. eigenvalues --   -0.28716  -0.28579  -0.27722  -0.26806  -0.26435
 Alpha  occ. eigenvalues --   -0.26352  -0.25777  -0.25508  -0.25333  -0.25282
 Alpha  occ. eigenvalues --   -0.25186  -0.25067  -0.24926  -0.20761  -0.20664
 Alpha  occ. eigenvalues --   -0.18853  -0.18586
 Alpha virt. eigenvalues --   -0.11234  -0.10983  -0.05021  -0.04993  -0.03675
 Alpha virt. eigenvalues --   -0.03670  -0.02179  -0.01856  -0.01565   0.00413
 Alpha virt. eigenvalues --    0.00446   0.00672   0.01053   0.01262   0.01780

 Mulliken charges:
               1
     1  Mg  12.000000
     2  C    6.000001
     3  C    6.000000
     4  C    5.999999
     5  C    6.000000
     6  N    7.000000
     7  C    5.999999
     8  C    6.000001
     9  C    6.000000
    10  C    6.000002
    11  C    6.000000
    12  C    6.000000
    13  C    6.000000
    14  H    1.000000
    15  N    7.000000
    16  C    6.000002
    17  C    6.000002
    18  C    6.000000
    19  C    6.000002
    20  C    6.000000
    21  C    6.000000
    22  O    8.000001
    23  C    6.000000
    24  N    6.999999
    25  C    6.000002
    26  C    5.999999
    27  C    6.000001
    28  C    5.999998
    29  C    6.000000
    30  C    6.000000
    31  C    6.000000
    32  N    7.000000
    33  C    5.999999
    34  C    5.999998
    35  C    6.000000
    36  C    5.999998
    37  C    6.000000
    38  C    5.999999
    39  O    7.999999
    40  C    6.000000
    41  C    6.000000
    42  O    8.000000
    43  O    8.000000
    44  C    6.000000
    45  H    1.000001
    46  H    1.000000
    47  H    0.999999
    48  H    1.000000
    49  H    1.000000
    50  H    1.000000
    51  H    1.000000
    52  H    1.000001
    53  H    1.000000
    54  H    1.000000
    55  H    1.000000
    56  H    1.000000
    57  H    1.000001
    58  H    1.000001
    59  H    1.000001
    60  H    1.000000
    61  H    1.000001
    62  H    1.000000
    63  H    1.000000
    64  H    1.000000
    65  H    1.000000
    66  H    1.000000
    67  H    1.000001
    68  H    0.999999
    69  H    1.000000
    70  H    1.000000
    71  H    1.000000
    72  H    1.000000
    73  H    0.999999
    74  H    0.999999
    75  H    0.999999
    76  H    0.999999
    77  H    1.000000
    78  H    1.000000
    79  H    1.000000
    80  Mg  12.000000
    81  C    6.000004
    82  C    5.999998
    83  C    5.999998
    84  C    6.000001
    85  N    7.000002
    86  C    5.999994
    87  C    6.000001
    88  C    5.999998
    89  C    6.000005
    90  C    6.000000
    91  C    6.000000
    92  C    6.000000
    93  H    1.000000
    94  N    6.999999
    95  C    6.000006
    96  C    6.000004
    97  C    6.000002
    98  C    6.000003
    99  C    5.999999
   100  C    6.000004
   101  O    8.000006
   102  C    5.999999
   103  N    7.000000
   104  C    6.000002
   105  C    5.999998
   106  C    6.000001
   107  C    5.999995
   108  C    6.000000
   109  C    6.000001
   110  C    6.000001
   111  N    7.000000
   112  C    5.999994
   113  C    5.999994
   114  C    6.000000
   115  C    5.999995
   116  C    6.000000
   117  C    5.999997
   118  O    7.999995
   119  C    6.000000
   120  C    5.999999
   121  O    7.999999
   122  O    8.000000
   123  C    6.000000
   124  H    1.000001
   125  H    1.000001
   126  H    0.999998
   127  H    1.000000
   128  H    1.000001
   129  H    1.000002
   130  H    1.000000
   131  H    1.000000
   132  H    1.000000
   133  H    1.000001
   134  H    0.999999
   135  H    1.000000
   136  H    1.000003
   137  H    1.000003
   138  H    1.000003
   139  H    1.000002
   140  H    1.000002
   141  H    1.000001
   142  H    1.000000
   143  H    1.000000
   144  H    0.999999
   145  H    1.000001
   146  H    1.000000
   147  H    0.999998
   148  H    1.000000
   149  H    0.999999
   150  H    0.999999
   151  H    1.000001
   152  H    0.999997
   153  H    0.999998
   154  H    0.999997
   155  H    0.999999
   156  H    0.999999
   157  H    1.000000
   158  H    1.000000
 Sum of Mulliken charges = 624.00000

 Dipole moment (field-independent basis, Debye):
    X=             -0.0024    Y=              0.0000    Z=             -0.0003  Tot=              0.0025
 Quadrupole moment (field-independent basis, Debye-Ang):
   XX=             -0.0218   YY=             -0.0008   ZZ=              0.0001
   XY=              0.0034   XZ=              0.0037   YZ=              0.0001

 Normal termination of Gaussian 16 at Thu Oct 14 03:11:03 2021.
