 Gaussian 16, Revision A.03,
 Gaussian 16:  ES64L-G16RevA.03 25-Dec-2016

 --------------------------------------------------------
 #p PBE1PBE/Def2SVP td=(nstates=5) density=(transition=1)
 --------------------------------------------------------

 --------------------------------
 TDDFT excited states in gaussian
 --------------------------------
 Symbolic Z-matrix:
 Charge =  0 Multiplicity = 1

                         Standard orientation:
 ---------------------------------------------------------------------
 Center     Atomic      Atomic             Coordinates (Angstroms)
 Number     Number       Type             X           Y           Z
 ---------------------------------------------------------------------
      1         12           0       24.820124   -0.873394    0.268483
      2          6           0       24.728856    2.472249   -1.058372
      3          6           0       24.647936    0.531353    3.375070
      4          6           0       25.212061   -3.968279    1.501180
      5          6           0       25.467851   -1.997154   -2.872977
      6          7           0       24.645149    1.359776    1.068477
      7          6           0       24.588085    2.481667    0.293534
      8          6           0       24.273704    3.617427    1.191617
      9          6           0       24.380681    3.043512    2.631599
     10          6           0       24.624370    1.523731    2.423375
     11          6           0       25.558133    3.688785    3.429526
     12          6           0       22.965216    4.320753    0.930953
     13          6           0       22.673172    5.631990    1.642506
     14          1           0       22.209275    6.751277    0.808283
     15          7           0       24.803932   -1.613915    2.144035
     16          6           0       24.821475   -0.846408    3.341287
     17          6           0       24.727133   -1.807736    4.455989
     18          6           0       24.979048   -3.060167    3.902045
     19          6           0       25.072941   -2.907456    2.438823
     20          6           0       24.585560   -1.337277    5.888513
     21          6           0       25.065504   -4.440912    4.587606
     22          8           0       25.515784   -5.464972    4.040550
     23          6           0       24.549941   -4.533430    5.965641
     24          7           0       25.345785   -2.755978   -0.549362
     25          6           0       25.440827   -3.897198    0.101557
     26          6           0       25.825094   -5.096767   -0.807529
     27          6           0       25.646585   -4.470399   -2.192267
     28          6           0       25.432393   -3.011134   -1.861528
     29          6           0       27.291627   -5.576062   -0.539333
     30          6           0       24.541047   -5.030322   -3.058668
     31          6           0       24.873948   -5.251924   -4.544832
     32          7           0       24.956448    0.029603   -1.575882
     33          6           0       25.219373   -0.588236   -2.778965
     34          6           0       25.182103    0.386916   -3.910314
     35          6           0       25.012900    1.557032   -3.197940
     36          6           0       24.933859    1.327601   -1.819024
     37          6           0       25.169668    0.112056   -5.379768
     38          6           0       24.887662    2.994470   -3.389144
     39          8           0       24.862939    3.608454   -4.449860
     40          6           0       24.694033    3.668317   -2.011361
     41          6           0       25.656390    4.738045   -1.940109
     42          8           0       26.888925    4.631242   -1.731370
     43          8           0       25.023529    5.943627   -1.963031
     44          6           0       25.779037    7.131122   -1.628717
     45          1           0       24.507147    0.958792    4.369763
     46          1           0       25.502386   -4.941014    1.903228
     47          1           0       25.907176   -2.418696   -3.779272
     48          1           0       25.101210    4.301804    1.009281
     49          1           0       23.473439    3.207778    3.213260
     50          1           0       25.445757    4.119214    4.425116
     51          1           0       25.899043    4.499586    2.785917
     52          1           0       26.464938    3.085792    3.483618
     53          1           0       22.119619    3.711340    1.250278
     54          1           0       22.715982    4.337661   -0.129675
     55          1           0       23.563445    6.001116    2.149475
     56          1           0       21.768313    5.445940    2.220470
     57          1           0       25.256385   -1.831762    6.590756
     58          1           0       23.576256   -1.431359    6.288696
     59          1           0       24.847568   -0.292333    6.056299
     60          1           0       23.546648   -4.107682    5.986690
     61          1           0       25.246945   -3.901254    6.514665
     62          1           0       24.444870   -5.595922    6.182013
     63          1           0       25.090005   -5.876278   -0.604363
     64          1           0       26.524601   -4.475317   -2.837519
     65          1           0       27.942761   -5.369641   -1.388239
     66          1           0       27.335768   -6.656181   -0.399603
     67          1           0       27.624806   -5.007129    0.328791
     68          1           0       23.637208   -4.424423   -3.003432
     69          1           0       24.168359   -5.880435   -2.488175
     70          1           0       24.236512   -6.065742   -4.889115
     71          1           0       25.941488   -5.373843   -4.730700
     72          1           0       24.592798   -4.286809   -4.965741
     73          1           0       24.181007    0.160478   -5.836553
     74          1           0       25.725056   -0.817606   -5.500439
     75          1           0       25.877753    0.779035   -5.873123
     76          1           0       23.737285    4.183422   -2.096922
     77          1           0       26.791124    6.940556   -1.270703
     78          1           0       25.214680    7.766153   -0.946376
     79          1           0       25.913334    7.785671   -2.490295
     80         12           0      -25.535140   -0.462497   -0.236617
     81          6           0      -23.174556    2.153962   -0.008560
     82          6           0      -27.752539    1.390958    1.587117
     83          6           0      -27.378342   -3.178668    0.071776
     84          6           0      -22.988160   -2.460987   -1.687403
     85          7           0      -25.478406    1.604004    0.577802
     86          6           0      -24.453324    2.431719    0.530221
     87          6           0      -24.946776    3.821222    0.891032
     88          6           0      -26.207034    3.532128    1.794331
     89          6           0      -26.526001    2.067523    1.313317
     90          6           0      -25.880252    3.742358    3.321670
     91          6           0      -25.387276    4.636698   -0.351716
     92          6           0      -25.429946    6.216497   -0.161141
     93          1           0      -25.092311    6.880524    1.176480
     94          7           0      -27.373767   -0.782405    0.504863
     95          6           0      -28.222708    0.127609    1.185531
     96          6           0      -29.508763   -0.555251    1.459165
     97          6           0      -29.358419   -1.937627    1.080671
     98          6           0      -27.999353   -2.065905    0.511390
     99          6           0      -30.703482    0.125135    2.028230
    100          6           0      -30.331553   -3.178687    1.141523
    101          8           0      -30.062431   -4.295508    0.678588
    102          6           0      -31.604776   -3.045630    1.925702
    103          7           0      -25.182674   -2.584307   -0.639551
    104          6           0      -26.114691   -3.485298   -0.476109
    105          6           0      -25.751686   -4.872964   -0.925246
    106          6           0      -24.306846   -4.663065   -1.500298
    107          6           0      -24.157325   -3.114774   -1.360326
    108          6           0      -25.960525   -5.904519    0.187313
    109          6           0      -24.125879   -5.105288   -2.946961
    110          6           0      -22.775528   -5.825505   -3.300582
    111          7           0      -23.464826   -0.253860   -0.852191
    112          6           0      -22.581528   -1.160095   -1.470962
    113          6           0      -21.398531   -0.462471   -1.841627
    114          6           0      -21.479570    0.788221   -1.150249
    115          6           0      -22.742113    0.882827   -0.621941
    116          6           0      -20.348975   -0.960737   -2.793260
    117          6           0      -20.894495    2.122231   -0.873581
    118          8           0      -19.810831    2.576764   -1.176121
    119          6           0      -21.903890    2.908103    0.091464
    120          6           0      -21.819884    4.380883   -0.142971
    121          8           0      -22.065238    4.957595   -1.161240
    122          8           0      -21.304630    5.049632    0.983146
    123          6           0      -20.526586    6.279484    0.723226
    124          1           0      -28.428760    1.837031    2.319956
    125          1           0      -27.959461   -4.099280   -0.005795
    126          1           0      -22.253581   -3.082825   -2.203459
    127          1           0      -24.053300    4.297190    1.294946
    128          1           0      -27.042025    4.185378    1.538818
    129          1           0      -24.837281    4.030810    3.448113
    130          1           0      -25.931443    2.733409    3.730999
    131          1           0      -26.478336    4.508243    3.815606
    132          1           0      -26.398806    4.283718   -0.556618
    133          1           0      -24.726643    4.352204   -1.170619
    134          1           0      -26.442003    6.497111   -0.456800
    135          1           0      -24.770522    6.604737   -0.937750
    136          1           0      -30.710823    1.211940    2.103105
    137          1           0      -30.899986   -0.175396    3.057008
    138          1           0      -31.506402   -0.152596    1.344924
    139          1           0      -32.440129   -2.644088    1.352271
    140          1           0      -31.250509   -2.388690    2.721024
    141          1           0      -31.813224   -4.037266    2.326396
    142          1           0      -26.465957   -5.037702   -1.731851
    143          1           0      -23.525615   -5.159581   -0.926068
    144          1           0      -25.902089   -5.487595    1.193200
    145          1           0      -25.128985   -6.601048    0.087657
    146          1           0      -26.912887   -6.428359    0.102544
    147          1           0      -24.200698   -4.258341   -3.628795
    148          1           0      -25.042773   -5.651065   -3.169017
    149          1           0      -22.073491   -5.788843   -2.467749
    150          1           0      -22.367638   -5.241905   -4.125629
    151          1           0      -22.804497   -6.862320   -3.637269
    152          1           0      -20.122097   -1.971052   -2.452492
    153          1           0      -19.424930   -0.382311   -2.793946
    154          1           0      -20.768619   -1.047916   -3.795963
    155          1           0      -21.524549    2.845480    1.110903
    156          1           0      -21.070424    7.115825    1.162650
    157          1           0      -20.349509    6.441033   -0.340663
    158          1           0      -19.577744    6.129442    1.238224
 ---------------------------------------------------------------------

 SCF Done:  E(RPBE1PBE) =  -4067.37552903     A.U. after   16 cycles

 Excitation energies and oscillator strengths:

 Excited State   1:      Singlet-A      1.8895 eV  656.19 nm  f=0.3598  <S**2>=0.000
     310 -> 315       -0.18729
     311 -> 313        0.68567
 This state for optimization and/or second-order correction.
 Total Energy, E(TD-HF/TD-DFT) =  -4067.30609251
 Copying the excited state density for this state as the 1-particle RhoCI density.

 Excited State   2:      Singlet-A      1.9834 eV  625.12 nm  f=0.0000  <S**2>=0.000
     312 -> 313        0.70711

 Excited State   3:      Singlet-A      2.1351 eV  580.71 nm  f=0.0941  <S**2>=0.000
     310 -> 313        0.65953
     311 -> 315        0.23119

 Excited State   4:      Singlet-A      2.1639 eV  572.98 nm  f=0.0000  <S**2>=0.000
     311 -> 314        0.70711

 Excited State   5:      Singlet-A      2.6255 eV  472.23 nm  f=0.0000  <S**2>=0.000
     310 -> 314        0.70711

 The electronic state is 1-A.
 Alpha  occ. eigenvalues --  -46.91946 -46.91892 -19.25810 -19.24078 -19.20205
 Alpha  occ. eigenvalues --  -19.19893 -19.19207 -19.19079 -19.18925 -19.18848
 Alpha  occ. eigenvalues --  -14.41490 -14.41400 -14.41147 -14.40609 -14.39415
 Alpha  occ. eigenvalues --  -14.39320 -14.39253 -14.37924 -10.36112 -10.35706
 Alpha  occ. eigenvalues --  -10.33635 -10.32324 -10.32294 -10.31636 -10.29664
 Alpha  occ. eigenvalues --  -10.28814 -10.28447 -10.28429 -10.28396 -10.28252
 Alpha  occ. eigenvalues --  -10.28217 -10.28208 -10.28188 -10.28141 -10.28057
 Alpha  occ. eigenvalues --  -10.28033 -10.28012 -10.27862 -10.27810 -10.27788
 Alpha  occ. eigenvalues --  -10.26629 -10.26514 -10.26285 -10.26117 -10.26069
 Alpha  occ. eigenvalues --  -10.25959 -10.25949 -10.25900 -10.25868 -10.25819
 Alpha  occ. eigenvalues --  -10.25792 -10.25766 -10.25577 -10.25550 -10.25544
 Alpha  occ. eigenvalues --  -10.25457 -10.25440 -10.25375 -10.25192 -10.25113
 Alpha  occ. eigenvalues --  -10.25005 -10.24956 -10.24938 -10.24915 -10.24686
 Alpha  occ. eigenvalues --  -10.24598 -10.24490 -10.23951 -10.23920 -10.23863
 Alpha  occ. eigenvalues --  -10.23841 -10.23680 -10.23669 -10.23585 -10.23489
 Alpha  occ. eigenvalues --  -10.23480 -10.23474 -10.23407 -10.23403 -10.23341
 Alpha  occ. eigenvalues --  -10.23317 -10.23268 -10.23167 -10.22887 -10.22595
 Alpha  occ. eigenvalues --  -10.22342  -3.14076  -3.13990  -1.86926  -1.86843
 Alpha  occ. eigenvalues --   -1.86441  -1.86364  -1.86312  -1.86210  -1.10881
 Alpha  occ. eigenvalues --   -1.10080  -1.04890  -1.04614  -1.04221  -1.03713
 Alpha  occ. eigenvalues --   -1.01975  -1.00733  -1.00426  -0.99717  -0.99307
 Alpha  occ. eigenvalues --   -0.99140  -0.97672  -0.96803  -0.96692  -0.95305
 Alpha  occ. eigenvalues --   -0.87546  -0.86378  -0.84420  -0.83585  -0.83575
 Alpha  occ. eigenvalues --   -0.83113  -0.82772  -0.82009  -0.81858  -0.81626
 Alpha  occ. eigenvalues --   -0.81502  -0.81387  -0.80969  -0.80082  -0.78975
 Alpha  occ. eigenvalues --   -0.78333  -0.78202  -0.78135  -0.77208  -0.76807
 Alpha  occ. eigenvalues --   -0.76742  -0.75945  -0.75585  -0.75268  -0.75079
 Alpha  occ. eigenvalues --   -0.74240  -0.72932  -0.72740  -0.72030  -0.71755
 Alpha  occ. eigenvalues --   -0.71530  -0.70867  -0.70820  -0.69789  -0.69598
 Alpha  occ. eigenvalues --   -0.69436  -0.67461  -0.67034  -0.66405  -0.66171
 Alpha  occ. eigenvalues --   -0.64229  -0.63923  -0.63646  -0.63012  -0.62491
 Alpha  occ. eigenvalues --   -0.61784  -0.60987  -0.60931  -0.60848  -0.60440
 Alpha  occ. eigenvalues --   -0.59845  -0.59650  -0.59611  -0.59114  -0.59076
 Alpha  occ. eigenvalues --   -0.58080  -0.57136  -0.55755  -0.54920  -0.54535
 Alpha  occ. eigenvalues --   -0.54496  -0.54058  -0.53778  -0.53399  -0.53126
 Alpha  occ. eigenvalues --   -0.52849  -0.52692  -0.52228  -0.52226  -0.51522
 Alpha  occ. eigenvalues --   -0.51056  -0.50944  -0.50248  -0.50088  -0.50067
 Alpha  occ. eigenvalues --   -0.49763  -0.48962  -0.48794  -0.48567  -0.48437
 Alpha  occ. eigenvalues --   -0.47937  -0.47796  -0.47760  -0.47742  -0.47684
 Alpha  occ. eigenvalues --   -0.47462  -0.47402  -0.46800  -0.46643  -0.46643
 Alpha  occ. eigenvalues --   -0.46486  -0.46336  -0.46226  -0.45957  -0.45788
 Alpha  occ. eigenvalues --   -0.45741  -0.45417  -0.45373  -0.45066  -0.45031
 Alpha  occ. eigenvalues --   -0.44867  -0.44865  -0.44586  -0.44537  -0.44235
 Alpha  occ. eigenvalues --   -0.44045  -0.43739  -0.43631  -0.43276  -0.43024
 Alpha  occ. eigenvalues --   -0.42995  -0.42988  -0.42971  -0.42695  -0.42567
 Alpha  occ. eigenvalues --   -0.42493  -0.42389  -0.42185  -0.42013  -0.41974
 Alpha  occ. eigenvalues --   -0.41896  -0.41783  -0.41701  -0.41276  -0.41094
 Alpha  occ. eigenvalues --   -0.41065  -0.40957  -0.40933  -0.40842  -0.40406
 Alpha  occ. eigenvalues --   -0.40384  -0.40325  -0.39948  -0.39879  -0.39872
 Alpha  occ. eigenvalues --   -0.39776  -0.39324  -0.39152  -0.38761  -0.38677
 Alpha  occ. eigenvalues --   -0.38556  -0.38551  -0.38506  -0.38118  -0.38052
 Alpha  occ. eigenvalues --   -0.38024  -0.37984  -0.37542  -0.37417  -0.37342
 Alpha  occ. eigenvalues --   -0.37202  -0.37001  -0.36915  -0.36880  -0.36595
 Alpha  occ. eigenvalues --   -0.36585  -0.36464  -0.36459  -0.36368  -0.36307
 Alpha  occ. eigenvalues --   -0.36072  -0.36054  -0.35977  -0.35873  -0.35735
 Alpha  occ. eigenvalues --   -0.35136  -0.35036  -0.34925  -0.34893  -0.33984
 Alpha  occ. eigenvalues --   -0.33734  -0.33677  -0.32909  -0.32771  -0.32548
 Alpha  occ. eigenvalues --   -0.32119  -0.31479  -0.31062  -0.30982  -0.30840
 Alpha  occ. eigenvalues --   -0.30585  -0.30427  -0.29410  -0.29066  -0.29046
 Alpha  occ. eigenvalues --   -0.28573  -0.28458  -0.28179  -0.27163  -0.26677
 Alpha  occ. eigenvalues --   -0.26382  -0.26191  -0.25871  -0.25787  -0.25735
 Alpha  occ. eigenvalues --   -0.25396  -0.25368  -0.24274  -0.21003  -0.20600
 Alpha  occ. eigenvalues --   -0.18905  -0.18600
 Alpha virt. eigenvalues --   -0.11051  -0.10689  -0.05518  -0.05233  -0.04204
 Alpha virt. eigenvalues --   -0.03500  -0.01911  -0.01774  -0.00123  -0.00032
 Alpha virt. eigenvalues --    0.00240   0.00386   0.01313   0.01453   0.02265

 Mulliken charges:
               1
     1  Mg  12.000017
     2  C    6.000049
     3  C    6.000087
     4  C    6.000014
     5  C    5.999929
     6  N    7.000031
     7  C    6.000011
     8  C    5.999981
     9  C    6.000044
    10  C    5.999893
    11  C    6.000021
    12  C    5.999979
    13  C    5.999987
    14  H    1.000024
    15  N    7.000013
    16  C    5.999827
    17  C    5.999982
    18  C    5.999917
    19  C    5.999966
    20  C    6.000029
    21  C    5.999958
    22  O    7.999913
    23  C    6.000013
    24  N    6.999970
    25  C    5.999982
    26  C    6.000005
    27  C    5.999983
    28  C    6.000144
    29  C    6.000011
    30  C    5.999964
    31  C    6.000001
    32  N    7.000019
    33  C    6.000128
    34  C    6.000026
    35  C    6.000034
    36  C    6.000020
    37  C    6.000006
    38  C    6.000059
    39  O    8.000084
    40  C    5.999973
    41  C    5.999999
    42  O    7.999987
    43  O    8.000016
    44  C    6.000001
    45  H    0.999968
    46  H    0.999972
    47  H    1.000018
    48  H    0.999977
    49  H    1.000015
    50  H    0.999987
    51  H    0.999956
    52  H    0.999974
    53  H    1.000053
    54  H    1.000000
    55  H    0.999978
    56  H    1.000044
    57  H    0.999927
    58  H    0.999974
    59  H    0.999945
    60  H    1.000012
    61  H    0.999962
    62  H    0.999951
    63  H    1.000015
    64  H    0.999978
    65  H    0.999950
    66  H    0.999977
    67  H    0.999999
    68  H    1.000041
    69  H    1.000045
    70  H    1.000026
    71  H    0.999975
    72  H    0.999997
    73  H    1.000086
    74  H    1.000019
    75  H    1.000021
    76  H    1.000054
    77  H    0.999982
    78  H    1.000028
    79  H    1.000005
    80  Mg  11.996326
    81  C    6.014903
    82  C    5.983761
    83  C    5.993602
    84  C    6.013327
    85  N    7.003203
    86  C    5.970488
    87  C    6.004179
    88  C    5.989600
    89  C    6.032964
    90  C    6.000568
    91  C    6.003384
    92  C    6.000018
    93  H    0.996210
    94  N    6.995169
    95  C    6.036324
    96  C    6.020840
    97  C    6.017743
    98  C    6.018593
    99  C    5.995394
   100  C    6.014429
   101  O    8.027723
   102  C    5.997291
   103  N    7.004039
   104  C    6.026117
   105  C    5.994546
   106  C    6.008802
   107  C    5.967154
   108  C    5.994953
   109  C    6.005503
   110  C    6.000039
   111  N    6.999667
   112  C    5.967608
   113  C    5.970019
   114  C    5.995517
   115  C    5.976849
   116  C    5.999617
   117  C    5.985333
   118  O    7.972777
   119  C    5.997183
   120  C    5.994555
   121  O    7.994868
   122  O    7.997708
   123  C    6.001300
   124  H    1.004888
   125  H    1.007164
   126  H    0.992638
   127  H    1.005493
   128  H    1.001553
   129  H    1.011251
   130  H    0.997879
   131  H    1.002090
   132  H    0.987713
   133  H    1.006760
   134  H    0.995291
   135  H    1.002520
   136  H    1.017713
   137  H    1.019008
   138  H    1.014805
   139  H    1.010292
   140  H    1.002117
   141  H    1.013229
   142  H    0.996911
   143  H    0.996788
   144  H    0.998744
   145  H    1.011063
   146  H    0.996950
   147  H    1.000598
   148  H    0.989175
   149  H    1.001708
   150  H    1.002744
   151  H    0.994682
   152  H    0.983649
   153  H    0.986532
   154  H    0.981133
   155  H    0.995563
   156  H    0.994063
   157  H    0.999303
   158  H    0.997800
 Sum of Mulliken charges = 624.00000

 Dipole moment (field-independent basis, Debye):
    X=             -9.2287    Y=             -1.8803    Z=              3.4256  Tot=             10.0219
 Quadrupole moment (field-independent basis, Debye-Ang):
   XX=            470.3648   YY=             -0.1815   ZZ=             -1.0713
   XY=             53.8792   XZ=            -87.9389   YZ=             -2.8980

 Normal termination of Gaussian 16 at Fri Oct 15 04:15:37 2021.
