 Gaussian 16, Revision A.03,
 Gaussian 16:  ES64L-G16RevA.03 25-Dec-2016

 --------------------------------------------------------
 #p PBE1PBE/Def2SVP td=(nstates=5) density=(transition=1)
 --------------------------------------------------------

 --------------------------------
 TDDFT excited states in gaussian
 --------------------------------
 Symbolic Z-matrix:
 Charge =  0 Multiplicity = 1

                         Standard orientation:
 ---------------------------------------------------------------------
 Center     Atomic      Atomic             Coordinates (Angstroms)
 Number     Number       Type             X           Y           Z
 ---------------------------------------------------------------------
      1         12           0      -19.651860    0.808616    0.384481
      2          6           0      -18.907790   -2.094485   -1.578473
      3          6           0      -20.632543   -1.436839    2.922149
      4          6           0      -21.040190    3.273306    2.028259
      5          6           0      -18.989689    2.754152   -2.324557
      6          7           0      -19.694888   -1.492361    0.623385
      7          6           0      -19.235701   -2.379179   -0.292038
      8          6           0      -19.221133   -3.762465    0.337362
      9          6           0      -19.736794   -3.630914    1.798166
     10          6           0      -20.012088   -2.114980    1.816566
     11          6           0      -21.024709   -4.577393    2.126030
     12          6           0      -17.776419   -4.423244    0.336487
     13          6           0      -17.685233   -5.868180   -0.155234
     14          1           0      -18.867141   -6.889366    0.091987
     15          7           0      -20.749829    0.895520    2.216593
     16          6           0      -20.992353   -0.085202    3.060234
     17          6           0      -21.736223    0.467063    4.157098
     18          6           0      -21.775299    1.880549    4.051501
     19          6           0      -21.220006    2.062092    2.735892
     20          6           0      -22.110682   -0.347769    5.394025
     21          6           0      -22.161833    3.007093    4.996950
     22          8           0      -22.180429    4.177073    4.661061
     23          6           0      -22.467576    2.605491    6.413699
     24          7           0      -20.278454    2.656066   -0.240973
     25          6           0      -20.658452    3.590360    0.724322
     26          6           0      -20.557628    5.057323    0.224967
     27          6           0      -19.744067    4.814541   -1.101882
     28          6           0      -19.650880    3.295724   -1.247615
     29          6           0      -21.953317    5.674508    0.054391
     30          6           0      -18.246765    5.380608   -1.047740
     31          6           0      -17.928501    6.624327   -1.807922
     32          7           0      -18.973575    0.464128   -1.484901
     33          6           0      -18.781088    1.374403   -2.501607
     34          6           0      -18.426637    0.741303   -3.769204
     35          6           0      -18.456558   -0.664335   -3.455410
     36          6           0      -18.907622   -0.773635   -2.118819
     37          6           0      -17.943775    1.478593   -4.965526
     38          6           0      -18.163521   -2.000850   -3.949772
     39          8           0      -17.724003   -2.306185   -5.073347
     40          6           0      -18.481707   -3.033380   -2.725011
     41          6           0      -19.548729   -3.885717   -3.225142
     42          8           0      -20.608137   -3.466415   -3.637195
     43          8           0      -19.214529   -5.179926   -3.159553
     44          6           0      -20.113581   -6.263991   -3.665776
     45          1           0      -20.880786   -2.081389    3.767851
     46          1           0      -21.080763    4.179404    2.637441
     47          1           0      -18.708084    3.424458   -3.138992
     48          1           0      -19.927394   -4.374712   -0.223419
     49          1           0      -19.005470   -3.989262    2.522832
     50          1           0      -21.073348   -5.419364    1.435442
     51          1           0      -21.885513   -3.914060    2.037833
     52          1           0      -20.964488   -4.935526    3.153623
     53          1           0      -17.240454   -4.364182    1.282786
     54          1           0      -17.133122   -3.873727   -0.350648
     55          1           0      -16.788034   -6.363189    0.216983
     56          1           0      -17.505686   -5.744460   -1.223208
     57          1           0      -21.419313   -0.234866    6.229274
     58          1           0      -22.307338   -1.390789    5.144132
     59          1           0      -23.087361    0.018620    5.709377
     60          1           0      -21.806522    1.847522    6.835007
     61          1           0      -23.476245    2.227381    6.574233
     62          1           0      -22.212763    3.432645    7.076311
     63          1           0      -20.001569    5.616720    0.976785
     64          1           0      -20.283888    5.297443   -1.916543
     65          1           0      -22.764908    5.079255    0.472604
     66          1           0      -22.211717    5.799885   -0.996503
     67          1           0      -21.966847    6.662228    0.516344
     68          1           0      -17.482358    4.686805   -1.397581
     69          1           0      -17.897910    5.545076   -0.028920
     70          1           0      -17.638499    7.420211   -1.123132
     71          1           0      -18.870786    6.852664   -2.306328
     72          1           0      -17.105162    6.448563   -2.500186
     73          1           0      -17.193961    0.905107   -5.509438
     74          1           0      -17.633583    2.461711   -4.611943
     75          1           0      -18.808534    1.613377   -5.616675
     76          1           0      -17.617471   -3.649861   -2.481417
     77          1           0      -20.437753   -6.020985   -4.677856
     78          1           0      -21.005768   -6.389951   -3.051901
     79          1           0      -19.682684   -7.261922   -3.589626
     80         12           0       20.343325    0.531379    0.014713
     81          6           0       17.801887   -1.884132    0.048874
     82          6           0       22.473709   -1.835977    1.322879
     83          6           0       22.710459    2.830985    0.001798
     84          6           0       17.986842    2.852402   -1.169572
     85          7           0       20.121631   -1.615480    0.513992
     86          6           0       18.993017   -2.434745    0.481604
     87          6           0       19.329882   -3.968467    0.648576
     88          6           0       20.743205   -3.837683    1.182542
     89          6           0       21.167698   -2.322763    0.993950
     90          6           0       20.785943   -4.143031    2.749767
     91          6           0       19.342641   -4.525108   -0.844076
     92          6           0       18.675443   -5.948928   -1.092439
     93          1           0       18.877643   -6.822242    0.119380
     94          7           0       22.221570    0.529049    0.706187
     95          6           0       22.920246   -0.487746    1.203265
     96          6           0       24.278216   -0.127443    1.514354
     97          6           0       24.443372    1.165882    0.980298
     98          6           0       23.055576    1.604384    0.572758
     99          6           0       25.285743   -0.996365    2.173572
    100          6           0       25.700099    1.975566    0.735931
    101          8           0       25.718474    2.989821    0.029282
    102          6           0       26.996819    1.610678    1.463919
    103          7           0       20.310760    2.595258   -0.476706
    104          6           0       21.506909    3.272470   -0.444076
    105          6           0       21.295971    4.654233   -1.059388
    106          6           0       19.771634    4.640838   -1.564885
    107          6           0       19.311107    3.279070   -1.115617
    108          6           0       21.714389    5.764308   -0.031631
    109          6           0       19.532121    4.932555   -3.037958
    110          6           0       18.484851    6.061424   -3.293021
    111          7           0       18.312940    0.504020   -0.439890
    112          6           0       17.461524    1.555158   -0.904470
    113          6           0       16.129280    1.086127   -1.044545
    114          6           0       16.237890   -0.265964   -0.678100
    115          6           0       17.564373   -0.531381   -0.279305
    116          6           0       14.892785    1.783373   -1.512909
    117          6           0       15.522348   -1.493178   -0.533491
    118          8           0       14.360408   -1.789184   -0.685207
    119          6           0       16.550296   -2.599201   -0.162261
    120          6           0       16.020370   -3.384522    0.982032
    121          8           0       15.901831   -3.022252    2.149140
    122          8           0       15.740404   -4.605468    0.515872
    123          6           0       15.282618   -5.585888    1.477936
    124          1           0       23.281800   -2.514016    1.604741
    125          1           0       23.534566    3.548112    0.033434
    126          1           0       17.236489    3.522448   -1.594537
    127          1           0       18.492014   -4.378701    1.211455
    128          1           0       21.420078   -4.476732    0.616468
    129          1           0       19.799106   -4.362295    3.157892
    130          1           0       21.193620   -3.268768    3.256908
    131          1           0       21.467208   -4.989804    2.833881
    132          1           0       20.345902   -4.631186   -1.255705
    133          1           0       18.857417   -3.762655   -1.454001
    134          1           0       19.235532   -6.508749   -1.841530
    135          1           0       17.691686   -5.855159   -1.553088
    136          1           0       26.039540   -1.223657    1.418532
    137          1           0       24.847653   -1.939324    2.497715
    138          1           0       25.768044   -0.526709    3.030325
    139          1           0       27.532241    2.554349    1.362037
    140          1           0       27.522917    0.758440    1.032170
    141          1           0       26.940701    1.464420    2.542437
    142          1           0       21.912100    4.882890   -1.928939
    143          1           0       19.213745    5.377067   -0.986097
    144          1           0       22.315132    6.476127   -0.597889
    145          1           0       22.236167    5.382105    0.845791
    146          1           0       20.873539    6.415081    0.211183
    147          1           0       19.235555    4.063632   -3.624590
    148          1           0       20.464672    5.392722   -3.367649
    149          1           0       18.188739    6.531725   -2.355204
    150          1           0       17.531167    5.656707   -3.631224
    151          1           0       18.879926    6.824554   -3.963896
    152          1           0       15.075357    1.837435   -2.586506
    153          1           0       14.841728    2.724591   -0.965990
    154          1           0       13.995755    1.181914   -1.372522
    155          1           0       16.510867   -3.269666   -1.021798
    156          1           0       14.425520   -5.195869    2.027620
    157          1           0       15.978288   -5.856414    2.272982
    158          1           0       14.988975   -6.461742    0.899076
 ---------------------------------------------------------------------

 SCF Done:  E(RPBE1PBE) =  -4067.39629620     A.U. after   17 cycles

 Excitation energies and oscillator strengths:

 Excited State   1:      Singlet-A      1.8475 eV  671.10 nm  f=0.3924  <S**2>=0.000
     310 -> 316        0.16120
     312 -> 313        0.69482
     312 <- 313       -0.11625
 This state for optimization and/or second-order correction.
 Total Energy, E(TD-HF/TD-DFT) =  -4067.32840248
 Copying the excited state density for this state as the 1-particle RhoCI density.

 Excited State   2:      Singlet-A      1.8615 eV  666.04 nm  f=0.3631  <S**2>=0.000
     309 -> 315        0.15504
     311 -> 314        0.69348
     311 <- 314       -0.10795

 Excited State   3:      Singlet-A      1.9529 eV  634.87 nm  f=0.0000  <S**2>=0.000
     312 -> 314        0.70710

 Excited State   4:      Singlet-A      1.9715 eV  628.87 nm  f=0.0000  <S**2>=0.000
     311 -> 313        0.70711

 Excited State   5:      Singlet-A      2.2073 eV  561.70 nm  f=0.1235  <S**2>=0.000
     310 -> 313        0.66030
     312 -> 316       -0.23216

 The electronic state is 1-A.
 Alpha  occ. eigenvalues --  -46.92000 -46.91168 -19.25980 -19.25806 -19.19908
 Alpha  occ. eigenvalues --  -19.19691 -19.19236 -19.19134 -19.18648 -19.17897
 Alpha  occ. eigenvalues --  -14.41777 -14.41339 -14.41239 -14.41137 -14.39709
 Alpha  occ. eigenvalues --  -14.39057 -14.38684 -14.38263 -10.35420 -10.35393
 Alpha  occ. eigenvalues --  -10.33139 -10.32857 -10.32619 -10.30521 -10.29683
 Alpha  occ. eigenvalues --  -10.29442 -10.29048 -10.28645 -10.28496 -10.28442
 Alpha  occ. eigenvalues --  -10.28396 -10.28223 -10.28219 -10.28086 -10.27950
 Alpha  occ. eigenvalues --  -10.27935 -10.27289 -10.27287 -10.27026 -10.26889
 Alpha  occ. eigenvalues --  -10.26650 -10.26562 -10.26363 -10.26293 -10.26196
 Alpha  occ. eigenvalues --  -10.26143 -10.26086 -10.25999 -10.25867 -10.25784
 Alpha  occ. eigenvalues --  -10.25655 -10.25608 -10.25480 -10.25403 -10.25395
 Alpha  occ. eigenvalues --  -10.25393 -10.25368 -10.25134 -10.25066 -10.25030
 Alpha  occ. eigenvalues --  -10.24989 -10.24831 -10.24668 -10.24579 -10.24432
 Alpha  occ. eigenvalues --  -10.24414 -10.24253 -10.24051 -10.23939 -10.23917
 Alpha  occ. eigenvalues --  -10.23905 -10.23877 -10.23729 -10.23487 -10.23466
 Alpha  occ. eigenvalues --  -10.23449 -10.23424 -10.23414 -10.23299 -10.23295
 Alpha  occ. eigenvalues --  -10.23256 -10.23188 -10.22943 -10.22938 -10.22415
 Alpha  occ. eigenvalues --  -10.21641  -3.14205  -3.13454  -1.87010  -1.86585
 Alpha  occ. eigenvalues --   -1.86438  -1.86307  -1.85809  -1.85709  -1.11983
 Alpha  occ. eigenvalues --   -1.11244  -1.05533  -1.04848  -1.04359  -1.03142
 Alpha  occ. eigenvalues --   -1.02101  -1.01990  -0.99456  -0.99315  -0.98750
 Alpha  occ. eigenvalues --   -0.98123  -0.97710  -0.97521  -0.97013  -0.96539
 Alpha  occ. eigenvalues --   -0.87171  -0.86464  -0.83842  -0.82904  -0.82697
 Alpha  occ. eigenvalues --   -0.82686  -0.82558  -0.82314  -0.82240  -0.81550
 Alpha  occ. eigenvalues --   -0.81413  -0.81246  -0.80948  -0.80725  -0.78486
 Alpha  occ. eigenvalues --   -0.78385  -0.78291  -0.77852  -0.76888  -0.76561
 Alpha  occ. eigenvalues --   -0.75989  -0.75963  -0.75571  -0.75550  -0.75001
 Alpha  occ. eigenvalues --   -0.74684  -0.73045  -0.72543  -0.71946  -0.71830
 Alpha  occ. eigenvalues --   -0.71143  -0.71129  -0.70531  -0.69950  -0.69315
 Alpha  occ. eigenvalues --   -0.69193  -0.67611  -0.66919  -0.65853  -0.65824
 Alpha  occ. eigenvalues --   -0.63477  -0.63252  -0.63140  -0.62204  -0.62071
 Alpha  occ. eigenvalues --   -0.62026  -0.61795  -0.61290  -0.59925  -0.59814
 Alpha  occ. eigenvalues --   -0.59726  -0.59569  -0.59555  -0.59187  -0.59101
 Alpha  occ. eigenvalues --   -0.58988  -0.57110  -0.56975  -0.55213  -0.55012
 Alpha  occ. eigenvalues --   -0.54197  -0.53718  -0.53706  -0.53400  -0.53227
 Alpha  occ. eigenvalues --   -0.53068  -0.52562  -0.52362  -0.51962  -0.51898
 Alpha  occ. eigenvalues --   -0.51177  -0.50649  -0.50224  -0.50152  -0.49874
 Alpha  occ. eigenvalues --   -0.49723  -0.49041  -0.48829  -0.48457  -0.48089
 Alpha  occ. eigenvalues --   -0.48049  -0.47939  -0.47535  -0.47450  -0.47376
 Alpha  occ. eigenvalues --   -0.47221  -0.47089  -0.46993  -0.46849  -0.46743
 Alpha  occ. eigenvalues --   -0.46659  -0.46417  -0.45975  -0.45870  -0.45759
 Alpha  occ. eigenvalues --   -0.45520  -0.45272  -0.45130  -0.45110  -0.44979
 Alpha  occ. eigenvalues --   -0.44888  -0.44715  -0.44574  -0.44493  -0.44257
 Alpha  occ. eigenvalues --   -0.43831  -0.43751  -0.43670  -0.43341  -0.43306
 Alpha  occ. eigenvalues --   -0.43173  -0.43062  -0.43043  -0.42872  -0.42767
 Alpha  occ. eigenvalues --   -0.42593  -0.42393  -0.42360  -0.42197  -0.41993
 Alpha  occ. eigenvalues --   -0.41900  -0.41538  -0.41412  -0.41346  -0.41251
 Alpha  occ. eigenvalues --   -0.41060  -0.40886  -0.40814  -0.40807  -0.40639
 Alpha  occ. eigenvalues --   -0.40069  -0.40002  -0.39905  -0.39852  -0.39533
 Alpha  occ. eigenvalues --   -0.39309  -0.39298  -0.39238  -0.39075  -0.39044
 Alpha  occ. eigenvalues --   -0.38630  -0.38557  -0.38399  -0.38205  -0.38125
 Alpha  occ. eigenvalues --   -0.37909  -0.37734  -0.37620  -0.37567  -0.37440
 Alpha  occ. eigenvalues --   -0.37342  -0.37267  -0.37213  -0.36794  -0.36536
 Alpha  occ. eigenvalues --   -0.36504  -0.36381  -0.36265  -0.36163  -0.35998
 Alpha  occ. eigenvalues --   -0.35882  -0.35668  -0.35415  -0.35382  -0.35161
 Alpha  occ. eigenvalues --   -0.35014  -0.34666  -0.34630  -0.34160  -0.33725
 Alpha  occ. eigenvalues --   -0.33315  -0.33298  -0.32887  -0.32659  -0.32422
 Alpha  occ. eigenvalues --   -0.31969  -0.31960  -0.31504  -0.31451  -0.31351
 Alpha  occ. eigenvalues --   -0.31235  -0.31166  -0.29622  -0.29481  -0.29032
 Alpha  occ. eigenvalues --   -0.28708  -0.28297  -0.28174  -0.27207  -0.26856
 Alpha  occ. eigenvalues --   -0.26472  -0.26433  -0.26394  -0.25807  -0.25537
 Alpha  occ. eigenvalues --   -0.25309  -0.25022  -0.24623  -0.21023  -0.20736
 Alpha  occ. eigenvalues --   -0.18689  -0.18574
 Alpha virt. eigenvalues --   -0.11112  -0.11070  -0.05329  -0.04682  -0.04020
 Alpha virt. eigenvalues --   -0.03546  -0.02300  -0.01628  -0.00966   0.00542
 Alpha virt. eigenvalues --    0.00729   0.01136   0.01433   0.01450   0.01749

 Mulliken charges:
               1
     1  Mg  12.002066
     2  C    5.981087
     3  C    6.007447
     4  C    6.024739
     5  C    5.994387
     6  N    6.991795
     7  C    6.024084
     8  C    5.990637
     9  C    6.013059
    10  C    5.969281
    11  C    6.000649
    12  C    5.998969
    13  C    5.999265
    14  H    1.006695
    15  N    7.004066
    16  C    5.967201
    17  C    5.974168
    18  C    5.988935
    19  C    5.967722
    20  C    6.002915
    21  C    5.986142
    22  O    7.973651
    23  C    6.007283
    24  N    7.008654
    25  C    5.958436
    26  C    6.009973
    27  C    5.991953
    28  C    6.026046
    29  C    6.003069
    30  C    5.992087
    31  C    5.999762
    32  N    7.002815
    33  C    6.028935
    34  C    6.037771
    35  C    5.998679
    36  C    6.031494
    37  C    5.997451
    38  C    6.015352
    39  O    8.026834
    40  C    6.006319
    41  C    6.004932
    42  O    8.002500
    43  O    8.002002
    44  C    5.998044
    45  H    0.989502
    46  H    0.994623
    47  H    1.011304
    48  H    0.999587
    49  H    0.994724
    50  H    0.987422
    51  H    1.001554
    52  H    0.999752
    53  H    1.007930
    54  H    0.992416
    55  H    1.002038
    56  H    0.994015
    57  H    0.979518
    58  H    0.983563
    59  H    0.984025
    60  H    0.995215
    61  H    0.990742
    62  H    0.986243
    63  H    1.000394
    64  H    1.002795
    65  H    1.004634
    66  H    0.988801
    67  H    0.997540
    68  H    0.994951
    69  H    1.012750
    70  H    1.006735
    71  H    1.002501
    72  H    0.998141
    73  H    1.017081
    74  H    1.017337
    75  H    1.022485
    76  H    1.008705
    77  H    1.000579
    78  H    1.006393
    79  H    1.004659
    80  Mg  11.999909
    81  C    6.000789
    82  C    6.000075
    83  C    5.999247
    84  C    5.999960
    85  N    7.000617
    86  C    5.998913
    87  C    6.000110
    88  C    5.999923
    89  C    6.000701
    90  C    5.999871
    91  C    6.000044
    92  C    6.000095
    93  H    0.999836
    94  N    6.999779
    95  C    6.001066
    96  C    6.000844
    97  C    6.000407
    98  C    6.001285
    99  C    5.999859
   100  C    6.000465
   101  O    8.001026
   102  C    5.999782
   103  N    6.999722
   104  C    6.001024
   105  C    5.999614
   106  C    6.000406
   107  C    5.999023
   108  C    5.999876
   109  C    6.000243
   110  C    6.000017
   111  N    6.999976
   112  C    5.998812
   113  C    5.999175
   114  C    5.999892
   115  C    5.999002
   116  C    5.999889
   117  C    5.999362
   118  O    7.998817
   119  C    5.999866
   120  C    5.999883
   121  O    7.999842
   122  O    7.999937
   123  C    6.000060
   124  H    1.000474
   125  H    1.000090
   126  H    0.999469
   127  H    1.000131
   128  H    1.000088
   129  H    1.000502
   130  H    0.999872
   131  H    1.000151
   132  H    0.999632
   133  H    1.000205
   134  H    0.999878
   135  H    1.000104
   136  H    1.000656
   137  H    1.000555
   138  H    1.000669
   139  H    1.000485
   140  H    1.000301
   141  H    1.000304
   142  H    1.000027
   143  H    0.999904
   144  H    1.000082
   145  H    0.999808
   146  H    1.000320
   147  H    0.999987
   148  H    0.999586
   149  H    0.999947
   150  H    1.000055
   151  H    0.999776
   152  H    0.999415
   153  H    0.999523
   154  H    0.999519
   155  H    0.999806
   156  H    0.999975
   157  H    0.999816
   158  H    0.999842
 Sum of Mulliken charges = 624.00000

 Dipole moment (field-independent basis, Debye):
    X=              4.4095    Y=             -0.9182    Z=             -9.5781  Tot=             10.5843
 Quadrupole moment (field-independent basis, Debye-Ang):
   XX=           -147.8723   YY=              1.0140   ZZ=             -4.9819
   XY=             21.5472   XZ=            197.7878   YZ=             -5.5023

 Normal termination of Gaussian 16 at Thu Oct 14 13:30:08 2021.
