 Gaussian 16, Revision A.03,
 Gaussian 16:  ES64L-G16RevA.03 25-Dec-2016

 --------------------------------------------------------
 #p PBE1PBE/Def2SVP td=(nstates=5) density=(transition=1)
 --------------------------------------------------------

 --------------------------------
 TDDFT excited states in gaussian
 --------------------------------
 Symbolic Z-matrix:
 Charge =  0 Multiplicity = 1

                         Standard orientation:
 ---------------------------------------------------------------------
 Center     Atomic      Atomic             Coordinates (Angstroms)
 Number     Number       Type             X           Y           Z
 ---------------------------------------------------------------------
      1         12           0       27.205079   -0.599875   -0.028819
      2          6           0       25.252805    1.886560    1.403187
      3          6           0       28.928505    1.727067   -1.757769
      4          6           0       28.900513   -3.096833   -1.476433
      5          6           0       25.253639   -2.949173    1.684265
      6          7           0       27.061093    1.582158   -0.087816
      7          6           0       26.294445    2.383363    0.612594
      8          6           0       26.693023    3.883700    0.233657
      9          6           0       27.187616    3.623690   -1.173549
     10          6           0       27.824502    2.206565   -1.013989
     11          6           0       26.022829    3.738878   -2.180382
     12          6           0       27.639036    4.510543    1.346036
     13          6           0       27.694776    6.041315    1.347059
     14          1           0       27.068922    6.797388    0.187816
     15          7           0       28.802069   -0.668551   -1.269164
     16          6           0       29.431321    0.442477   -1.825756
     17          6           0       30.682514   -0.034429   -2.487747
     18          6           0       30.658482   -1.493763   -2.470738
     19          6           0       29.369232   -1.765124   -1.781082
     20          6           0       31.693859    0.905669   -3.099814
     21          6           0       31.718923   -2.573651   -2.984134
     22          8           0       31.586773   -3.792338   -2.828496
     23          6           0       32.950677   -2.031859   -3.679010
     24          7           0       27.029084   -2.661512   -0.005706
     25          6           0       27.823352   -3.482459   -0.687561
     26          6           0       27.402558   -4.978769   -0.556036
     27          6           0       26.426157   -4.879564    0.624784
     28          6           0       26.244758   -3.410804    0.846426
     29          6           0       26.793785   -5.597844   -1.845156
     30          6           0       26.713663   -5.758006    1.922671
     31          6           0       27.277823   -5.059165    3.115812
     32          7           0       25.456523   -0.607118    1.116435
     33          6           0       24.825624   -1.599271    1.788379
     34          6           0       23.704137   -1.146204    2.531302
     35          6           0       23.825159    0.274570    2.417923
     36          6           0       24.889539    0.484381    1.571167
     37          6           0       22.603829   -1.836130    3.295201
     38          6           0       23.308869    1.556313    2.796057
     39          8           0       22.374946    1.879682    3.497844
     40          6           0       24.282951    2.671129    2.297843
     41          6           0       23.523380    3.707201    1.591638
     42          8           0       22.881872    3.473231    0.578670
     43          8           0       23.454876    4.942110    2.285963
     44          6           0       22.606324    5.978674    1.677432
     45          1           0       29.416943    2.503417   -2.348476
     46          1           0       29.443803   -3.886779   -1.997726
     47          1           0       24.636743   -3.712239    2.162735
     48          1           0       25.808221    4.518146    0.263500
     49          1           0       28.011779    4.264438   -1.486075
     50          1           0       26.300410    4.627052   -2.749005
     51          1           0       25.054927    3.880829   -1.697837
     52          1           0       26.116581    2.879169   -2.843500
     53          1           0       28.660801    4.153952    1.212855
     54          1           0       27.184936    4.220242    2.293751
     55          1           0       28.747298    6.312677    1.422656
     56          1           0       27.226918    6.371125    2.274332
     57          1           0       31.753777    1.842678   -2.544989
     58          1           0       31.566158    1.156201   -4.152418
     59          1           0       32.682943    0.460263   -2.993970
     60          1           0       32.539726   -1.372597   -4.443232
     61          1           0       33.543073   -2.781131   -4.203339
     62          1           0       33.601535   -1.546431   -2.951608
     63          1           0       28.253724   -5.609784   -0.300693
     64          1           0       25.450295   -5.132665    0.211988
     65          1           0       25.939237   -6.180962   -1.501047
     66          1           0       27.452157   -6.213142   -2.456430
     67          1           0       26.515095   -4.777681   -2.506849
     68          1           0       27.310073   -6.621244    1.627123
     69          1           0       25.766370   -6.130283    2.312064
     70          1           0       26.508781   -5.064336    3.888605
     71          1           0       27.424823   -3.982800    3.018595
     72          1           0       28.154385   -5.540031    3.550126
     73          1           0       22.643702   -2.921172    3.193023
     74          1           0       21.647992   -1.390986    3.017413
     75          1           0       22.653031   -1.773023    4.382473
     76          1           0       24.818296    3.139475    3.123348
     77          1           0       22.699178    6.969610    2.121185
     78          1           0       21.599261    5.586736    1.822518
     79          1           0       22.833593    5.946974    0.612509
     80         12           0      -27.402090   -0.539912   -0.183770
     81          6           0      -25.660186    2.234518   -1.404611
     82          6           0      -28.252798    1.347800    2.576587
     83          6           0      -28.501860   -3.372858    1.370574
     84          6           0      -25.928372   -2.460573   -2.660097
     85          7           0      -27.055937    1.539861    0.400652
     86          6           0      -26.517315    2.513589   -0.344369
     87          6           0      -26.757059    3.934611    0.186297
     88          6           0      -27.435742    3.635802    1.577882
     89          6           0      -27.709510    2.030602    1.518640
     90          6           0      -26.656445    4.044258    2.846564
     91          6           0      -27.585253    4.828713   -0.736743
     92          6           0      -27.293055    6.329043   -0.553145
     93          1           0      -26.269986    6.771302    0.502618
     94          7           0      -28.355566   -0.961828    1.646797
     95          6           0      -28.687004   -0.019284    2.647362
     96          6           0      -29.392695   -0.710620    3.707587
     97          6           0      -29.420132   -2.122614    3.402894
     98          6           0      -28.782147   -2.209305    2.090224
     99          6           0      -30.029566    0.049468    4.838311
    100          6           0      -30.125155   -3.332638    4.165214
    101          8           0      -30.191934   -4.455127    3.726291
    102          6           0      -30.717434   -3.016229    5.521366
    103          7           0      -27.159833   -2.603540   -0.531644
    104          6           0      -27.732569   -3.592098    0.213887
    105          6           0      -27.473722   -5.021167   -0.390639
    106          6           0      -26.728778   -4.668880   -1.677155
    107          6           0      -26.597039   -3.159039   -1.609056
    108          6           0      -26.819942   -6.176762    0.469233
    109          6           0      -27.515051   -5.134077   -2.925226
    110          6           0      -28.658771   -4.244745   -3.461320
    111          7           0      -26.171222   -0.234896   -1.851032
    112          6           0      -25.649346   -1.104402   -2.773406
    113          6           0      -24.849954   -0.420323   -3.733789
    114          6           0      -24.806661    0.956541   -3.229237
    115          6           0      -25.572927    0.977262   -2.129560
    116          6           0      -24.157632   -0.889278   -4.936127
    117          6           0      -24.190415    2.267084   -3.383189
    118          8           0      -23.475820    2.707084   -4.290143
    119          6           0      -24.705291    3.172928   -2.226057
    120          6           0      -23.602824    3.708829   -1.434222
    121          8           0      -22.966507    3.102447   -0.578860
    122          8           0      -23.230832    4.926009   -1.947457
    123          6           0      -21.905995    5.485588   -1.616164
    124          1           0      -28.452693    2.012175    3.420102
    125          1           0      -29.006911   -4.257047    1.764943
    126          1           0      -25.540889   -3.044859   -3.497262
    127          1           0      -25.821921    4.425566    0.454753
    128          1           0      -28.458321    4.004793    1.648615
    129          1           0      -27.414875    4.638352    3.356095
    130          1           0      -25.791179    4.654069    2.587764
    131          1           0      -26.329415    3.160938    3.395241
    132          1           0      -28.654734    4.655730   -0.623032
    133          1           0      -27.377568    4.586474   -1.779339
    134          1           0      -28.290747    6.696797   -0.312531
    135          1           0      -27.065857    6.818409   -1.501326
    136          1           0      -29.660599    1.070931    4.744980
    137          1           0      -29.733503   -0.405921    5.783573
    138          1           0      -31.119922    0.031091    4.804568
    139          1           0      -30.020950   -2.891685    6.351160
    140          1           0      -31.459162   -3.783040    5.744820
    141          1           0      -31.237413   -2.079196    5.322442
    142          1           0      -28.496323   -5.347934   -0.577969
    143          1           0      -25.763228   -5.169916   -1.618209
    144          1           0      -25.999803   -6.700402   -0.020545
    145          1           0      -27.580344   -6.937213    0.644151
    146          1           0      -26.541485   -5.752198    1.434217
    147          1           0      -27.893335   -6.123759   -2.672117
    148          1           0      -26.753684   -5.270233   -3.693826
    149          1           0      -29.448346   -4.948286   -3.724098
    150          1           0      -28.397643   -3.708249   -4.373218
    151          1           0      -28.979241   -3.461885   -2.774815
    152          1           0      -24.307223   -0.141912   -5.714555
    153          1           0      -24.469529   -1.864686   -5.309617
    154          1           0      -23.078996   -0.838607   -4.786447
    155          1           0      -25.273818    3.950826   -2.735497
    156          1           0      -21.358365    4.858472   -0.911794
    157          1           0      -22.066085    6.451905   -1.137302
    158          1           0      -21.447470    5.522011   -2.603731
 ---------------------------------------------------------------------

 SCF Done:  E(RPBE1PBE) =  -4067.40049428     A.U. after   16 cycles

 Excitation energies and oscillator strengths:

 Excited State   1:      Singlet-A      1.8723 eV  662.22 nm  f=0.3938  <S**2>=0.000
     309 -> 316        0.17554
     311 -> 313        0.69300
     311 <- 313       -0.10655
 This state for optimization and/or second-order correction.
 Total Energy, E(TD-HF/TD-DFT) =  -4067.33169004
 Copying the excited state density for this state as the 1-particle RhoCI density.

 Excited State   2:      Singlet-A      1.8755 eV  661.09 nm  f=0.3780  <S**2>=0.000
     310 -> 315        0.17466
     312 -> 314        0.69074
     312 <- 314       -0.10930

 Excited State   3:      Singlet-A      1.9982 eV  620.47 nm  f=0.0000  <S**2>=0.000
     312 -> 313        0.70711

 Excited State   4:      Singlet-A      2.0281 eV  611.33 nm  f=0.0000  <S**2>=0.000
     311 -> 314        0.70711

 Excited State   5:      Singlet-A      2.1488 eV  577.00 nm  f=0.1395  <S**2>=0.000
     310 -> 314        0.66654
     312 -> 315       -0.21045

 The electronic state is 1-A.
 Alpha  occ. eigenvalues --  -46.91649 -46.91171 -19.24616 -19.24539 -19.20482
 Alpha  occ. eigenvalues --  -19.20055 -19.19719 -19.19191 -19.18986 -19.18333
 Alpha  occ. eigenvalues --  -14.41684 -14.41456 -14.41377 -14.41090 -14.39632
 Alpha  occ. eigenvalues --  -14.39072 -14.38422 -14.37904 -10.35912 -10.35638
 Alpha  occ. eigenvalues --  -10.34186 -10.33252 -10.32271 -10.31423 -10.28872
 Alpha  occ. eigenvalues --  -10.28584 -10.28582 -10.28530 -10.28432 -10.28424
 Alpha  occ. eigenvalues --  -10.28394 -10.28376 -10.28324 -10.28310 -10.28147
 Alpha  occ. eigenvalues --  -10.27964 -10.27807 -10.27646 -10.27500 -10.26843
 Alpha  occ. eigenvalues --  -10.26583 -10.26472 -10.26364 -10.26211 -10.26141
 Alpha  occ. eigenvalues --  -10.26031 -10.25962 -10.25911 -10.25857 -10.25763
 Alpha  occ. eigenvalues --  -10.25752 -10.25576 -10.25483 -10.25457 -10.25374
 Alpha  occ. eigenvalues --  -10.25364 -10.25315 -10.25243 -10.25231 -10.25215
 Alpha  occ. eigenvalues --  -10.25037 -10.24789 -10.24771 -10.24706 -10.24691
 Alpha  occ. eigenvalues --  -10.24628 -10.24570 -10.24330 -10.24272 -10.24125
 Alpha  occ. eigenvalues --  -10.24024 -10.23971 -10.23749 -10.23544 -10.23447
 Alpha  occ. eigenvalues --  -10.23439 -10.23424 -10.23305 -10.23272 -10.23233
 Alpha  occ. eigenvalues --  -10.23215 -10.23073 -10.22865 -10.22545 -10.22183
 Alpha  occ. eigenvalues --  -10.22005  -3.13754  -3.13510  -1.86596  -1.86365
 Alpha  occ. eigenvalues --   -1.86125  -1.85984  -1.85850  -1.85783  -1.09831
 Alpha  occ. eigenvalues --   -1.09255  -1.06245  -1.05008  -1.04515  -1.03639
 Alpha  occ. eigenvalues --   -1.01601  -1.01442  -1.00368  -0.99429  -0.99026
 Alpha  occ. eigenvalues --   -0.98785  -0.97960  -0.97708  -0.97131  -0.95614
 Alpha  occ. eigenvalues --   -0.86595  -0.86455  -0.83542  -0.83438  -0.83030
 Alpha  occ. eigenvalues --   -0.82803  -0.82511  -0.82431  -0.81574  -0.81382
 Alpha  occ. eigenvalues --   -0.81273  -0.80744  -0.80699  -0.80396  -0.78515
 Alpha  occ. eigenvalues --   -0.78466  -0.78016  -0.77674  -0.77008  -0.76580
 Alpha  occ. eigenvalues --   -0.76573  -0.76074  -0.75330  -0.75309  -0.74524
 Alpha  occ. eigenvalues --   -0.74442  -0.72740  -0.72431  -0.71601  -0.71404
 Alpha  occ. eigenvalues --   -0.71121  -0.71012  -0.70196  -0.70130  -0.69422
 Alpha  occ. eigenvalues --   -0.69369  -0.67334  -0.66882  -0.65617  -0.65523
 Alpha  occ. eigenvalues --   -0.64148  -0.63687  -0.63142  -0.62834  -0.62358
 Alpha  occ. eigenvalues --   -0.62105  -0.60879  -0.60439  -0.59580  -0.59240
 Alpha  occ. eigenvalues --   -0.59162  -0.59105  -0.58929  -0.58767  -0.58408
 Alpha  occ. eigenvalues --   -0.58272  -0.55970  -0.55889  -0.55052  -0.54272
 Alpha  occ. eigenvalues --   -0.54205  -0.53737  -0.53651  -0.53586  -0.52832
 Alpha  occ. eigenvalues --   -0.52690  -0.52542  -0.52290  -0.52094  -0.51963
 Alpha  occ. eigenvalues --   -0.50393  -0.50390  -0.50230  -0.50004  -0.49974
 Alpha  occ. eigenvalues --   -0.49674  -0.49319  -0.49178  -0.48419  -0.48235
 Alpha  occ. eigenvalues --   -0.48207  -0.47803  -0.47721  -0.47453  -0.47441
 Alpha  occ. eigenvalues --   -0.47243  -0.47128  -0.46918  -0.46766  -0.46677
 Alpha  occ. eigenvalues --   -0.46629  -0.46435  -0.46389  -0.46239  -0.45837
 Alpha  occ. eigenvalues --   -0.45495  -0.45188  -0.45129  -0.45085  -0.45035
 Alpha  occ. eigenvalues --   -0.44749  -0.44383  -0.44191  -0.44086  -0.44081
 Alpha  occ. eigenvalues --   -0.43925  -0.43868  -0.43647  -0.43593  -0.43593
 Alpha  occ. eigenvalues --   -0.43474  -0.43219  -0.43150  -0.43091  -0.42883
 Alpha  occ. eigenvalues --   -0.42748  -0.42330  -0.42303  -0.41996  -0.41769
 Alpha  occ. eigenvalues --   -0.41660  -0.41412  -0.41251  -0.41128  -0.40980
 Alpha  occ. eigenvalues --   -0.40855  -0.40746  -0.40508  -0.40507  -0.40472
 Alpha  occ. eigenvalues --   -0.40371  -0.39984  -0.39766  -0.39665  -0.39429
 Alpha  occ. eigenvalues --   -0.39386  -0.39128  -0.39044  -0.38821  -0.38624
 Alpha  occ. eigenvalues --   -0.38536  -0.38433  -0.38334  -0.38221  -0.38065
 Alpha  occ. eigenvalues --   -0.37984  -0.37927  -0.37866  -0.37772  -0.37624
 Alpha  occ. eigenvalues --   -0.37446  -0.37399  -0.37231  -0.36969  -0.36830
 Alpha  occ. eigenvalues --   -0.36660  -0.36323  -0.36257  -0.35920  -0.35905
 Alpha  occ. eigenvalues --   -0.35807  -0.35715  -0.35529  -0.35497  -0.35084
 Alpha  occ. eigenvalues --   -0.34974  -0.34867  -0.34808  -0.34104  -0.33466
 Alpha  occ. eigenvalues --   -0.33310  -0.33163  -0.33041  -0.32786  -0.32671
 Alpha  occ. eigenvalues --   -0.32549  -0.31714  -0.31693  -0.31215  -0.31181
 Alpha  occ. eigenvalues --   -0.30586  -0.30556  -0.29685  -0.29533  -0.29021
 Alpha  occ. eigenvalues --   -0.28951  -0.28565  -0.28465  -0.26840  -0.26614
 Alpha  occ. eigenvalues --   -0.26588  -0.26320  -0.25990  -0.25715  -0.25459
 Alpha  occ. eigenvalues --   -0.25241  -0.25169  -0.24369  -0.20828  -0.20486
 Alpha  occ. eigenvalues --   -0.18963  -0.18870
 Alpha virt. eigenvalues --   -0.11284  -0.11264  -0.04855  -0.04793  -0.04187
 Alpha virt. eigenvalues --   -0.03610  -0.02019  -0.01906  -0.00154   0.00138
 Alpha virt. eigenvalues --    0.00717   0.00884   0.01109   0.01417   0.01724

 Mulliken charges:
               1
     1  Mg  12.002213
     2  C    5.978678
     3  C    6.007846
     4  C    6.021198
     5  C    5.997187
     6  N    6.986407
     7  C    6.032644
     8  C    5.998473
     9  C    6.003044
    10  C    5.974309
    11  C    5.996688
    12  C    5.997499
    13  C    6.000013
    14  H    1.003110
    15  N    7.004611
    16  C    5.960081
    17  C    5.980910
    18  C    5.978895
    19  C    5.974079
    20  C    6.004194
    21  C    5.985356
    22  O    7.970486
    23  C    6.004694
    24  N    7.006510
    25  C    5.967467
    26  C    6.008762
    27  C    5.991690
    28  C    6.027317
    29  C    6.000384
    30  C    5.999167
    31  C    5.997667
    32  N    7.004324
    33  C    6.029345
    34  C    6.031572
    35  C    6.002745
    36  C    6.023632
    37  C    5.996551
    38  C    6.014368
    39  O    8.028949
    40  C    6.001370
    41  C    6.006162
    42  O    8.004488
    43  O    8.001614
    44  C    5.998936
    45  H    0.988731
    46  H    0.996483
    47  H    1.011916
    48  H    0.996920
    49  H    1.001538
    50  H    0.997374
    51  H    0.986204
    52  H    1.002985
    53  H    1.011370
    54  H    0.992456
    55  H    1.003682
    56  H    0.996628
    57  H    0.984128
    58  H    0.979386
    59  H    0.985574
    60  H    0.995820
    61  H    0.985814
    62  H    0.991663
    63  H    1.001872
    64  H    1.001741
    65  H    0.989868
    66  H    1.003435
    67  H    1.001852
    68  H    1.010359
    69  H    0.999467
    70  H    0.997990
    71  H    0.998358
    72  H    1.009433
    73  H    1.017052
    74  H    1.016521
    75  H    1.021221
    76  H    1.006829
    77  H    1.004550
    78  H    0.999490
    79  H    1.005657
    80  Mg  12.000038
    81  C    6.000297
    82  C    5.999492
    83  C    5.999583
    84  C    6.000080
    85  N    7.000041
    86  C    5.999499
    87  C    6.000193
    88  C    5.999899
    89  C    6.000634
    90  C    5.999997
    91  C    6.000035
    92  C    6.000079
    93  H    0.999890
    94  N    6.999890
    95  C    6.001160
    96  C    6.000122
    97  C    6.000560
    98  C    6.000535
    99  C    5.999882
   100  C    6.000318
   101  O    8.000531
   102  C    5.999923
   103  N    6.999896
   104  C    6.000714
   105  C    5.999821
   106  C    6.000237
   107  C    5.999385
   108  C    5.999961
   109  C    6.000046
   110  C    6.000062
   111  N    6.999920
   112  C    5.999325
   113  C    5.999354
   114  C    5.999867
   115  C    5.999576
   116  C    6.000079
   117  C    5.999864
   118  O    7.999489
   119  C    5.999997
   120  C    5.999824
   121  O    7.999906
   122  O    7.999951
   123  C    6.000066
   124  H    1.000182
   125  H    1.000156
   126  H    0.999840
   127  H    0.999961
   128  H    0.999982
   129  H    1.000034
   130  H    1.000201
   131  H    0.999902
   132  H    0.999865
   133  H    1.000151
   134  H    0.999933
   135  H    1.000019
   136  H    1.000360
   137  H    1.000329
   138  H    1.000405
   139  H    1.000153
   140  H    1.000277
   141  H    1.000035
   142  H    1.000000
   143  H    0.999950
   144  H    1.000202
   145  H    1.000016
   146  H    0.999925
   147  H    0.999807
   148  H    1.000076
   149  H    0.999872
   150  H    1.000114
   151  H    0.999877
   152  H    0.999640
   153  H    0.999617
   154  H    0.999517
   155  H    0.999833
   156  H    0.999895
   157  H    0.999869
   158  H    0.999990
 Sum of Mulliken charges = 624.00000

 Dipole moment (field-independent basis, Debye):
    X=             -8.2415    Y=             -0.2894    Z=              6.5519  Tot=             10.5325
 Quadrupole moment (field-independent basis, Debye-Ang):
   XX=           -436.8207   YY=              3.2468   ZZ=             -0.0992
   XY=             -0.9031   XZ=            169.4001   YZ=             -4.5027

 Normal termination of Gaussian 16 at Fri Oct 15 19:17:30 2021.
