 Gaussian 16, Revision A.03,
 Gaussian 16:  ES64L-G16RevA.03 25-Dec-2016

 --------------------------------------------------------
 #p PBE1PBE/Def2SVP td=(nstates=5) density=(transition=1)
 --------------------------------------------------------

 --------------------------------
 TDDFT excited states in gaussian
 --------------------------------
 Symbolic Z-matrix:
 Charge =  0 Multiplicity = 1

                         Standard orientation:
 ---------------------------------------------------------------------
 Center     Atomic      Atomic             Coordinates (Angstroms)
 Number     Number       Type             X           Y           Z
 ---------------------------------------------------------------------
      1         12           0      -24.207073    0.691249    0.112520
      2          6           0      -23.116555   -2.336183   -1.357114
      3          6           0      -22.372491    2.266425   -2.107010
      4          6           0      -24.421979    3.289800    2.145591
      5          6           0      -25.486034   -1.332739    2.738563
      6          7           0      -23.028439   -0.068682   -1.666469
      7          6           0      -22.788054   -1.244398   -2.120561
      8          6           0      -22.153640   -1.172769   -3.524798
      9          6           0      -21.482226    0.293647   -3.543676
     10          6           0      -22.280757    0.886067   -2.308944
     11          6           0      -19.914847    0.356109   -3.354979
     12          6           0      -23.289679   -1.260314   -4.672246
     13          6           0      -22.979557   -1.941111   -6.044641
     14          1           0      -21.483313   -1.882298   -6.526976
     15          7           0      -23.673232    2.587777   -0.063916
     16          6           0      -22.937937    3.057519   -1.141799
     17          6           0      -22.731211    4.537772   -0.961895
     18          6           0      -23.386509    4.835843    0.305230
     19          6           0      -23.881599    3.600562    0.918752
     20          6           0      -21.934464    5.348748   -1.966349
     21          6           0      -23.558534    6.197309    0.942072
     22          8           0      -24.086958    6.397122    2.044635
     23          6           0      -23.105335    7.388438    0.199574
     24          7           0      -24.984270    0.967971    2.188944
     25          6           0      -24.889752    2.153143    2.764115
     26          6           0      -25.776312    2.190107    4.087406
     27          6           0      -26.091072    0.606306    4.259416
     28          6           0      -25.516763    0.044431    2.961674
     29          6           0      -25.072517    2.879265    5.302858
     30          6           0      -27.578916    0.171256    4.467022
     31          6           0      -27.947620   -0.382724    5.819279
     32          7           0      -24.508142   -1.427643    0.549778
     33          6           0      -25.045031   -2.038502    1.665570
     34          6           0      -24.886042   -3.429847    1.575840
     35          6           0      -24.095633   -3.583891    0.421147
     36          6           0      -23.844836   -2.369550   -0.172641
     37          6           0      -25.341433   -4.445614    2.497815
     38          6           0      -23.546570   -4.601043   -0.388854
     39          8           0      -23.579901   -5.861516   -0.405514
     40          6           0      -22.647674   -3.807360   -1.440081
     41          6           0      -22.779363   -4.411044   -2.790106
     42          8           0      -23.788045   -4.486040   -3.488720
     43          8           0      -21.467494   -4.803502   -3.204305
     44          6           0      -21.344345   -5.442302   -4.520796
     45          1           0      -21.864503    2.748903   -2.945145
     46          1           0      -24.539989    4.170981    2.778646
     47          1           0      -25.951832   -1.947985    3.512055
     48          1           0      -21.288690   -1.835507   -3.516645
     49          1           0      -21.624878    0.719382   -4.536312
     50          1           0      -19.507568   -0.594847   -3.012279
     51          1           0      -19.631409    1.070631   -2.582376
     52          1           0      -19.510040    0.610766   -4.334397
     53          1           0      -23.710217   -0.275880   -4.878119
     54          1           0      -24.156194   -1.766831   -4.246704
     55          1           0      -23.558861   -1.537394   -6.875635
     56          1           0      -23.080501   -3.015621   -5.886890
     57          1           0      -22.424360    6.290805   -2.215196
     58          1           0      -21.737356    4.810008   -2.893202
     59          1           0      -20.911204    5.458916   -1.608168
     60          1           0      -22.042345    7.325101   -0.034819
     61          1           0      -23.297845    8.285626    0.787948
     62          1           0      -23.623926    7.584781   -0.738839
     63          1           0      -26.742942    2.669198    3.932271
     64          1           0      -25.435570    0.134859    4.993124
     65          1           0      -24.041124    3.128494    5.052782
     66          1           0      -25.255845    2.142104    6.084839
     67          1           0      -25.691293    3.731753    5.579997
     68          1           0      -27.790336   -0.612581    3.739362
     69          1           0      -28.236947    1.007523    4.230054
     70          1           0      -27.059200   -0.187359    6.418349
     71          1           0      -28.054852   -1.463169    5.716395
     72          1           0      -28.791030    0.128244    6.282032
     73          1           0      -26.402858   -4.263602    2.664062
     74          1           0      -24.997496   -4.345616    3.527327
     75          1           0      -25.202084   -5.431760    2.054481
     76          1           0      -21.610934   -3.860615   -1.106233
     77          1           0      -20.321213   -5.777507   -4.692913
     78          1           0      -21.468971   -4.677668   -5.287770
     79          1           0      -21.988232   -6.320551   -4.553592
     80         12           0       23.868975    0.562535   -0.611431
     81          6           0       23.268270   -2.832523    0.124301
     82          6           0       20.558199    1.138177   -0.050578
     83          6           0       24.580814    3.905128   -0.568887
     84          6           0       27.332771   -0.275397   -0.613967
     85          7           0       22.113124   -0.711064    0.121199
     86          6           0       22.025973   -2.070541    0.214356
     87          6           0       20.645012   -2.533698    0.709649
     88          6           0       19.819212   -1.238531    0.237294
     89          6           0       20.898049   -0.194820    0.087723
     90          6           0       19.003934   -1.400493   -1.073667
     91          6           0       20.541200   -2.742043    2.287366
     92          6           0       19.476689   -3.678888    2.837132
     93          1           0       18.260044   -3.163079    3.634780
     94          7           0       22.748693    2.383589   -0.382692
     95          6           0       21.386661    2.357976   -0.302479
     96          6           0       20.851223    3.640231   -0.435316
     97          6           0       21.995856    4.504001   -0.619425
     98          6           0       23.203764    3.639139   -0.501427
     99          6           0       19.364878    3.975941   -0.413312
    100          6           0       21.862862    5.992752   -0.847465
    101          8           0       20.718856    6.514420   -0.890203
    102          6           0       23.077451    6.939121   -1.150583
    103          7           0       25.683688    1.580493   -0.599355
    104          6           0       25.715280    3.001227   -0.617500
    105          6           0       27.095955    3.478740   -0.972486
    106          6           0       28.010053    2.273664   -0.661878
    107          6           0       26.992433    1.096381   -0.697993
    108          6           0       27.407056    3.926518   -2.418550
    109          6           0       28.686718    2.376439    0.804971
    110          6           0       29.963198    3.189209    0.960691
    111          7           0       25.032276   -1.244530   -0.485707
    112          6           0       26.407248   -1.423207   -0.513059
    113          6           0       26.755190   -2.743991   -0.301312
    114          6           0       25.523764   -3.387787   -0.090768
    115          6           0       24.510696   -2.419283   -0.190607
    116          6           0       28.151764   -3.280668   -0.308410
    117          6           0       24.932312   -4.608606    0.077191
    118          8           0       25.413625   -5.723931    0.042766
    119          6           0       23.483229   -4.261295    0.478382
    120          6           0       23.403099   -4.575824    1.942428
    121          8           0       24.107079   -4.086591    2.770158
    122          8           0       22.449102   -5.569062    2.170920
    123          6           0       22.453398   -6.021431    3.518628
    124          1           0       19.484802    1.336943   -0.085890
    125          1           0       24.851450    4.945365   -0.763895
    126          1           0       28.395257   -0.473831   -0.768083
    127          1           0       20.246357   -3.359233    0.120964
    128          1           0       19.091515   -1.036991    1.022894
    129          1           0       17.999422   -1.602726   -0.700910
    130          1           0       19.331282   -2.258185   -1.661175
    131          1           0       18.989693   -0.477937   -1.654232
    132          1           0       20.320055   -1.795811    2.781259
    133          1           0       21.541046   -3.012954    2.627203
    134          1           0       20.038426   -4.370308    3.466891
    135          1           0       19.098175   -4.261600    1.997479
    136          1           0       18.980203    4.768225   -1.056380
    137          1           0       19.269125    4.162793    0.656022
    138          1           0       18.787307    3.126519   -0.778059
    139          1           0       23.548670    6.635495   -2.084999
    140          1           0       23.700401    6.803232   -0.266737
    141          1           0       22.869221    8.008846   -1.134683
    142          1           0       27.334899    4.272002   -0.264892
    143          1           0       28.800851    2.152245   -1.402236
    144          1           0       28.096801    3.283258   -2.964682
    145          1           0       27.458844    5.012794   -2.495071
    146          1           0       26.472921    3.745394   -2.949993
    147          1           0       28.864916    1.319048    0.999557
    148          1           0       27.974714    2.764258    1.533740
    149          1           0       29.831740    3.908521    1.768578
    150          1           0       30.164210    3.723207    0.031544
    151          1           0       30.803807    2.557641    1.249256
    152          1           0       28.247832   -3.873245    0.600922
    153          1           0       28.904765   -2.495233   -0.232838
    154          1           0       28.352860   -3.929083   -1.161355
    155          1           0       22.813785   -4.908726   -0.086943
    156          1           0       23.111558   -6.884819    3.612120
    157          1           0       21.503139   -6.453148    3.835138
    158          1           0       22.783507   -5.251982    4.214447
 ---------------------------------------------------------------------

 SCF Done:  E(RPBE1PBE) =  -4067.32116477     A.U. after   16 cycles

 Excitation energies and oscillator strengths:

 Excited State   1:      Singlet-A      1.8621 eV  665.85 nm  f=0.3835  <S**2>=0.000
     309 -> 316       -0.18181
     311 -> 313        0.68867
     311 <- 313       -0.10551
 This state for optimization and/or second-order correction.
 Total Energy, E(TD-HF/TD-DFT) =  -4067.25273559
 Copying the excited state density for this state as the 1-particle RhoCI density.

 Excited State   2:      Singlet-A      1.9167 eV  646.87 nm  f=0.0000  <S**2>=0.000
     312 -> 313        0.70711

 Excited State   3:      Singlet-A      1.9488 eV  636.21 nm  f=0.3537  <S**2>=0.000
     310 -> 315        0.20419
     312 -> 314        0.68090

 Excited State   4:      Singlet-A      2.1541 eV  575.57 nm  f=0.1183  <S**2>=0.000
     309 -> 313        0.65689
     311 -> 316        0.24321

 Excited State   5:      Singlet-A      2.2125 eV  560.38 nm  f=0.0832  <S**2>=0.000
     310 -> 314        0.64637
     312 -> 315       -0.26600

 The electronic state is 1-A.
 Alpha  occ. eigenvalues --  -46.93705 -46.92798 -19.26022 -19.24629 -19.21090
 Alpha  occ. eigenvalues --  -19.20415 -19.19186 -19.18772 -19.18368 -19.18173
 Alpha  occ. eigenvalues --  -14.42513 -14.42349 -14.41664 -14.41158 -14.39671
 Alpha  occ. eigenvalues --  -14.39454 -14.38846 -14.38308 -10.36689 -10.36306
 Alpha  occ. eigenvalues --  -10.32242 -10.32211 -10.31675 -10.30470 -10.30122
 Alpha  occ. eigenvalues --  -10.30110 -10.29464 -10.29253 -10.28672 -10.28549
 Alpha  occ. eigenvalues --  -10.28410 -10.28406 -10.28369 -10.28353 -10.28317
 Alpha  occ. eigenvalues --  -10.28207 -10.28079 -10.27935 -10.27932 -10.27699
 Alpha  occ. eigenvalues --  -10.27060 -10.26849 -10.26595 -10.26522 -10.26497
 Alpha  occ. eigenvalues --  -10.26302 -10.26227 -10.26166 -10.26082 -10.26078
 Alpha  occ. eigenvalues --  -10.25978 -10.25849 -10.25843 -10.25708 -10.25674
 Alpha  occ. eigenvalues --  -10.25618 -10.25509 -10.25496 -10.25495 -10.25472
 Alpha  occ. eigenvalues --  -10.25433 -10.25418 -10.25263 -10.25226 -10.25135
 Alpha  occ. eigenvalues --  -10.25112 -10.25023 -10.24937 -10.24633 -10.24183
 Alpha  occ. eigenvalues --  -10.24068 -10.24002 -10.23975 -10.23897 -10.23870
 Alpha  occ. eigenvalues --  -10.23677 -10.23636 -10.23563 -10.23362 -10.23308
 Alpha  occ. eigenvalues --  -10.23297 -10.23114 -10.23072 -10.22857 -10.22399
 Alpha  occ. eigenvalues --  -10.21885  -3.15585  -3.14834  -1.88423  -1.87951
 Alpha  occ. eigenvalues --   -1.87803  -1.87677  -1.87217  -1.87044  -1.12368
 Alpha  occ. eigenvalues --   -1.08690  -1.04834  -1.04301  -1.04105  -1.02070
 Alpha  occ. eigenvalues --   -1.02047  -1.01550  -1.00445  -1.00344  -0.99867
 Alpha  occ. eigenvalues --   -0.99356  -0.98609  -0.98237  -0.96535  -0.96094
 Alpha  occ. eigenvalues --   -0.88729  -0.87378  -0.83842  -0.83234  -0.83036
 Alpha  occ. eigenvalues --   -0.82996  -0.82947  -0.82202  -0.81939  -0.81915
 Alpha  occ. eigenvalues --   -0.81651  -0.81433  -0.81125  -0.80229  -0.78662
 Alpha  occ. eigenvalues --   -0.78601  -0.78276  -0.77928  -0.77180  -0.77009
 Alpha  occ. eigenvalues --   -0.76237  -0.76164  -0.75796  -0.75028  -0.75021
 Alpha  occ. eigenvalues --   -0.74596  -0.73284  -0.72405  -0.72059  -0.71711
 Alpha  occ. eigenvalues --   -0.71283  -0.71228  -0.70285  -0.70232  -0.70057
 Alpha  occ. eigenvalues --   -0.69589  -0.68080  -0.67714  -0.66754  -0.66704
 Alpha  occ. eigenvalues --   -0.63924  -0.63417  -0.62957  -0.62924  -0.62802
 Alpha  occ. eigenvalues --   -0.62321  -0.61653  -0.61630  -0.60692  -0.60441
 Alpha  occ. eigenvalues --   -0.60101  -0.60036  -0.59806  -0.59295  -0.59169
 Alpha  occ. eigenvalues --   -0.58780  -0.57363  -0.55838  -0.55086  -0.55033
 Alpha  occ. eigenvalues --   -0.54738  -0.54732  -0.54150  -0.53917  -0.53786
 Alpha  occ. eigenvalues --   -0.53562  -0.53043  -0.52722  -0.52326  -0.51886
 Alpha  occ. eigenvalues --   -0.51500  -0.51136  -0.50351  -0.50196  -0.50012
 Alpha  occ. eigenvalues --   -0.49865  -0.49671  -0.48843  -0.48560  -0.48455
 Alpha  occ. eigenvalues --   -0.48168  -0.48104  -0.47819  -0.47747  -0.47548
 Alpha  occ. eigenvalues --   -0.47346  -0.47233  -0.47085  -0.47032  -0.46695
 Alpha  occ. eigenvalues --   -0.46665  -0.46434  -0.46103  -0.46062  -0.45793
 Alpha  occ. eigenvalues --   -0.45737  -0.45510  -0.45485  -0.45162  -0.45072
 Alpha  occ. eigenvalues --   -0.44993  -0.44726  -0.44489  -0.44486  -0.44349
 Alpha  occ. eigenvalues --   -0.44246  -0.43995  -0.43782  -0.43647  -0.43556
 Alpha  occ. eigenvalues --   -0.43435  -0.43270  -0.43107  -0.43048  -0.42660
 Alpha  occ. eigenvalues --   -0.42658  -0.42479  -0.42314  -0.42030  -0.42025
 Alpha  occ. eigenvalues --   -0.41898  -0.41709  -0.41670  -0.41540  -0.41290
 Alpha  occ. eigenvalues --   -0.41138  -0.41094  -0.41078  -0.40902  -0.40800
 Alpha  occ. eigenvalues --   -0.40553  -0.40315  -0.40157  -0.40070  -0.39853
 Alpha  occ. eigenvalues --   -0.39743  -0.39509  -0.39417  -0.39001  -0.38797
 Alpha  occ. eigenvalues --   -0.38744  -0.38667  -0.38636  -0.38412  -0.38170
 Alpha  occ. eigenvalues --   -0.38148  -0.38013  -0.37795  -0.37789  -0.37499
 Alpha  occ. eigenvalues --   -0.37424  -0.37302  -0.37095  -0.36779  -0.36483
 Alpha  occ. eigenvalues --   -0.36410  -0.36381  -0.36213  -0.36017  -0.35978
 Alpha  occ. eigenvalues --   -0.35875  -0.35848  -0.35656  -0.35527  -0.35392
 Alpha  occ. eigenvalues --   -0.35280  -0.35225  -0.35020  -0.34368  -0.33980
 Alpha  occ. eigenvalues --   -0.33504  -0.33496  -0.32886  -0.32833  -0.32640
 Alpha  occ. eigenvalues --   -0.32448  -0.32088  -0.31918  -0.31613  -0.31568
 Alpha  occ. eigenvalues --   -0.31050  -0.30685  -0.30395  -0.30262  -0.29799
 Alpha  occ. eigenvalues --   -0.29022  -0.28962  -0.28800  -0.27428  -0.27092
 Alpha  occ. eigenvalues --   -0.26054  -0.25954  -0.25707  -0.25348  -0.25301
 Alpha  occ. eigenvalues --   -0.25244  -0.25023  -0.24633  -0.21317  -0.21119
 Alpha  occ. eigenvalues --   -0.19638  -0.19320
 Alpha virt. eigenvalues --   -0.11999  -0.11181  -0.06075  -0.05991  -0.04431
 Alpha virt. eigenvalues --   -0.04282  -0.02153  -0.01869  -0.01403  -0.00551
 Alpha virt. eigenvalues --   -0.00040   0.00098   0.00745   0.01146   0.01242

 Mulliken charges:
               1
     1  Mg  12.000002
     2  C    5.999966
     3  C    6.000046
     4  C    6.000005
     5  C    5.999918
     6  N    6.999968
     7  C    6.000118
     8  C    5.999988
     9  C    6.000045
    10  C    5.999918
    11  C    6.000024
    12  C    5.999994
    13  C    6.000007
    14  H    0.999988
    15  N    7.000037
    16  C    5.999897
    17  C    5.999899
    18  C    5.999927
    19  C    5.999918
    20  C    6.000022
    21  C    5.999935
    22  O    7.999896
    23  C    6.000032
    24  N    7.000000
    25  C    5.999918
    26  C    6.000036
    27  C    5.999979
    28  C    6.000115
    29  C    6.000001
    30  C    5.999966
    31  C    6.000002
    32  N    6.999989
    33  C    6.000123
    34  C    6.000170
    35  C    5.999964
    36  C    6.000049
    37  C    5.999986
    38  C    6.000033
    39  O    8.000191
    40  C    5.999996
    41  C    6.000024
    42  O    8.000030
    43  O    8.000010
    44  C    5.999995
    45  H    0.999930
    46  H    0.999976
    47  H    1.000074
    48  H    0.999991
    49  H    0.999965
    50  H    0.999956
    51  H    0.999978
    52  H    0.999951
    53  H    1.000031
    54  H    0.999999
    55  H    1.000010
    56  H    1.000009
    57  H    0.999928
    58  H    0.999933
    59  H    0.999880
    60  H    0.999946
    61  H    0.999932
    62  H    0.999980
    63  H    1.000006
    64  H    0.999997
    65  H    0.999990
    66  H    0.999988
    67  H    1.000005
    68  H    0.999999
    69  H    1.000043
    70  H    1.000009
    71  H    1.000011
    72  H    1.000034
    73  H    1.000083
    74  H    1.000096
    75  H    1.000076
    76  H    1.000021
    77  H    1.000012
    78  H    1.000005
    79  H    1.000031
    80  Mg  12.000062
    81  C    5.996891
    82  C    5.974747
    83  C    5.994890
    84  C    6.027793
    85  N    6.989781
    86  C    5.970524
    87  C    6.011172
    88  C    5.988938
    89  C    6.035583
    90  C    5.997176
    91  C    6.001578
    92  C    6.001990
    93  H    0.988543
    94  N    6.994723
    95  C    6.040750
    96  C    6.017323
    97  C    6.012665
    98  C    6.033371
    99  C    6.000191
   100  C    6.009739
   101  O    8.024428
   102  C    5.999434
   103  N    7.014049
   104  C    6.027470
   105  C    5.989187
   106  C    6.006932
   107  C    5.961433
   108  C    6.002680
   109  C    6.001173
   110  C    5.999314
   111  N    6.998307
   112  C    5.964464
   113  C    5.977516
   114  C    5.993025
   115  C    5.981836
   116  C    6.001870
   117  C    5.982602
   118  O    7.966756
   119  C    6.006020
   120  C    5.994940
   121  O    7.995985
   122  O    7.996834
   123  C    6.003446
   124  H    1.004217
   125  H    1.010946
   126  H    0.995448
   127  H    0.998744
   128  H    1.001283
   129  H    1.003527
   130  H    1.010938
   131  H    0.992810
   132  H    0.988631
   133  H    1.005920
   134  H    1.001775
   135  H    0.998526
   136  H    1.012956
   137  H    1.015562
   138  H    1.018253
   139  H    1.009262
   140  H    1.007638
   141  H    1.013159
   142  H    1.001515
   143  H    1.000360
   144  H    1.012894
   145  H    1.000923
   146  H    0.997726
   147  H    1.007253
   148  H    0.990644
   149  H    0.996111
   150  H    0.996098
   151  H    1.002472
   152  H    0.986481
   153  H    0.981866
   154  H    0.983423
   155  H    0.988836
   156  H    0.997084
   157  H    0.993138
   158  H    0.995452
 Sum of Mulliken charges = 624.00000

 Dipole moment (field-independent basis, Debye):
    X=             -4.2477    Y=              9.4612    Z=             -1.0355  Tot=             10.4226
 Quadrupole moment (field-independent basis, Debye-Ang):
   XX=           -201.1169   YY=              8.3995   ZZ=             -0.8688
   XY=            223.1607   XZ=            -22.2687   YZ=             -2.5648

 Normal termination of Gaussian 16 at Thu Oct 14 07:12:55 2021.
