 Gaussian 16, Revision A.03,
 Gaussian 16:  ES64L-G16RevA.03 25-Dec-2016

 --------------------------------------------------------
 #p PBE1PBE/Def2SVP td=(nstates=5) density=(transition=1)
 --------------------------------------------------------

 --------------------------------
 TDDFT excited states in gaussian
 --------------------------------
 Symbolic Z-matrix:
 Charge =  0 Multiplicity = 1

                         Standard orientation:
 ---------------------------------------------------------------------
 Center     Atomic      Atomic             Coordinates (Angstroms)
 Number     Number       Type             X           Y           Z
 ---------------------------------------------------------------------
      1         12           0       -9.521593    0.462379    0.732370
      2          6           0       -9.280341   -2.442681   -1.230440
      3          6           0       -7.206815   -0.888607    2.886155
      4          6           0       -9.245429    3.477311    2.066337
      5          6           0      -11.702574    1.844134   -1.707284
      6          7           0       -8.210684   -1.314472    0.668989
      7          6           0       -8.278135   -2.402985   -0.238588
      8          6           0       -7.582003   -3.603589    0.255349
      9          6           0       -6.997344   -3.104327    1.646649
     10          6           0       -7.526937   -1.684914    1.776572
     11          6           0       -7.309143   -4.080348    2.806900
     12          6           0       -6.421909   -4.044798   -0.583962
     13          6           0       -5.563466   -2.937621   -1.213561
     14          1           0       -4.002547   -3.101671   -1.380323
     15          7           0       -8.406160    1.229431    2.308713
     16          6           0       -7.631615    0.477448    3.113861
     17          6           0       -7.176857    1.300538    4.206418
     18          6           0       -7.808074    2.558524    4.044913
     19          6           0       -8.562663    2.477167    2.783950
     20          6           0       -6.198133    0.890000    5.273575
     21          6           0       -7.694742    3.742426    5.004879
     22          8           0       -7.012514    3.672843    6.008467
     23          6           0       -8.261205    5.119667    4.824712
     24          7           0      -10.139937    2.431957    0.113130
     25          6           0       -9.938930    3.543492    0.887368
     26          6           0      -10.835215    4.736935    0.419545
     27          6           0      -11.349046    4.234545   -0.963645
     28          6           0      -11.070363    2.751865   -0.848753
     29          6           0      -12.020855    5.084428    1.351865
     30          6           0      -10.505190    4.704859   -2.240798
     31          6           0      -11.276448    5.216142   -3.403294
     32          7           0      -10.406782   -0.130435   -0.986831
     33          6           0      -11.369029    0.453444   -1.713731
     34          6           0      -12.061563   -0.574554   -2.578886
     35          6           0      -11.264670   -1.740732   -2.347727
     36          6           0      -10.188683   -1.379315   -1.488482
     37          6           0      -13.259407   -0.440597   -3.508129
     38          6           0      -11.059029   -3.081009   -2.815785
     39          8           0      -11.657538   -3.729018   -3.659833
     40          6           0       -9.762857   -3.598057   -2.070610
     41          6           0       -8.695445   -3.793021   -3.127369
     42          8           0       -8.142678   -2.957343   -3.763041
     43          8           0       -8.373063   -5.133043   -3.161057
     44          6           0       -7.158676   -5.427883   -3.928298
     45          1           0       -6.630697   -1.396624    3.662096
     46          1           0       -9.306950    4.431543    2.592206
     47          1           0      -12.476696    2.293696   -2.332632
     48          1           0       -8.314055   -4.409237    0.311196
     49          1           0       -5.929090   -2.888903    1.667204
     50          1           0       -6.322227   -4.164583    3.262223
     51          1           0       -7.672220   -5.003817    2.355669
     52          1           0       -7.988429   -3.659068    3.548244
     53          1           0       -6.667082   -4.830159   -1.299437
     54          1           0       -5.661746   -4.613803   -0.048266
     55          1           0       -5.779593   -2.048225   -0.620674
     56          1           0       -6.054860   -2.791803   -2.175683
     57          1           0       -5.442170    1.660451    5.428904
     58          1           0       -5.772581   -0.083459    5.030191
     59          1           0       -6.810355    0.802047    6.171418
     60          1           0       -7.839720    5.695917    4.001698
     61          1           0       -7.873000    5.620441    5.711757
     62          1           0       -9.342533    5.160542    4.959996
     63          1           0      -10.199507    5.619385    0.348165
     64          1           0      -12.412578    4.414680   -1.122456
     65          1           0      -12.949216    4.835429    0.838132
     66          1           0      -11.909111    6.072483    1.798065
     67          1           0      -11.981700    4.426068    2.218957
     68          1           0       -9.830707    3.917237   -2.575901
     69          1           0       -9.877481    5.507402   -1.853113
     70          1           0      -10.977839    6.219911   -3.704880
     71          1           0      -12.355780    5.202361   -3.250046
     72          1           0      -11.108682    4.614017   -4.295858
     73          1           0      -12.913388   -0.735405   -4.498829
     74          1           0      -13.681254    0.554852   -3.364087
     75          1           0      -13.951766   -1.224823   -3.202245
     76          1           0       -9.946275   -4.512963   -1.507667
     77          1           0       -6.437999   -4.610324   -3.916693
     78          1           0       -7.532872   -5.590773   -4.939061
     79          1           0       -6.825305   -6.407439   -3.586685
     80         12           0        9.685257    0.708157   -0.186578
     81          6           0        7.716395   -2.242156    0.923717
     82          6           0        6.693174    1.909879   -1.200096
     83          6           0       11.494691    3.035964   -1.350574
     84          6           0       12.562327   -1.332894    0.293528
     85          7           0        7.504262   -0.121040   -0.173331
     86          6           0        6.962574   -1.215847    0.478699
     87          6           0        5.432706   -1.208382    0.576022
     88          6           0        5.134370   -0.119646   -0.500544
     89          6           0        6.513147    0.628225   -0.669877
     90          6           0        4.625000   -0.638634   -1.808252
     91          6           0        4.806598   -0.961841    1.989568
     92          6           0        3.488605   -1.592020    2.293689
     93          1           0        2.544885   -0.750861    3.147305
     94          7           0        9.167035    2.338563   -1.133628
     95          6           0        7.845023    2.729213   -1.432787
     96          6           0        7.891054    4.072342   -1.934534
     97          6           0        9.301920    4.439799   -1.820080
     98          6           0       10.004372    3.272460   -1.425478
     99          6           0        6.634306    4.941845   -2.309228
    100          6           0        9.864577    5.801945   -2.088955
    101          8           0       11.096267    6.036910   -2.032946
    102          6           0        9.020445    6.986212   -2.389866
    103          7           0       11.699652    0.827442   -0.653495
    104          6           0       12.249960    1.946840   -1.127899
    105          6           0       13.802228    1.871255   -1.288568
    106          6           0       14.080794    0.651494   -0.333294
    107          6           0       12.694281   -0.043189   -0.246546
    108          6           0       14.230139    1.561723   -2.759243
    109          6           0       14.549930    1.111451    1.110680
    110          6           0       15.750989    2.070623    1.247946
    111          7           0       10.098029   -1.335637    0.508367
    112          6           0       11.327194   -1.957250    0.696731
    113          6           0       11.120925   -3.306300    1.169208
    114          6           0        9.733800   -3.443699    1.307082
    115          6           0        9.130656   -2.254107    0.814064
    116          6           0       12.172217   -4.282920    1.577046
    117          6           0        8.685411   -4.364994    1.725408
    118          8           0        8.685480   -5.485670    2.217383
    119          6           0        7.330182   -3.502741    1.548574
    120          6           0        6.429097   -4.344977    0.780852
    121          8           0        6.597826   -4.754116   -0.378637
    122          8           0        5.595362   -4.971623    1.662168
    123          6           0        4.642063   -5.915777    1.174053
    124          1           0        5.685441    2.296649   -1.366503
    125          1           0       12.155571    3.813704   -1.738440
    126          1           0       13.482532   -1.904024    0.435845
    127          1           0        5.084542   -2.173401    0.207139
    128          1           0        4.480171    0.650993   -0.093893
    129          1           0        5.441352   -0.548287   -2.524874
    130          1           0        3.821076    0.002582   -2.169421
    131          1           0        4.276714   -1.670953   -1.835288
    132          1           0        4.638095    0.111278    2.075078
    133          1           0        5.561984   -1.228523    2.728252
    134          1           0        3.759790   -2.492097    2.845066
    135          1           0        3.025966   -2.041395    1.414873
    136          1           0        6.380916    5.731006   -1.601949
    137          1           0        5.764995    4.316893   -2.512005
    138          1           0        6.948415    5.365093   -3.264132
    139          1           0        8.666838    6.900675   -3.417680
    140          1           0        9.678004    7.849213   -2.281751
    141          1           0        8.245260    7.014876   -1.624841
    142          1           0       14.181801    2.838234   -0.956734
    143          1           0       14.793650   -0.084882   -0.703115
    144          1           0       14.728949    2.458091   -3.128615
    145          1           0       13.434703    1.234809   -3.428167
    146          1           0       14.963860    0.768684   -2.608051
    147          1           0       14.862583    0.228446    1.667533
    148          1           0       13.656103    1.481440    1.612643
    149          1           0       15.351813    2.936175    1.776486
    150          1           0       15.987586    2.346591    0.219945
    151          1           0       16.573095    1.635241    1.815801
    152          1           0       13.080319   -3.684093    1.650433
    153          1           0       12.245737   -5.002283    0.761489
    154          1           0       11.934334   -4.841229    2.482458
    155          1           0        6.911328   -3.277675    2.529225
    156          1           0        4.677564   -6.002040    0.087828
    157          1           0        3.671063   -5.500089    1.443535
    158          1           0        4.715819   -6.863525    1.705473
 ---------------------------------------------------------------------

 SCF Done:  E(RPBE1PBE) =  -4067.36481170     A.U. after   17 cycles

 Excitation energies and oscillator strengths:

 Excited State   1:      Singlet-A      1.6789 eV  738.49 nm  f=0.0000  <S**2>=0.000
     312 -> 313        0.70710
 This state for optimization and/or second-order correction.
 Total Energy, E(TD-HF/TD-DFT) =  -4067.30311344
 Copying the excited state density for this state as the 1-particle RhoCI density.

 Excited State   2:      Singlet-A      1.8200 eV  681.23 nm  f=0.3748  <S**2>=0.000
     310 -> 316       -0.15046
     311 -> 313        0.69698
     311 <- 313       -0.12538

 Excited State   3:      Singlet-A      1.8294 eV  677.73 nm  f=0.3458  <S**2>=0.000
     309 -> 315        0.16570
     312 -> 314        0.69185
     312 <- 314       -0.11423

 Excited State   4:      Singlet-A      1.9624 eV  631.78 nm  f=0.0000  <S**2>=0.000
     311 -> 314        0.70708

 Excited State   5:      Singlet-A      2.1896 eV  566.25 nm  f=0.2001  <S**2>=0.000
     310 -> 313        0.67302
     311 -> 316        0.20107

 The electronic state is 1-A.
 Alpha  occ. eigenvalues --  -46.92297 -46.92090 -19.25378 -19.25369 -19.20707
 Alpha  occ. eigenvalues --  -19.20014 -19.19543 -19.19472 -19.18557 -19.17761
 Alpha  occ. eigenvalues --  -14.42013 -14.41635 -14.41537 -14.41054 -14.39374
 Alpha  occ. eigenvalues --  -14.39373 -14.39249 -14.39185 -10.36354 -10.36028
 Alpha  occ. eigenvalues --  -10.33027 -10.32250 -10.31859 -10.31195 -10.29127
 Alpha  occ. eigenvalues --  -10.29086 -10.28769 -10.28739 -10.28619 -10.28563
 Alpha  occ. eigenvalues --  -10.28535 -10.28477 -10.28408 -10.28341 -10.28303
 Alpha  occ. eigenvalues --  -10.28284 -10.28193 -10.27960 -10.27714 -10.27620
 Alpha  occ. eigenvalues --  -10.27198 -10.26822 -10.26683 -10.26612 -10.26448
 Alpha  occ. eigenvalues --  -10.26361 -10.26271 -10.26235 -10.26069 -10.26054
 Alpha  occ. eigenvalues --  -10.26026 -10.25996 -10.25983 -10.25969 -10.25776
 Alpha  occ. eigenvalues --  -10.25724 -10.25702 -10.25487 -10.25482 -10.25421
 Alpha  occ. eigenvalues --  -10.25201 -10.25191 -10.25091 -10.25001 -10.24844
 Alpha  occ. eigenvalues --  -10.24576 -10.24558 -10.24533 -10.24249 -10.24185
 Alpha  occ. eigenvalues --  -10.24178 -10.24152 -10.24092 -10.24022 -10.23744
 Alpha  occ. eigenvalues --  -10.23558 -10.23460 -10.23435 -10.23155 -10.23101
 Alpha  occ. eigenvalues --  -10.23057 -10.23055 -10.23017 -10.22910 -10.22910
 Alpha  occ. eigenvalues --  -10.22834  -3.14534  -3.14311  -1.87343  -1.87113
 Alpha  occ. eigenvalues --   -1.86904  -1.86780  -1.86691  -1.86553  -1.12107
 Alpha  occ. eigenvalues --   -1.11221  -1.05251  -1.04869  -1.04814  -1.03893
 Alpha  occ. eigenvalues --   -1.02246  -1.01707  -0.99635  -0.99338  -0.98808
 Alpha  occ. eigenvalues --   -0.98569  -0.98316  -0.98038  -0.97388  -0.97135
 Alpha  occ. eigenvalues --   -0.87949  -0.87658  -0.84281  -0.83861  -0.83712
 Alpha  occ. eigenvalues --   -0.83101  -0.82821  -0.82346  -0.81968  -0.81773
 Alpha  occ. eigenvalues --   -0.81130  -0.80761  -0.80509  -0.80233  -0.79133
 Alpha  occ. eigenvalues --   -0.78953  -0.78579  -0.78289  -0.77394  -0.77122
 Alpha  occ. eigenvalues --   -0.76338  -0.76020  -0.75452  -0.75276  -0.75071
 Alpha  occ. eigenvalues --   -0.74933  -0.72860  -0.72410  -0.71919  -0.71712
 Alpha  occ. eigenvalues --   -0.71586  -0.71265  -0.70524  -0.70472  -0.69803
 Alpha  occ. eigenvalues --   -0.69633  -0.67739  -0.67292  -0.66215  -0.65336
 Alpha  occ. eigenvalues --   -0.64072  -0.63619  -0.63411  -0.63149  -0.63012
 Alpha  occ. eigenvalues --   -0.62530  -0.61654  -0.61379  -0.60413  -0.60060
 Alpha  occ. eigenvalues --   -0.59747  -0.59562  -0.59476  -0.59188  -0.59030
 Alpha  occ. eigenvalues --   -0.58952  -0.56768  -0.56572  -0.55375  -0.54638
 Alpha  occ. eigenvalues --   -0.54321  -0.54198  -0.53944  -0.53644  -0.53521
 Alpha  occ. eigenvalues --   -0.53291  -0.52877  -0.52818  -0.52331  -0.52135
 Alpha  occ. eigenvalues --   -0.51239  -0.50657  -0.50379  -0.50121  -0.50093
 Alpha  occ. eigenvalues --   -0.49784  -0.49407  -0.49316  -0.49182  -0.48801
 Alpha  occ. eigenvalues --   -0.48710  -0.48209  -0.47820  -0.47730  -0.47689
 Alpha  occ. eigenvalues --   -0.47279  -0.47018  -0.47011  -0.46990  -0.46891
 Alpha  occ. eigenvalues --   -0.46747  -0.46431  -0.46376  -0.46059  -0.45984
 Alpha  occ. eigenvalues --   -0.45891  -0.45744  -0.45660  -0.45511  -0.44864
 Alpha  occ. eigenvalues --   -0.44749  -0.44512  -0.44384  -0.44343  -0.44317
 Alpha  occ. eigenvalues --   -0.44113  -0.44055  -0.44016  -0.43828  -0.43650
 Alpha  occ. eigenvalues --   -0.43546  -0.43420  -0.43325  -0.43197  -0.42966
 Alpha  occ. eigenvalues --   -0.42768  -0.42478  -0.42355  -0.42253  -0.42009
 Alpha  occ. eigenvalues --   -0.41929  -0.41923  -0.41724  -0.41581  -0.41223
 Alpha  occ. eigenvalues --   -0.41216  -0.41028  -0.40863  -0.40822  -0.40723
 Alpha  occ. eigenvalues --   -0.40691  -0.40365  -0.40089  -0.40064  -0.39891
 Alpha  occ. eigenvalues --   -0.39614  -0.39599  -0.39489  -0.39286  -0.39231
 Alpha  occ. eigenvalues --   -0.38965  -0.38825  -0.38759  -0.38533  -0.38467
 Alpha  occ. eigenvalues --   -0.38164  -0.38112  -0.37856  -0.37786  -0.37608
 Alpha  occ. eigenvalues --   -0.37496  -0.37488  -0.37295  -0.37162  -0.37130
 Alpha  occ. eigenvalues --   -0.37008  -0.36844  -0.36821  -0.36367  -0.36189
 Alpha  occ. eigenvalues --   -0.36118  -0.35781  -0.35674  -0.35486  -0.35405
 Alpha  occ. eigenvalues --   -0.34910  -0.34666  -0.34332  -0.34182  -0.34155
 Alpha  occ. eigenvalues --   -0.33572  -0.33526  -0.33074  -0.32968  -0.32734
 Alpha  occ. eigenvalues --   -0.32383  -0.32215  -0.32212  -0.31573  -0.31464
 Alpha  occ. eigenvalues --   -0.30876  -0.30682  -0.30022  -0.29802  -0.29538
 Alpha  occ. eigenvalues --   -0.29070  -0.28792  -0.28641  -0.27183  -0.27125
 Alpha  occ. eigenvalues --   -0.26250  -0.26199  -0.25712  -0.25634  -0.25468
 Alpha  occ. eigenvalues --   -0.25367  -0.25263  -0.24682  -0.21351  -0.21207
 Alpha  occ. eigenvalues --   -0.19272  -0.18828
 Alpha virt. eigenvalues --   -0.11965  -0.11361  -0.05443  -0.04391  -0.04122
 Alpha virt. eigenvalues --   -0.03900  -0.02204  -0.02030  -0.01439  -0.00985
 Alpha virt. eigenvalues --   -0.00454   0.00709   0.00886   0.00975   0.01287

 Mulliken charges:
               1
     1  Mg  12.000000
     2  C    6.000000
     3  C    6.000000
     4  C    6.000000
     5  C    6.000000
     6  N    7.000000
     7  C    6.000000
     8  C    6.000000
     9  C    6.000000
    10  C    6.000000
    11  C    6.000000
    12  C    6.000000
    13  C    6.000000
    14  H    1.000000
    15  N    7.000000
    16  C    6.000000
    17  C    6.000000
    18  C    6.000000
    19  C    6.000000
    20  C    6.000000
    21  C    6.000000
    22  O    8.000000
    23  C    6.000000
    24  N    7.000000
    25  C    6.000000
    26  C    6.000000
    27  C    6.000000
    28  C    6.000000
    29  C    6.000000
    30  C    6.000000
    31  C    6.000000
    32  N    7.000000
    33  C    6.000000
    34  C    6.000000
    35  C    6.000000
    36  C    6.000000
    37  C    6.000000
    38  C    6.000000
    39  O    8.000000
    40  C    6.000000
    41  C    6.000000
    42  O    8.000000
    43  O    8.000000
    44  C    6.000000
    45  H    1.000000
    46  H    1.000000
    47  H    1.000000
    48  H    1.000000
    49  H    1.000000
    50  H    1.000000
    51  H    1.000000
    52  H    1.000000
    53  H    1.000000
    54  H    1.000000
    55  H    1.000000
    56  H    1.000000
    57  H    1.000000
    58  H    1.000000
    59  H    1.000000
    60  H    1.000000
    61  H    1.000000
    62  H    1.000000
    63  H    1.000000
    64  H    1.000000
    65  H    1.000000
    66  H    1.000000
    67  H    1.000000
    68  H    1.000000
    69  H    1.000000
    70  H    1.000000
    71  H    1.000000
    72  H    1.000000
    73  H    1.000000
    74  H    1.000000
    75  H    1.000000
    76  H    1.000000
    77  H    1.000000
    78  H    1.000000
    79  H    1.000000
    80  Mg  12.000000
    81  C    6.000000
    82  C    6.000000
    83  C    6.000000
    84  C    6.000000
    85  N    7.000000
    86  C    6.000000
    87  C    6.000000
    88  C    6.000000
    89  C    6.000000
    90  C    6.000000
    91  C    6.000000
    92  C    6.000000
    93  H    1.000000
    94  N    7.000000
    95  C    6.000000
    96  C    6.000000
    97  C    6.000000
    98  C    6.000000
    99  C    6.000000
   100  C    6.000000
   101  O    8.000000
   102  C    6.000000
   103  N    7.000000
   104  C    6.000000
   105  C    6.000000
   106  C    6.000000
   107  C    6.000000
   108  C    6.000000
   109  C    6.000000
   110  C    6.000000
   111  N    7.000000
   112  C    6.000000
   113  C    6.000000
   114  C    6.000000
   115  C    6.000000
   116  C    6.000000
   117  C    6.000000
   118  O    8.000000
   119  C    6.000000
   120  C    6.000000
   121  O    8.000000
   122  O    8.000000
   123  C    6.000000
   124  H    1.000000
   125  H    1.000000
   126  H    1.000000
   127  H    1.000000
   128  H    1.000000
   129  H    1.000000
   130  H    1.000000
   131  H    1.000000
   132  H    1.000000
   133  H    1.000000
   134  H    1.000000
   135  H    1.000000
   136  H    1.000000
   137  H    1.000000
   138  H    1.000000
   139  H    1.000000
   140  H    1.000000
   141  H    1.000000
   142  H    1.000000
   143  H    1.000000
   144  H    1.000000
   145  H    1.000000
   146  H    1.000000
   147  H    1.000000
   148  H    1.000000
   149  H    1.000000
   150  H    1.000000
   151  H    1.000000
   152  H    1.000000
   153  H    1.000000
   154  H    1.000000
   155  H    1.000000
   156  H    1.000000
   157  H    1.000000
   158  H    1.000000
 Sum of Mulliken charges = 624.00000

 Dipole moment (field-independent basis, Debye):
    X=             -0.0000    Y=              0.0000    Z=              0.0000  Tot=              0.0000
 Quadrupole moment (field-independent basis, Debye-Ang):
   XX=             -0.0000   YY=              0.0000   ZZ=              0.0000
   XY=              0.0000   XZ=             -0.0000   YZ=              0.0000

 Normal termination of Gaussian 16 at Wed Oct 13 22:44:45 2021.
