 Gaussian 16, Revision A.03,
 Gaussian 16:  ES64L-G16RevA.03 25-Dec-2016

 --------------------------------------------------------
 #p PBE1PBE/Def2SVP td=(nstates=5) density=(transition=1)
 --------------------------------------------------------

 --------------------------------
 TDDFT excited states in gaussian
 --------------------------------
 Symbolic Z-matrix:
 Charge =  0 Multiplicity = 1

                         Standard orientation:
 ---------------------------------------------------------------------
 Center     Atomic      Atomic             Coordinates (Angstroms)
 Number     Number       Type             X           Y           Z
 ---------------------------------------------------------------------
      1         12           0      -27.018092    0.480526    0.048195
      2          6           0      -24.998582   -1.918560    1.562626
      3          6           0      -28.828507   -2.028393   -1.455990
      4          6           0      -28.703310    2.927176   -1.556888
      5          6           0      -24.822877    2.985054    1.343599
      6          7           0      -26.824412   -1.685291   -0.008597
      7          6           0      -25.960435   -2.466070    0.695217
      8          6           0      -26.280193   -3.956027    0.517822
      9          6           0      -27.430582   -3.905195   -0.582340
     10          6           0      -27.718604   -2.402943   -0.672709
     11          6           0      -26.969661   -4.470666   -1.920309
     12          6           0      -26.868964   -4.686677    1.776847
     13          6           0      -26.615414   -6.166719    1.899764
     14          1           0      -26.154285   -6.920640    0.733706
     15          7           0      -28.581838    0.446168   -1.221780
     16          6           0      -29.190107   -0.715985   -1.736937
     17          6           0      -30.354113   -0.273861   -2.459196
     18          6           0      -30.393652    1.143348   -2.474589
     19          6           0      -29.186586    1.577846   -1.729275
     20          6           0      -31.228831   -1.205872   -3.270133
     21          6           0      -31.379485    2.081604   -3.033422
     22          8           0      -31.178656    3.272546   -3.141531
     23          6           0      -32.708530    1.547252   -3.680428
     24          7           0      -26.928369    2.720584    0.019598
     25          6           0      -27.707519    3.442623   -0.728927
     26          6           0      -27.351416    4.956458   -0.628751
     27          6           0      -26.180834    5.007942    0.336161
     28          6           0      -25.877351    3.485737    0.579502
     29          6           0      -27.129600    5.576490   -2.088058
     30          6           0      -26.481026    5.825013    1.610590
     31          6           0      -26.015956    7.329112    1.627523
     32          7           0      -25.487842    0.602698    1.369265
     33          6           0      -24.680278    1.681096    1.808451
     34          6           0      -23.690351    1.243018    2.716992
     35          6           0      -23.751758   -0.207217    2.564596
     36          6           0      -24.891955   -0.487094    1.758333
     37          6           0      -22.587948    2.097442    3.315569
     38          6           0      -23.057431   -1.373284    2.970052
     39          8           0      -22.088703   -1.542332    3.699888
     40          6           0      -23.967759   -2.626057    2.351328
     41          6           0      -22.994402   -3.477469    1.590250
     42          8           0      -22.305966   -3.078499    0.645089
     43          8           0      -22.839439   -4.776901    2.157983
     44          6           0      -21.873872   -5.681253    1.458635
     45          1           0      -29.356785   -2.874994   -1.901060
     46          1           0      -29.170638    3.631321   -2.247914
     47          1           0      -24.152795    3.711689    1.806997
     48          1           0      -25.369540   -4.417310    0.135037
     49          1           0      -28.313131   -4.479389   -0.300669
     50          1           0      -26.045799   -5.038174   -1.811758
     51          1           0      -26.899058   -3.709919   -2.698204
     52          1           0      -27.604849   -5.269713   -2.302689
     53          1           0      -27.941077   -4.493908    1.794141
     54          1           0      -26.509587   -4.137680    2.647495
     55          1           0      -27.573912   -6.632582    2.127516
     56          1           0      -25.891605   -6.338022    2.696583
     57          1           0      -31.165462   -1.028532   -4.343688
     58          1           0      -32.252311   -1.108286   -2.905688
     59          1           0      -30.991959   -2.267478   -3.201381
     60          1           0      -32.441744    1.239734   -4.691878
     61          1           0      -33.405163    2.370449   -3.839598
     62          1           0      -33.084590    0.680560   -3.138170
     63          1           0      -28.258317    5.390847   -0.207696
     64          1           0      -25.268821    5.348366   -0.151769
     65          1           0      -26.142313    6.031698   -2.165265
     66          1           0      -27.793079    6.412048   -2.311951
     67          1           0      -27.207577    4.720940   -2.760184
     68          1           0      -25.976821    5.304254    2.425409
     69          1           0      -27.554530    5.746853    1.783222
     70          1           0      -24.976222    7.348263    1.956055
     71          1           0      -26.609150    8.059269    2.178393
     72          1           0      -25.993302    7.537698    0.558439
     73          1           0      -23.067458    2.543478    4.186510
     74          1           0      -22.278083    2.885344    2.630079
     75          1           0      -21.619112    1.615080    3.451351
     76          1           0      -24.450394   -3.149292    3.177720
     77          1           0      -20.858634   -5.287622    1.492586
     78          1           0      -22.066262   -5.940060    0.417090
     79          1           0      -21.935698   -6.540901    2.125929
     80         12           0       26.902949    0.507759    0.004488
     81          6           0       25.545198   -2.218610   -1.510279
     82          6           0       27.819958   -1.382601    2.728918
     83          6           0       28.049455    3.338384    1.465260
     84          6           0       25.526984    2.487921   -2.579586
     85          7           0       26.501352   -1.538947    0.640014
     86          6           0       26.229708   -2.501158   -0.281620
     87          6           0       26.527713   -3.881882    0.196199
     88          6           0       27.028196   -3.543701    1.694923
     89          6           0       27.133419   -2.054059    1.715740
     90          6           0       26.027664   -4.081912    2.815324
     91          6           0       27.696538   -4.498973   -0.704850
     92          6           0       27.806335   -6.024140   -0.763329
     93          1           0       27.086077   -6.990983    0.209268
     94          7           0       27.901271    0.956423    1.786748
     95          6           0       28.163884    0.017143    2.797329
     96          6           0       28.816210    0.726447    3.873460
     97          6           0       28.916105    2.084556    3.508876
     98          6           0       28.314695    2.140144    2.183570
     99          6           0       29.327855   -0.019192    5.128075
    100          6           0       29.474854    3.309314    4.405752
    101          8           0       29.654103    4.445053    3.948112
    102          6           0       29.867375    3.187909    5.868941
    103          7           0       26.844231    2.647234   -0.560477
    104          6           0       27.368134    3.585707    0.263768
    105          6           0       26.965134    4.994921   -0.167325
    106          6           0       26.419008    4.728597   -1.686305
    107          6           0       26.333125    3.194339   -1.703449
    108          6           0       26.000415    5.786891    0.829027
    109          6           0       27.419077    5.121244   -2.888492
    110          6           0       26.911926    5.956210   -4.049862
    111          7           0       25.803270    0.268995   -1.755211
    112          6           0       25.312687    1.116292   -2.676749
    113          6           0       24.664234    0.343011   -3.781809
    114          6           0       24.808014   -0.994069   -3.341341
    115          6           0       25.393012   -0.938482   -2.052682
    116          6           0       24.054307    0.793081   -5.062036
    117          6           0       24.499081   -2.311518   -3.754538
    118          8           0       23.935504   -2.721146   -4.790182
    119          6           0       24.959357   -3.173642   -2.581762
    120          6           0       23.820205   -3.888848   -2.053566
    121          8           0       22.769114   -3.494125   -1.655417
    122          8           0       24.206842   -5.223037   -1.968115
    123          6           0       23.299894   -6.291505   -1.397853
    124          1           0       28.334884   -1.943867    3.510902
    125          1           0       28.334855    4.255200    1.985971
    126          1           0       24.915942    3.039192   -3.296508
    127          1           0       25.757429   -4.651868    0.234864
    128          1           0       28.007192   -3.979794    1.893554
    129          1           0       26.491141   -4.446201    3.731865
    130          1           0       25.338338   -4.795343    2.363980
    131          1           0       25.422132   -3.227146    3.118420
    132          1           0       28.674653   -4.124881   -0.401819
    133          1           0       27.505918   -4.122933   -1.710337
    134          1           0       28.874705   -6.240422   -0.724425
    135          1           0       27.518020   -6.352861   -1.761062
    136          1           0       29.199329   -1.100863    5.090730
    137          1           0       28.802277    0.411194    5.979862
    138          1           0       30.382266    0.234099    5.240745
    139          1           0       30.767890    2.574985    5.857482
    140          1           0       29.208170    2.520637    6.424546
    141          1           0       29.842024    4.164249    6.352471
    142          1           0       27.878265    5.583912   -0.261169
    143          1           0       25.473777    5.244313   -1.856775
    144          1           0       25.073537    6.078655    0.334628
    145          1           0       26.510846    6.663756    1.225727
    146          1           0       25.684081    5.143034    1.650031
    147          1           0       27.927567    4.246934   -3.294578
    148          1           0       28.239281    5.670771   -2.427539
    149          1           0       27.104239    5.377054   -4.952350
    150          1           0       27.371252    6.943157   -4.097647
    151          1           0       25.826851    6.049949   -3.987512
    152          1           0       24.145175    1.860270   -5.263731
    153          1           0       22.987047    0.571103   -5.083348
    154          1           0       24.534270    0.252741   -5.877736
    155          1           0       25.722504   -3.895074   -2.875180
    156          1           0       22.372083   -5.848122   -1.035711
    157          1           0       23.777529   -6.751908   -0.531952
    158          1           0       23.122982   -6.987410   -2.217881
 ---------------------------------------------------------------------

 SCF Done:  E(RPBE1PBE) =  -4067.40554899     A.U. after   16 cycles

 Excitation energies and oscillator strengths:

 Excited State   1:      Singlet-A      1.8459 eV  671.68 nm  f=0.3595  <S**2>=0.000
     309 -> 315       -0.17463
     311 -> 313        0.69231
     311 <- 313       -0.10447
 This state for optimization and/or second-order correction.
 Total Energy, E(TD-HF/TD-DFT) =  -4067.33771448
 Copying the excited state density for this state as the 1-particle RhoCI density.

 Excited State   2:      Singlet-A      1.8923 eV  655.19 nm  f=0.3844  <S**2>=0.000
     310 -> 316        0.18628
     312 -> 314        0.68966
     312 <- 314       -0.10200

 Excited State   3:      Singlet-A      1.8981 eV  653.20 nm  f=0.0000  <S**2>=0.000
     312 -> 313        0.70711

 Excited State   4:      Singlet-A      2.1526 eV  575.96 nm  f=0.0000  <S**2>=0.000
     311 -> 314        0.70711

 Excited State   5:      Singlet-A      2.2119 eV  560.54 nm  f=0.1388  <S**2>=0.000
     309 -> 313        0.66069
     311 -> 315        0.23956

 The electronic state is 1-A.
 Alpha  occ. eigenvalues --  -46.92760 -46.91394 -19.24900 -19.24308 -19.19763
 Alpha  occ. eigenvalues --  -19.19703 -19.19481 -19.19168 -19.18928 -19.18871
 Alpha  occ. eigenvalues --  -14.42132 -14.41985 -14.41198 -14.41128 -14.39727
 Alpha  occ. eigenvalues --  -14.39214 -14.39205 -14.38937 -10.36184 -10.35560
 Alpha  occ. eigenvalues --  -10.33481 -10.32285 -10.31803 -10.31501 -10.29383
 Alpha  occ. eigenvalues --  -10.29081 -10.29078 -10.28998 -10.28797 -10.28767
 Alpha  occ. eigenvalues --  -10.28479 -10.28429 -10.28383 -10.28324 -10.28314
 Alpha  occ. eigenvalues --  -10.27979 -10.27703 -10.27590 -10.27478 -10.27105
 Alpha  occ. eigenvalues --  -10.26885 -10.26848 -10.26495 -10.26369 -10.26309
 Alpha  occ. eigenvalues --  -10.26117 -10.26106 -10.26031 -10.26003 -10.25983
 Alpha  occ. eigenvalues --  -10.25963 -10.25846 -10.25816 -10.25780 -10.25660
 Alpha  occ. eigenvalues --  -10.25624 -10.25524 -10.25479 -10.25437 -10.25403
 Alpha  occ. eigenvalues --  -10.25329 -10.25247 -10.25133 -10.25067 -10.25061
 Alpha  occ. eigenvalues --  -10.24886 -10.24882 -10.24600 -10.24494 -10.24095
 Alpha  occ. eigenvalues --  -10.23995 -10.23956 -10.23924 -10.23746 -10.23680
 Alpha  occ. eigenvalues --  -10.23587 -10.23570 -10.23546 -10.23521 -10.23460
 Alpha  occ. eigenvalues --  -10.23376 -10.23299 -10.23226 -10.22764 -10.22763
 Alpha  occ. eigenvalues --  -10.22356  -3.14752  -3.13667  -1.87613  -1.87108
 Alpha  occ. eigenvalues --   -1.86985  -1.86521  -1.86034  -1.85911  -1.10297
 Alpha  occ. eigenvalues --   -1.08261  -1.05558  -1.04306  -1.03737  -1.02946
 Alpha  occ. eigenvalues --   -1.01970  -1.00737  -1.00180  -0.99794  -0.99085
 Alpha  occ. eigenvalues --   -0.98733  -0.98279  -0.98158  -0.97265  -0.96842
 Alpha  occ. eigenvalues --   -0.87795  -0.86612  -0.83566  -0.83233  -0.82932
 Alpha  occ. eigenvalues --   -0.82647  -0.82490  -0.82023  -0.81823  -0.81741
 Alpha  occ. eigenvalues --   -0.81319  -0.81172  -0.80739  -0.80509  -0.78631
 Alpha  occ. eigenvalues --   -0.78546  -0.77723  -0.77376  -0.76607  -0.76467
 Alpha  occ. eigenvalues --   -0.75802  -0.75721  -0.75433  -0.74651  -0.74593
 Alpha  occ. eigenvalues --   -0.74294  -0.72840  -0.72738  -0.71787  -0.71654
 Alpha  occ. eigenvalues --   -0.71364  -0.71184  -0.70459  -0.70205  -0.69536
 Alpha  occ. eigenvalues --   -0.69408  -0.67647  -0.67010  -0.66429  -0.66050
 Alpha  occ. eigenvalues --   -0.63829  -0.63703  -0.63370  -0.62988  -0.62601
 Alpha  occ. eigenvalues --   -0.62587  -0.61661  -0.60421  -0.60186  -0.59727
 Alpha  occ. eigenvalues --   -0.59698  -0.59647  -0.59476  -0.59236  -0.59053
 Alpha  occ. eigenvalues --   -0.58788  -0.56305  -0.56066  -0.55054  -0.54791
 Alpha  occ. eigenvalues --   -0.54438  -0.54267  -0.53937  -0.53778  -0.53362
 Alpha  occ. eigenvalues --   -0.53234  -0.52870  -0.52417  -0.52295  -0.51875
 Alpha  occ. eigenvalues --   -0.50819  -0.50644  -0.50133  -0.49782  -0.49536
 Alpha  occ. eigenvalues --   -0.49212  -0.48636  -0.48616  -0.48315  -0.47849
 Alpha  occ. eigenvalues --   -0.47720  -0.47674  -0.47480  -0.47372  -0.47326
 Alpha  occ. eigenvalues --   -0.47047  -0.46834  -0.46748  -0.46701  -0.46662
 Alpha  occ. eigenvalues --   -0.46614  -0.46219  -0.46214  -0.46133  -0.45966
 Alpha  occ. eigenvalues --   -0.45760  -0.45360  -0.45283  -0.45103  -0.44665
 Alpha  occ. eigenvalues --   -0.44442  -0.44442  -0.44188  -0.44179  -0.44033
 Alpha  occ. eigenvalues --   -0.43876  -0.43837  -0.43700  -0.43629  -0.43524
 Alpha  occ. eigenvalues --   -0.43162  -0.43027  -0.42922  -0.42858  -0.42771
 Alpha  occ. eigenvalues --   -0.42584  -0.42368  -0.42288  -0.42241  -0.41932
 Alpha  occ. eigenvalues --   -0.41895  -0.41779  -0.41658  -0.41598  -0.41563
 Alpha  occ. eigenvalues --   -0.41271  -0.41148  -0.40932  -0.40849  -0.40492
 Alpha  occ. eigenvalues --   -0.40338  -0.39984  -0.39872  -0.39850  -0.39503
 Alpha  occ. eigenvalues --   -0.39416  -0.39279  -0.39133  -0.39009  -0.38895
 Alpha  occ. eigenvalues --   -0.38825  -0.38760  -0.38731  -0.38725  -0.38517
 Alpha  occ. eigenvalues --   -0.38272  -0.38056  -0.37936  -0.37771  -0.37563
 Alpha  occ. eigenvalues --   -0.37496  -0.37120  -0.37030  -0.36848  -0.36738
 Alpha  occ. eigenvalues --   -0.36631  -0.36490  -0.36454  -0.36199  -0.36141
 Alpha  occ. eigenvalues --   -0.35964  -0.35884  -0.35719  -0.35651  -0.35090
 Alpha  occ. eigenvalues --   -0.35069  -0.34722  -0.34668  -0.34425  -0.34322
 Alpha  occ. eigenvalues --   -0.33603  -0.33388  -0.32806  -0.32782  -0.32541
 Alpha  occ. eigenvalues --   -0.32291  -0.32047  -0.31816  -0.31573  -0.31243
 Alpha  occ. eigenvalues --   -0.31015  -0.30782  -0.29716  -0.29404  -0.29320
 Alpha  occ. eigenvalues --   -0.29188  -0.28656  -0.28577  -0.27002  -0.26791
 Alpha  occ. eigenvalues --   -0.26090  -0.26036  -0.25980  -0.25712  -0.25663
 Alpha  occ. eigenvalues --   -0.25499  -0.25460  -0.25087  -0.21110  -0.20774
 Alpha  occ. eigenvalues --   -0.19142  -0.18758
 Alpha virt. eigenvalues --   -0.11539  -0.10982  -0.05238  -0.05171  -0.04182
 Alpha virt. eigenvalues --   -0.03982  -0.02107  -0.02040  -0.00078  -0.00001
 Alpha virt. eigenvalues --    0.00792   0.01135   0.01318   0.01368   0.01625

 Mulliken charges:
               1
     1  Mg  11.999330
     2  C    6.027628
     3  C    5.999131
     4  C    5.979832
     5  C    5.998436
     6  N    7.016011
     7  C    5.964702
     8  C    6.011634
     9  C    5.987953
    10  C    6.025963
    11  C    5.995928
    12  C    6.002153
    13  C    6.000316
    14  H    0.995825
    15  N    6.991186
    16  C    6.034108
    17  C    6.020425
    18  C    6.017483
    19  C    6.027266
    20  C    5.995631
    21  C    6.009611
    22  O    8.030521
    23  C    5.997963
    24  N    6.992490
    25  C    6.027376
    26  C    5.998371
    27  C    6.003851
    28  C    5.976627
    29  C    5.997552
    30  C    6.003922
    31  C    5.998780
    32  N    7.000228
    33  C    5.968650
    34  C    5.974198
    35  C    5.993885
    36  C    5.971616
    37  C    6.000248
    38  C    5.986132
    39  O    7.968942
    40  C    5.992067
    41  C    5.995696
    42  O    7.996569
    43  O    7.997915
    44  C    6.001533
    45  H    1.013470
    46  H    1.002132
    47  H    0.988058
    48  H    1.002512
    49  H    1.002729
    50  H    1.014418
    51  H    0.997952
    52  H    1.003302
    53  H    0.990496
    54  H    1.007372
    55  H    0.996801
    56  H    1.004175
    57  H    1.017811
    58  H    1.016355
    59  H    1.015836
    60  H    1.008164
    61  H    1.013703
    62  H    1.004602
    63  H    0.996240
    64  H    1.000267
    65  H    1.007481
    66  H    0.999104
    67  H    0.994143
    68  H    1.005616
    69  H    0.990099
    70  H    1.001796
    71  H    0.995210
    72  H    0.994267
    73  H    0.985268
    74  H    0.983801
    75  H    0.987202
    76  H    0.994286
    77  H    0.999609
    78  H    0.993869
    79  H    0.996170
    80  Mg  11.999996
    81  C    5.999962
    82  C    6.000013
    83  C    6.000050
    84  C    5.999993
    85  N    7.000041
    86  C    6.000006
    87  C    5.999996
    88  C    5.999989
    89  C    5.999969
    90  C    6.000006
    91  C    6.000008
    92  C    6.000009
    93  H    1.000015
    94  N    6.999985
    95  C    5.999983
    96  C    5.999952
    97  C    6.000021
    98  C    5.999936
    99  C    6.000013
   100  C    5.999981
   101  O    7.999972
   102  C    6.000015
   103  N    6.999945
   104  C    5.999985
   105  C    6.000035
   106  C    5.999984
   107  C    6.000053
   108  C    5.999992
   109  C    5.999999
   110  C    5.999998
   111  N    7.000027
   112  C    6.000014
   113  C    6.000040
   114  C    5.999974
   115  C    6.000087
   116  C    5.999981
   117  C    6.000020
   118  O    8.000017
   119  C    6.000003
   120  C    5.999989
   121  O    8.000037
   122  O    7.999986
   123  C    5.999992
   124  H    0.999989
   125  H    0.999985
   126  H    1.000008
   127  H    1.000021
   128  H    0.999980
   129  H    0.999996
   130  H    1.000003
   131  H    1.000023
   132  H    0.999991
   133  H    0.999982
   134  H    0.999975
   135  H    0.999987
   136  H    0.999987
   137  H    1.000003
   138  H    0.999966
   139  H    0.999971
   140  H    1.000008
   141  H    0.999985
   142  H    0.999977
   143  H    1.000019
   144  H    1.000016
   145  H    0.999994
   146  H    1.000026
   147  H    0.999983
   148  H    0.999993
   149  H    0.999985
   150  H    0.999990
   151  H    1.000022
   152  H    1.000006
   153  H    1.000046
   154  H    0.999994
   155  H    0.999984
   156  H    1.000036
   157  H    1.000004
   158  H    0.999994
 Sum of Mulliken charges = 624.00000

 Dipole moment (field-independent basis, Debye):
    X=             -8.0017    Y=             -1.1163    Z=             -6.1185  Tot=             10.1345
 Quadrupole moment (field-independent basis, Debye-Ang):
   XX=            431.7344   YY=             -4.2431   ZZ=              0.1650
   XY=             26.8232   XZ=            165.3938   YZ=             -2.7945

 Normal termination of Gaussian 16 at Fri Oct 15 10:33:49 2021.
