 Gaussian 16, Revision A.03,
 Gaussian 16:  ES64L-G16RevA.03 25-Dec-2016

 --------------------------------------------------------
 #p PBE1PBE/Def2SVP td=(nstates=5) density=(transition=1)
 --------------------------------------------------------

 --------------------------------
 TDDFT excited states in gaussian
 --------------------------------
 Symbolic Z-matrix:
 Charge =  0 Multiplicity = 1

                         Standard orientation:
 ---------------------------------------------------------------------
 Center     Atomic      Atomic             Coordinates (Angstroms)
 Number     Number       Type             X           Y           Z
 ---------------------------------------------------------------------
      1         12           0       28.799639    0.442881   -0.159972
      2          6           0       26.570664   -2.251426   -0.006160
      3          6           0       26.444868    2.198119    1.666191
      4          6           0       30.993585    2.949672    0.051217
      5          6           0       31.320040   -1.731381   -1.227938
      6          7           0       26.708893   -0.133175    0.928542
      7          6           0       25.987071   -1.250730    0.718978
      8          6           0       24.648328   -1.244962    1.417090
      9          6           0       24.579480    0.310651    1.661755
     10          6           0       25.986130    0.868169    1.469798
     11          6           0       23.643123    0.970519    0.614566
     12          6           0       24.633287   -2.215886    2.604549
     13          6           0       25.873825   -2.335412    3.514088
     14          1           0       25.610804   -2.260378    5.013446
     15          7           0       28.734720    2.293458    0.709456
     16          6           0       27.631946    2.851460    1.299915
     17          6           0       27.800783    4.309910    1.339161
     18          6           0       29.192813    4.572866    1.019843
     19          6           0       29.681538    3.237808    0.558108
     20          6           0       26.744114    5.274242    2.001895
     21          6           0       29.927062    5.910532    1.140667
     22          8           0       29.326472    6.915442    1.401826
     23          6           0       31.404967    5.981976    0.885393
     24          7           0       30.964547    0.485101   -0.352167
     25          6           0       31.676083    1.698964   -0.327690
     26          6           0       33.207370    1.527050   -0.708342
     27          6           0       33.241901   -0.005169   -1.177070
     28          6           0       31.726848   -0.454990   -0.946412
     29          6           0       33.905639    2.537605   -1.749021
     30          6           0       34.305812   -0.966363   -0.474798
     31          6           0       34.835354   -2.076380   -1.510873
     32          7           0       28.972403   -1.589993   -0.612773
     33          6           0       30.038671   -2.303755   -1.120916
     34          6           0       29.605010   -3.663257   -1.419190
     35          6           0       28.229755   -3.732104   -1.077301
     36          6           0       27.905751   -2.447582   -0.508824
     37          6           0       30.403119   -4.724179   -2.130770
     38          6           0       26.992589   -4.566484   -0.932214
     39          8           0       26.823801   -5.752431   -1.108686
     40          6           0       25.910593   -3.595393   -0.294115
     41          6           0       24.788413   -3.490360   -1.289977
     42          8           0       23.921139   -4.382010   -1.467733
     43          8           0       24.782412   -2.221994   -1.852096
     44          6           0       23.638554   -1.906087   -2.640641
     45          1           0       25.666869    2.782441    2.162085
     46          1           0       31.734653    3.734169   -0.116991
     47          1           0       32.061705   -2.342330   -1.746959
     48          1           0       23.832751   -1.463375    0.727978
     49          1           0       24.235974    0.659322    2.634739
     50          1           0       24.064067    1.957333    0.420421
     51          1           0       22.610758    0.955945    0.961144
     52          1           0       23.625664    0.580452   -0.403585
     53          1           0       24.541119   -3.209631    2.167368
     54          1           0       23.756358   -1.992251    3.212190
     55          1           0       26.549759   -1.508454    3.297882
     56          1           0       26.326748   -3.311062    3.340189
     57          1           0       26.754491    5.292063    3.092039
     58          1           0       25.743910    5.007804    1.660110
     59          1           0       26.781777    6.315865    1.685066
     60          1           0       31.819227    6.953935    1.155300
     61          1           0       31.671930    5.777172   -0.151568
     62          1           0       31.791366    5.287137    1.631517
     63          1           0       33.648521    1.646976    0.280441
     64          1           0       33.412874   -0.081187   -2.250503
     65          1           0       34.314213    3.362855   -1.166977
     66          1           0       33.195268    2.901746   -2.490715
     67          1           0       34.685199    1.995112   -2.284283
     68          1           0       33.834984   -1.572225    0.299299
     69          1           0       35.115665   -0.392910   -0.023133
     70          1           0       34.589592   -3.080976   -1.166411
     71          1           0       35.918288   -1.998037   -1.602316
     72          1           0       34.406615   -2.113210   -2.511743
     73          1           0       31.309269   -4.914334   -1.556584
     74          1           0       30.687369   -4.365372   -3.120224
     75          1           0       29.867654   -5.671019   -2.198627
     76          1           0       25.511407   -4.166459    0.543823
     77          1           0       23.692907   -0.862169   -2.948630
     78          1           0       22.717225   -2.191922   -2.132849
     79          1           0       23.653559   -2.413701   -3.605075
     80         12           0      -29.041309   -0.180675   -0.459686
     81          6           0      -25.675513    0.489205   -0.069680
     82          6           0      -28.462984   -3.329534    0.805443
     83          6           0      -32.439528   -0.648275   -0.278948
     84          6           0      -29.555725    3.022990   -1.609946
     85          7           0      -27.331503   -1.213197    0.460143
     86          6           0      -26.034968   -0.738593    0.431306
     87          6           0      -25.045941   -1.750383    1.003949
     88          6           0      -25.901552   -3.070829    0.954166
     89          6           0      -27.303162   -2.505180    0.777754
     90          6           0      -25.468479   -4.185832   -0.101980
     91          6           0      -24.428033   -1.406277    2.396689
     92          6           0      -22.934517   -1.619975    2.524388
     93          1           0      -22.598433   -2.784776    3.442588
     94          7           0      -30.229309   -1.757565    0.188449
     95          6           0      -29.817328   -2.948808    0.636668
     96          6           0      -30.948143   -3.827559    0.880136
     97          6           0      -32.135548   -3.167976    0.609986
     98          6           0      -31.659511   -1.777977    0.198125
     99          6           0      -30.779429   -5.304793    1.477952
    100          6           0      -33.581525   -3.767661    0.654918
    101          8           0      -33.731544   -4.956558    1.055703
    102          6           0      -34.773860   -2.968256    0.291722
    103          7           0      -30.838258    1.133786   -0.664046
    104          6           0      -32.066631    0.671982   -0.711111
    105          6           0      -33.033801    1.639099   -1.361264
    106          6           0      -32.202890    2.909968   -1.746047
    107          6           0      -30.744732    2.337959   -1.403050
    108          6           0      -34.084100    1.118515   -2.393771
    109          6           0      -32.469812    4.272334   -1.042785
    110          6           0      -31.899023    5.452032   -1.802326
    111          7           0      -27.842469    1.472633   -0.775085
    112          6           0      -28.177183    2.723965   -1.342356
    113          6           0      -26.959492    3.467361   -1.518564
    114          6           0      -25.912918    2.628058   -1.064726
    115          6           0      -26.541874    1.476025   -0.600815
    116          6           0      -26.796540    4.770852   -2.286149
    117          6           0      -24.541669    2.573771   -0.938853
    118          8           0      -23.635619    3.347114   -1.090777
    119          6           0      -24.303008    1.197060   -0.126145
    120          6           0      -24.065246    1.656899    1.311411
    121          8           0      -24.928567    1.970553    2.108204
    122          8           0      -22.693502    1.661767    1.506505
    123          6           0      -22.234364    2.178303    2.791815
    124          1           0      -28.320930   -4.393089    1.007442
    125          1           0      -33.506297   -0.869505   -0.208982
    126          1           0      -29.547551    4.004391   -2.088707
    127          1           0      -24.246708   -1.872920    0.273558
    128          1           0      -25.950860   -3.446375    1.976888
    129          1           0      -26.403404   -4.728635   -0.240764
    130          1           0      -24.800865   -4.948433    0.299828
    131          1           0      -25.046882   -3.834626   -1.043693
    132          1           0      -24.961157   -2.073508    3.074256
    133          1           0      -24.719244   -0.456933    2.845708
    134          1           0      -22.506769   -0.691646    2.903673
    135          1           0      -22.461577   -1.845422    1.568359
    136          1           0      -29.756077   -5.593826    1.721038
    137          1           0      -31.182098   -6.045465    0.786229
    138          1           0      -31.241168   -5.425056    2.456990
    139          1           0      -34.685079   -2.631379   -0.740623
    140          1           0      -34.988975   -2.204868    1.039544
    141          1           0      -35.564869   -3.710673    0.193327
    142          1           0      -33.723327    2.141522   -0.682551
    143          1           0      -32.073654    3.013644   -2.823641
    144          1           0      -34.075535    0.031343   -2.304408
    145          1           0      -33.938652    1.503863   -3.403612
    146          1           0      -35.111264    1.408578   -2.172171
    147          1           0      -32.079796    4.168462   -0.030354
    148          1           0      -33.553991    4.309732   -0.937184
    149          1           0      -32.546286    6.308271   -1.610933
    150          1           0      -31.841690    5.327279   -2.884294
    151          1           0      -30.943994    5.731201   -1.357186
    152          1           0      -25.758447    5.050619   -2.465801
    153          1           0      -27.323163    5.546669   -1.731895
    154          1           0      -27.278738    4.717837   -3.262316
    155          1           0      -23.527973    0.588712   -0.593352
    156          1           0      -22.476167    3.238813    2.864092
    157          1           0      -21.172176    1.992629    2.947423
    158          1           0      -22.792952    1.698693    3.595096
 ---------------------------------------------------------------------

 SCF Done:  E(RPBE1PBE) =  -4067.36767970     A.U. after   17 cycles

 Excitation energies and oscillator strengths:

 Excited State   1:      Singlet-A      1.8858 eV  657.46 nm  f=0.3552  <S**2>=0.000
     310 -> 316        0.14501
     312 -> 314        0.69234
 This state for optimization and/or second-order correction.
 Total Energy, E(TD-HF/TD-DFT) =  -4067.29837812
 Copying the excited state density for this state as the 1-particle RhoCI density.

 Excited State   2:      Singlet-A      1.8968 eV  653.64 nm  f=0.3525  <S**2>=0.000
     309 -> 315        0.18765
     311 -> 313        0.68730

 Excited State   3:      Singlet-A      2.0561 eV  603.01 nm  f=0.0000  <S**2>=0.000
     312 -> 313        0.70711

 Excited State   4:      Singlet-A      2.0979 eV  590.99 nm  f=0.0000  <S**2>=0.000
     311 -> 314        0.70711

 Excited State   5:      Singlet-A      2.2341 eV  554.97 nm  f=0.1052  <S**2>=0.000
     309 -> 313        0.64927
     311 -> 315       -0.26852

 The electronic state is 1-A.
 Alpha  occ. eigenvalues --  -46.93781 -46.92788 -19.26687 -19.25315 -19.20273
 Alpha  occ. eigenvalues --  -19.20267 -19.20070 -19.19875 -19.19103 -19.18468
 Alpha  occ. eigenvalues --  -14.41854 -14.41715 -14.41580 -14.41189 -14.40051
 Alpha  occ. eigenvalues --  -14.39971 -14.39216 -14.38412 -10.37015 -10.36294
 Alpha  occ. eigenvalues --  -10.33824 -10.33072 -10.32315 -10.30937 -10.30479
 Alpha  occ. eigenvalues --  -10.30217 -10.29678 -10.29294 -10.29177 -10.29006
 Alpha  occ. eigenvalues --  -10.28728 -10.28535 -10.28468 -10.28437 -10.28352
 Alpha  occ. eigenvalues --  -10.28114 -10.28051 -10.27841 -10.27701 -10.27498
 Alpha  occ. eigenvalues --  -10.27183 -10.27042 -10.26862 -10.26859 -10.26834
 Alpha  occ. eigenvalues --  -10.26358 -10.26231 -10.26216 -10.26137 -10.26118
 Alpha  occ. eigenvalues --  -10.26045 -10.26011 -10.26010 -10.26009 -10.25825
 Alpha  occ. eigenvalues --  -10.25691 -10.25573 -10.25523 -10.25496 -10.25454
 Alpha  occ. eigenvalues --  -10.25399 -10.25319 -10.25273 -10.25258 -10.25200
 Alpha  occ. eigenvalues --  -10.25131 -10.24556 -10.24549 -10.24529 -10.24521
 Alpha  occ. eigenvalues --  -10.24499 -10.24476 -10.24448 -10.24282 -10.23932
 Alpha  occ. eigenvalues --  -10.23875 -10.23830 -10.23808 -10.23793 -10.23622
 Alpha  occ. eigenvalues --  -10.23596 -10.23515 -10.23450 -10.23336 -10.23113
 Alpha  occ. eigenvalues --  -10.21435  -3.15728  -3.14810  -1.88529  -1.88121
 Alpha  occ. eigenvalues --   -1.87939  -1.87633  -1.87187  -1.87037  -1.11220
 Alpha  occ. eigenvalues --   -1.10361  -1.06136  -1.05519  -1.05030  -1.03478
 Alpha  occ. eigenvalues --   -1.02884  -1.01854  -0.99330  -0.99159  -0.98429
 Alpha  occ. eigenvalues --   -0.98372  -0.97893  -0.97677  -0.97205  -0.96625
 Alpha  occ. eigenvalues --   -0.86880  -0.86228  -0.83469  -0.83267  -0.82755
 Alpha  occ. eigenvalues --   -0.82586  -0.82171  -0.81998  -0.81692  -0.81373
 Alpha  occ. eigenvalues --   -0.80570  -0.80483  -0.80355  -0.79805  -0.79095
 Alpha  occ. eigenvalues --   -0.78644  -0.77928  -0.77657  -0.77227  -0.76862
 Alpha  occ. eigenvalues --   -0.76347  -0.76065  -0.75186  -0.75139  -0.74729
 Alpha  occ. eigenvalues --   -0.74594  -0.71978  -0.71835  -0.71594  -0.71343
 Alpha  occ. eigenvalues --   -0.70924  -0.70919  -0.70706  -0.69745  -0.69649
 Alpha  occ. eigenvalues --   -0.69476  -0.67301  -0.66936  -0.66463  -0.66109
 Alpha  occ. eigenvalues --   -0.64241  -0.64082  -0.63767  -0.63477  -0.62749
 Alpha  occ. eigenvalues --   -0.62476  -0.61606  -0.61536  -0.60336  -0.60019
 Alpha  occ. eigenvalues --   -0.59907  -0.59421  -0.59313  -0.59212  -0.59157
 Alpha  occ. eigenvalues --   -0.58705  -0.58292  -0.56392  -0.54558  -0.54352
 Alpha  occ. eigenvalues --   -0.54143  -0.53871  -0.53563  -0.53456  -0.52985
 Alpha  occ. eigenvalues --   -0.52814  -0.52522  -0.52294  -0.52061  -0.51903
 Alpha  occ. eigenvalues --   -0.50829  -0.50764  -0.50613  -0.50124  -0.50059
 Alpha  occ. eigenvalues --   -0.49689  -0.49624  -0.48829  -0.48715  -0.48341
 Alpha  occ. eigenvalues --   -0.48336  -0.48088  -0.48022  -0.47787  -0.47758
 Alpha  occ. eigenvalues --   -0.47490  -0.47306  -0.47209  -0.46601  -0.46531
 Alpha  occ. eigenvalues --   -0.46197  -0.46166  -0.46015  -0.45738  -0.45702
 Alpha  occ. eigenvalues --   -0.45469  -0.45332  -0.45220  -0.45156  -0.44743
 Alpha  occ. eigenvalues --   -0.44617  -0.44536  -0.44536  -0.44318  -0.44261
 Alpha  occ. eigenvalues --   -0.44116  -0.43973  -0.43740  -0.43591  -0.43374
 Alpha  occ. eigenvalues --   -0.43356  -0.43249  -0.43052  -0.42864  -0.42253
 Alpha  occ. eigenvalues --   -0.42213  -0.42013  -0.41957  -0.41896  -0.41599
 Alpha  occ. eigenvalues --   -0.41580  -0.41337  -0.41257  -0.41070  -0.41033
 Alpha  occ. eigenvalues --   -0.40814  -0.40780  -0.40594  -0.40484  -0.40254
 Alpha  occ. eigenvalues --   -0.40108  -0.40080  -0.40019  -0.39944  -0.39924
 Alpha  occ. eigenvalues --   -0.39610  -0.39569  -0.39436  -0.39022  -0.38873
 Alpha  occ. eigenvalues --   -0.38799  -0.38797  -0.38663  -0.38506  -0.38429
 Alpha  occ. eigenvalues --   -0.38244  -0.38158  -0.37982  -0.37851  -0.37789
 Alpha  occ. eigenvalues --   -0.37628  -0.37497  -0.37376  -0.37186  -0.37176
 Alpha  occ. eigenvalues --   -0.37065  -0.37032  -0.36855  -0.36846  -0.36618
 Alpha  occ. eigenvalues --   -0.36451  -0.36139  -0.35842  -0.35359  -0.35264
 Alpha  occ. eigenvalues --   -0.35091  -0.34891  -0.34828  -0.34184  -0.34181
 Alpha  occ. eigenvalues --   -0.33946  -0.33883  -0.33137  -0.33027  -0.32433
 Alpha  occ. eigenvalues --   -0.32244  -0.32201  -0.31717  -0.31542  -0.31412
 Alpha  occ. eigenvalues --   -0.31365  -0.30475  -0.29786  -0.29640  -0.29442
 Alpha  occ. eigenvalues --   -0.29255  -0.28694  -0.28693  -0.27213  -0.26916
 Alpha  occ. eigenvalues --   -0.26763  -0.26387  -0.26175  -0.26059  -0.25754
 Alpha  occ. eigenvalues --   -0.25439  -0.25301  -0.24928  -0.20972  -0.20861
 Alpha  occ. eigenvalues --   -0.19024  -0.18940
 Alpha virt. eigenvalues --   -0.11153  -0.11087  -0.05530  -0.05467  -0.04122
 Alpha virt. eigenvalues --   -0.03908  -0.02510  -0.02392  -0.01974  -0.00925
 Alpha virt. eigenvalues --   -0.00118   0.00894   0.01152   0.01269   0.01986

 Mulliken charges:
               1
     1  Mg  12.000019
     2  C    5.999910
     3  C    6.000021
     4  C    6.000207
     5  C    5.999990
     6  N    6.999891
     7  C    6.000254
     8  C    5.999924
     9  C    6.000042
    10  C    5.999771
    11  C    6.000036
    12  C    5.999965
    13  C    5.999938
    14  H    1.000091
    15  N    7.000055
    16  C    5.999660
    17  C    5.999785
    18  C    5.999895
    19  C    5.999676
    20  C    6.000037
    21  C    5.999858
    22  O    7.999798
    23  C    6.000018
    24  N    7.000056
    25  C    5.999607
    26  C    6.000105
    27  C    5.999930
    28  C    6.000244
    29  C    6.000009
    30  C    5.999962
    31  C    5.999983
    32  N    6.999976
    33  C    6.000331
    34  C    6.000299
    35  C    6.000019
    36  C    6.000258
    37  C    5.999992
    38  C    6.000226
    39  O    8.000285
    40  C    5.999993
    41  C    6.000006
    42  O    8.000062
    43  O    8.000010
    44  C    5.999981
    45  H    0.999864
    46  H    0.999954
    47  H    1.000114
    48  H    0.999995
    49  H    0.999995
    50  H    1.000083
    51  H    0.999888
    52  H    0.999862
    53  H    0.999945
    54  H    1.000061
    55  H    1.000092
    56  H    0.999939
    57  H    0.999795
    58  H    0.999808
    59  H    0.999831
    60  H    0.999876
    61  H    0.999895
    62  H    0.999934
    63  H    1.000008
    64  H    1.000016
    65  H    1.000045
    66  H    0.999986
    67  H    0.999925
    68  H    0.999995
    69  H    1.000128
    70  H    0.999969
    71  H    1.000083
    72  H    0.999976
    73  H    1.000205
    74  H    1.000205
    75  H    1.000153
    76  H    1.000081
    77  H    1.000071
    78  H    1.000036
    79  H    1.000014
    80  Mg  12.001065
    81  C    5.990350
    82  C    6.012963
    83  C    6.012506
    84  C    5.990578
    85  N    6.997392
    86  C    6.024147
    87  C    5.991396
    88  C    6.008505
    89  C    5.966898
    90  C    6.000751
    91  C    5.994901
    92  C    5.997629
    93  H    1.008936
    94  N    7.005033
    95  C    5.968879
    96  C    5.976784
    97  C    5.991538
    98  C    5.964472
    99  C    6.001816
   100  C    5.988400
   101  O    7.980763
   102  C    6.003771
   103  N    6.995823
   104  C    5.968667
   105  C    6.015376
   106  C    5.995760
   107  C    6.031714
   108  C    6.000573
   109  C    5.995216
   110  C    5.997921
   111  N    7.001293
   112  C    6.037431
   113  C    6.026038
   114  C    6.004806
   115  C    6.020960
   116  C    6.000720
   117  C    6.015903
   118  O    8.030183
   119  C    6.001818
   120  C    6.001856
   121  O    8.006588
   122  O    8.001612
   123  C    5.997682
   124  H    0.992576
   125  H    0.993017
   126  H    1.005170
   127  H    0.998508
   128  H    1.000238
   129  H    1.006055
   130  H    0.993477
   131  H    0.989622
   132  H    1.010196
   133  H    0.997236
   134  H    0.996637
   135  H    1.000037
   136  H    0.983033
   137  H    0.985327
   138  H    0.984118
   139  H    0.991492
   140  H    0.990953
   141  H    0.988729
   142  H    0.992372
   143  H    0.997890
   144  H    1.006281
   145  H    0.991484
   146  H    0.996970
   147  H    1.002505
   148  H    1.010108
   149  H    1.004362
   150  H    1.000831
   151  H    0.993696
   152  H    1.011857
   153  H    1.016880
   154  H    1.018304
   155  H    1.010947
   156  H    1.000589
   157  H    1.005198
   158  H    1.005893
 Sum of Mulliken charges = 624.00000

 Dipole moment (field-independent basis, Debye):
    X=              6.1263    Y=              7.5863    Z=             -2.0632  Tot=              9.9670
 Quadrupole moment (field-independent basis, Debye-Ang):
   XX=           -351.9264   YY=             -3.2740   ZZ=              2.5117
   XY=           -226.6780   XZ=             58.0789   YZ=             -2.0985

 Normal termination of Gaussian 16 at Thu Oct 14 22:51:02 2021.
