 Gaussian 16, Revision A.03,
 Gaussian 16:  ES64L-G16RevA.03 25-Dec-2016

 --------------------------------------------------------
 #p PBE1PBE/Def2SVP td=(nstates=5) density=(transition=1)
 --------------------------------------------------------

 --------------------------------
 TDDFT excited states in gaussian
 --------------------------------
 Symbolic Z-matrix:
 Charge =  0 Multiplicity = 1

                         Standard orientation:
 ---------------------------------------------------------------------
 Center     Atomic      Atomic             Coordinates (Angstroms)
 Number     Number       Type             X           Y           Z
 ---------------------------------------------------------------------
      1         12           0      -22.534192    0.549939    0.188097
      2          6           0      -21.736121   -2.440375   -1.223356
      3          6           0      -21.043563    2.245969   -2.407745
      4          6           0      -23.235855    3.443629    1.798996
      5          6           0      -23.620995   -1.218668    3.048630
      6          7           0      -21.305242   -0.046360   -1.511399
      7          6           0      -21.415703   -1.298387   -2.030317
      8          6           0      -20.979534   -1.391879   -3.453178
      9          6           0      -20.520072    0.138636   -3.692849
     10          6           0      -20.978445    0.852649   -2.463776
     11          6           0      -18.945740    0.283246   -3.908717
     12          6           0      -22.239506   -1.791205   -4.354205
     13          6           0      -21.954790   -2.446909   -5.707202
     14          1           0      -20.566621   -2.467992   -6.394255
     15          7           0      -22.299859    2.582470   -0.245843
     16          6           0      -21.626480    3.071055   -1.377361
     17          6           0      -21.637461    4.512608   -1.285154
     18          6           0      -22.293970    4.872486   -0.090647
     19          6           0      -22.675698    3.597583    0.501066
     20          6           0      -21.050404    5.390566   -2.414918
     21          6           0      -22.481463    6.356702    0.524633
     22          8           0      -23.195498    6.586617    1.508889
     23          6           0      -21.842330    7.608692   -0.053090
     24          7           0      -23.401970    1.020993    2.169273
     25          6           0      -23.532663    2.308592    2.568765
     26          6           0      -23.869564    2.400101    4.056131
     27          6           0      -24.326484    0.863605    4.383064
     28          6           0      -23.868468    0.142213    3.105789
     29          6           0      -22.748937    3.045613    4.993216
     30          6           0      -25.912328    0.592989    4.489994
     31          6           0      -26.468998   -0.172750    5.676127
     32          7           0      -22.734660   -1.422391    0.845798
     33          6           0      -23.159550   -1.991674    1.987377
     34          6           0      -23.152348   -3.481305    1.843991
     35          6           0      -22.635959   -3.657882    0.538376
     36          6           0      -22.293868   -2.370440    0.057315
     37          6           0      -23.604098   -4.554252    2.770415
     38          6           0      -22.312606   -4.693845   -0.369406
     39          8           0      -22.421788   -5.931808   -0.253209
     40          6           0      -21.706908   -3.953558   -1.559205
     41          6           0      -20.346665   -4.404379   -1.745427
     42          8           0      -19.424569   -4.429765   -0.991626
     43          8           0      -20.229749   -4.735069   -3.092210
     44          6           0      -18.923148   -5.196690   -3.699726
     45          1           0      -20.797963    2.844677   -3.286890
     46          1           0      -23.369977    4.376233    2.351631
     47          1           0      -23.752513   -1.817857    3.951361
     48          1           0      -20.179901   -2.064557   -3.762695
     49          1           0      -21.010984    0.567490   -4.566436
     50          1           0      -18.631166    1.045878   -4.620757
     51          1           0      -18.522286   -0.700514   -4.110633
     52          1           0      -18.534705    0.597813   -2.948895
     53          1           0      -22.879320   -0.930628   -4.550488
     54          1           0      -22.814723   -2.486558   -3.742360
     55          1           0      -22.668276   -2.001834   -6.401862
     56          1           0      -22.266705   -3.489468   -5.657862
     57          1           0      -20.692468    4.830270   -3.278559
     58          1           0      -20.249768    5.977777   -1.966398
     59          1           0      -21.832045    6.089577   -2.713338
     60          1           0      -22.357319    7.762735   -1.000607
     61          1           0      -20.834776    7.428512   -0.428420
     62          1           0      -21.783923    8.390610    0.703796
     63          1           0      -24.761580    3.020019    4.153774
     64          1           0      -23.864380    0.506994    5.303811
     65          1           0      -22.440432    2.352916    5.776577
     66          1           0      -23.116047    3.973418    5.430492
     67          1           0      -21.839456    3.241830    4.424875
     68          1           0      -26.309324    0.144980    3.579187
     69          1           0      -26.383965    1.575203    4.487552
     70          1           0      -27.013729   -1.022308    5.265752
     71          1           0      -27.100235    0.439057    6.319991
     72          1           0      -25.648557   -0.601751    6.253100
     73          1           0      -24.077079   -4.200798    3.686488
     74          1           0      -22.765030   -5.175988    3.083758
     75          1           0      -24.319641   -5.183475    2.241476
     76          1           0      -22.264367   -4.127582   -2.480022
     77          1           0      -18.127680   -5.169631   -2.954697
     78          1           0      -18.624864   -4.507794   -4.491142
     79          1           0      -19.111867   -6.210104   -4.053854
     80         12           0       22.641168    0.431733   -0.289879
     81          6           0       21.011227   -2.510034    0.594828
     82          6           0       19.569060    1.711504   -1.263542
     83          6           0       23.950812    3.444623   -0.653935
     84          6           0       25.541065   -0.766856    1.170432
     85          7           0       20.524865   -0.239160   -0.182809
     86          6           0       20.114620   -1.529119    0.084772
     87          6           0       18.662592   -1.753106   -0.218132
     88          6           0       18.336506   -0.509996   -1.158153
     89          6           0       19.506892    0.411430   -0.841246
     90          6           0       17.940636   -0.690537   -2.700160
     91          6           0       17.716700   -1.935206    1.057853
     92          6           0       18.095999   -1.164004    2.357014
     93          1           0       16.920544   -0.555647    3.083519
     94          7           0       21.851021    2.360442   -0.766612
     95          6           0       20.541946    2.670641   -1.155608
     96          6           0       20.378026    4.081028   -1.378274
     97          6           0       21.665017    4.636268   -1.182201
     98          6           0       22.571059    3.504379   -0.824615
     99          6           0       19.086824    4.618962   -1.997029
    100          6           0       21.938568    6.145203   -1.375639
    101          8           0       21.032800    6.950292   -1.614756
    102          6           0       23.349249    6.556670   -1.313921
    103          7           0       24.459460    1.199806    0.324374
    104          6           0       24.847402    2.417261   -0.209277
    105          6           0       26.344057    2.724831    0.016854
    106          6           0       26.726667    1.415338    0.821230
    107          6           0       25.519475    0.587278    0.825226
    108          6           0       27.231315    2.968294   -1.162951
    109          6           0       27.168517    1.718742    2.341474
    110          6           0       28.423127    0.966833    2.702127
    111          7           0       23.285580   -1.370885    0.533262
    112          6           0       24.505417   -1.708779    1.089433
    113          6           0       24.459958   -3.099066    1.597219
    114          6           0       23.079708   -3.460726    1.415789
    115          6           0       22.447777   -2.383137    0.784313
    116          6           0       25.443013   -3.861588    2.389061
    117          6           0       22.019577   -4.462429    1.657616
    118          8           0       22.078254   -5.510784    2.257530
    119          6           0       20.667130   -3.907971    1.105080
    120          6           0       20.096400   -4.839034    0.130966
    121          8           0       19.034002   -5.460803    0.157993
    122          8           0       21.132454   -5.159268   -0.785146
    123          6           0       20.742694   -6.053119   -1.896643
    124          1           0       18.648895    1.980554   -1.787367
    125          1           0       24.535191    4.328725   -0.916770
    126          1           0       26.522150   -1.074051    1.536996
    127          1           0       18.531026   -2.687277   -0.764019
    128          1           0       17.459559   -0.107809   -0.650272
    129          1           0       17.816414   -1.718230   -3.041045
    130          1           0       18.687973   -0.305144   -3.393623
    131          1           0       16.933567   -0.303837   -2.858691
    132          1           0       17.569521   -2.992133    1.277546
    133          1           0       16.723392   -1.616600    0.741830
    134          1           0       18.835508   -0.391404    2.144291
    135          1           0       18.560922   -1.846473    3.067946
    136          1           0       18.834107    5.630737   -1.678367
    137          1           0       18.245842    4.024995   -1.640140
    138          1           0       19.251291    4.611952   -3.074786
    139          1           0       23.858799    6.177448   -2.199225
    140          1           0       23.797468    6.196934   -0.387220
    141          1           0       23.324635    7.646091   -1.337907
    142          1           0       26.403182    3.512808    0.768015
    143          1           0       27.414796    0.916690    0.138669
    144          1           0       28.250114    2.948772   -0.775603
    145          1           0       27.065546    3.998495   -1.478143
    146          1           0       27.026570    2.243158   -1.951472
    147          1           0       26.315317    1.455035    2.966326
    148          1           0       27.285941    2.765398    2.625069
    149          1           0       28.153558    0.196761    3.424516
    150          1           0       29.099261    1.559193    3.319508
    151          1           0       28.803609    0.441883    1.826145
    152          1           0       26.379758   -3.346746    2.607600
    153          1           0       25.712326   -4.722502    1.778167
    154          1           0       24.916749   -3.925026    3.341279
    155          1           0       20.032014   -3.815178    1.985744
    156          1           0       21.199641   -5.556856   -2.753577
    157          1           0       19.693864   -6.236323   -2.130249
    158          1           0       21.369464   -6.935202   -1.764230
 ---------------------------------------------------------------------

 SCF Done:  E(RPBE1PBE) =  -4067.37664177     A.U. after   16 cycles

 Excitation energies and oscillator strengths:

 Excited State   1:      Singlet-A      1.8711 eV  662.63 nm  f=0.3467  <S**2>=0.000
     309 -> 315        0.17703
     311 -> 313        0.68984
     311 <- 313       -0.10397
 This state for optimization and/or second-order correction.
 Total Energy, E(TD-HF/TD-DFT) =  -4067.30788037
 Copying the excited state density for this state as the 1-particle RhoCI density.

 Excited State   2:      Singlet-A      1.8923 eV  655.19 nm  f=0.3944  <S**2>=0.000
     310 -> 316        0.18624
     312 -> 314        0.68956
     312 <- 314       -0.10198

 Excited State   3:      Singlet-A      1.9868 eV  624.04 nm  f=0.0000  <S**2>=0.000
     312 -> 313        0.70711

 Excited State   4:      Singlet-A      2.0662 eV  600.06 nm  f=0.0000  <S**2>=0.000
     311 -> 314        0.70711

 Excited State   5:      Singlet-A      2.2140 eV  560.01 nm  f=0.0898  <S**2>=0.000
     309 -> 313        0.64344
     311 -> 315       -0.27380

 The electronic state is 1-A.
 Alpha  occ. eigenvalues --  -46.92760 -46.92495 -19.25013 -19.24309 -19.20757
 Alpha  occ. eigenvalues --  -19.19704 -19.19482 -19.19176 -19.19106 -19.18928
 Alpha  occ. eigenvalues --  -14.41985 -14.41751 -14.41682 -14.41128 -14.39244
 Alpha  occ. eigenvalues --  -14.39214 -14.38938 -14.38886 -10.36736 -10.35561
 Alpha  occ. eigenvalues --  -10.33481 -10.32349 -10.32173 -10.31502 -10.29384
 Alpha  occ. eigenvalues --  -10.29329 -10.29079 -10.28962 -10.28523 -10.28430
 Alpha  occ. eigenvalues --  -10.28325 -10.28265 -10.28251 -10.27980 -10.27953
 Alpha  occ. eigenvalues --  -10.27900 -10.27704 -10.27591 -10.27479 -10.26924
 Alpha  occ. eigenvalues --  -10.26717 -10.26497 -10.26467 -10.26370 -10.26344
 Alpha  occ. eigenvalues --  -10.26309 -10.26292 -10.26119 -10.26107 -10.26034
 Alpha  occ. eigenvalues --  -10.26032 -10.25984 -10.25981 -10.25919 -10.25877
 Alpha  occ. eigenvalues --  -10.25816 -10.25735 -10.25661 -10.25568 -10.25524
 Alpha  occ. eigenvalues --  -10.25330 -10.25068 -10.25062 -10.24950 -10.24887
 Alpha  occ. eigenvalues --  -10.24851 -10.24762 -10.24600 -10.24542 -10.24424
 Alpha  occ. eigenvalues --  -10.24361 -10.23996 -10.23957 -10.23747 -10.23693
 Alpha  occ. eigenvalues --  -10.23682 -10.23622 -10.23570 -10.23547 -10.23521
 Alpha  occ. eigenvalues --  -10.23345 -10.23275 -10.23218 -10.23209 -10.22763
 Alpha  occ. eigenvalues --  -10.22357  -3.14752  -3.14601  -1.87614  -1.87426
 Alpha  occ. eigenvalues --   -1.87109  -1.86991  -1.86986  -1.86816  -1.10298
 Alpha  occ. eigenvalues --   -1.09538  -1.05184  -1.04307  -1.04028  -1.02947
 Alpha  occ. eigenvalues --   -1.01971  -1.01722  -1.00181  -0.99688  -0.99085
 Alpha  occ. eigenvalues --   -0.98358  -0.98280  -0.97844  -0.97265  -0.96964
 Alpha  occ. eigenvalues --   -0.87796  -0.86823  -0.83956  -0.83519  -0.82933
 Alpha  occ. eigenvalues --   -0.82491  -0.82280  -0.81951  -0.81824  -0.81320
 Alpha  occ. eigenvalues --   -0.81248  -0.81172  -0.80509  -0.80435  -0.79038
 Alpha  occ. eigenvalues --   -0.78765  -0.78632  -0.77723  -0.76953  -0.76608
 Alpha  occ. eigenvalues --   -0.76578  -0.75803  -0.75434  -0.75192  -0.74652
 Alpha  occ. eigenvalues --   -0.74498  -0.72738  -0.72689  -0.71788  -0.71781
 Alpha  occ. eigenvalues --   -0.71365  -0.71095  -0.70509  -0.70460  -0.70096
 Alpha  occ. eigenvalues --   -0.69537  -0.67114  -0.67010  -0.66580  -0.66430
 Alpha  occ. eigenvalues --   -0.63748  -0.63703  -0.63665  -0.62989  -0.62602
 Alpha  occ. eigenvalues --   -0.62584  -0.61247  -0.60865  -0.60421  -0.59698
 Alpha  occ. eigenvalues --   -0.59648  -0.59370  -0.59076  -0.59053  -0.58789
 Alpha  occ. eigenvalues --   -0.58547  -0.57073  -0.56306  -0.55055  -0.54795
 Alpha  occ. eigenvalues --   -0.54439  -0.53981  -0.53778  -0.53542  -0.53363
 Alpha  occ. eigenvalues --   -0.52893  -0.52871  -0.52295  -0.52115  -0.51773
 Alpha  occ. eigenvalues --   -0.50892  -0.50644  -0.50362  -0.50134  -0.49906
 Alpha  occ. eigenvalues --   -0.49783  -0.49639  -0.49113  -0.48637  -0.48379
 Alpha  occ. eigenvalues --   -0.48316  -0.47675  -0.47607  -0.47481  -0.47327
 Alpha  occ. eigenvalues --   -0.47258  -0.47028  -0.46720  -0.46702  -0.46615
 Alpha  occ. eigenvalues --   -0.46492  -0.46259  -0.46219  -0.46134  -0.45967
 Alpha  occ. eigenvalues --   -0.45719  -0.45389  -0.45360  -0.45103  -0.45060
 Alpha  occ. eigenvalues --   -0.44787  -0.44442  -0.44299  -0.44208  -0.44180
 Alpha  occ. eigenvalues --   -0.44033  -0.43881  -0.43700  -0.43525  -0.43487
 Alpha  occ. eigenvalues --   -0.43185  -0.42942  -0.42922  -0.42789  -0.42771
 Alpha  occ. eigenvalues --   -0.42584  -0.42404  -0.42289  -0.41932  -0.41898
 Alpha  occ. eigenvalues --   -0.41645  -0.41599  -0.41271  -0.41245  -0.41149
 Alpha  occ. eigenvalues --   -0.40979  -0.40933  -0.40926  -0.40850  -0.40462
 Alpha  occ. eigenvalues --   -0.40338  -0.40149  -0.39889  -0.39873  -0.39805
 Alpha  occ. eigenvalues --   -0.39705  -0.39514  -0.39417  -0.39409  -0.39134
 Alpha  occ. eigenvalues --   -0.39010  -0.38760  -0.38734  -0.38732  -0.38517
 Alpha  occ. eigenvalues --   -0.38276  -0.38056  -0.37951  -0.37835  -0.37687
 Alpha  occ. eigenvalues --   -0.37497  -0.37328  -0.37121  -0.36999  -0.36779
 Alpha  occ. eigenvalues --   -0.36632  -0.36599  -0.36523  -0.36455  -0.36141
 Alpha  occ. eigenvalues --   -0.36094  -0.35965  -0.35884  -0.35652  -0.35330
 Alpha  occ. eigenvalues --   -0.35069  -0.34867  -0.34668  -0.34323  -0.34057
 Alpha  occ. eigenvalues --   -0.33516  -0.33388  -0.32963  -0.32782  -0.32543
 Alpha  occ. eigenvalues --   -0.32441  -0.31954  -0.31817  -0.31601  -0.31574
 Alpha  occ. eigenvalues --   -0.31015  -0.30562  -0.30305  -0.29709  -0.29404
 Alpha  occ. eigenvalues --   -0.29321  -0.28888  -0.28656  -0.26915  -0.26792
 Alpha  occ. eigenvalues --   -0.26091  -0.25980  -0.25889  -0.25748  -0.25664
 Alpha  occ. eigenvalues --   -0.25532  -0.25461  -0.25343  -0.21002  -0.20775
 Alpha  occ. eigenvalues --   -0.18869  -0.18759
 Alpha virt. eigenvalues --   -0.11163  -0.10983  -0.05714  -0.05172  -0.04183
 Alpha virt. eigenvalues --   -0.03533  -0.02108  -0.01957  -0.01116  -0.00503
 Alpha virt. eigenvalues --   -0.00077   0.00791   0.00797   0.01367   0.01625

 Mulliken charges:
               1
     1  Mg  12.000009
     2  C    6.000353
     3  C    5.999733
     4  C    5.999698
     5  C    6.000105
     6  N    7.000009
     7  C    5.999366
     8  C    6.000277
     9  C    5.999743
    10  C    6.000634
    11  C    5.999961
    12  C    6.000080
    13  C    6.000023
    14  H    0.999927
    15  N    6.999943
    16  C    6.000774
    17  C    6.000156
    18  C    6.000373
    19  C    6.000418
    20  C    5.999970
    21  C    6.000200
    22  O    8.000459
    23  C    5.999946
    24  N    6.999975
    25  C    6.000533
    26  C    5.999820
    27  C    6.000192
    28  C    5.999517
    29  C    5.999960
    30  C    6.000141
    31  C    5.999976
    32  N    7.000068
    33  C    5.999433
    34  C    5.999457
    35  C    5.999958
    36  C    5.999531
    37  C    6.000114
    38  C    5.999662
    39  O    7.999482
    40  C    6.000022
    41  C    5.999958
    42  O    7.999932
    43  O    7.999970
    44  C    6.000034
    45  H    1.000197
    46  H    1.000105
    47  H    0.999819
    48  H    0.999952
    49  H    1.000053
    50  H    1.000047
    51  H    1.000257
    52  H    1.000023
    53  H    0.999806
    54  H    1.000118
    55  H    0.999923
    56  H    1.000023
    57  H    1.000311
    58  H    1.000310
    59  H    1.000276
    60  H    1.000127
    61  H    1.000144
    62  H    1.000250
    63  H    0.999982
    64  H    0.999928
    65  H    1.000164
    66  H    1.000003
    67  H    0.999947
    68  H    1.000007
    69  H    0.999787
    70  H    1.000025
    71  H    0.999897
    72  H    1.000003
    73  H    0.999667
    74  H    0.999651
    75  H    0.999688
    76  H    0.999840
    77  H    0.999945
    78  H    0.999909
    79  H    0.999927
    80  Mg  12.001830
    81  C    5.979334
    82  C    6.009877
    83  C    6.028212
    84  C    5.992004
    85  N    6.993654
    86  C    6.031761
    87  C    5.989284
    88  C    6.011495
    89  C    5.968628
    90  C    6.003882
    91  C    5.997631
    92  C    5.995933
    93  H    1.007410
    94  N    7.005110
    95  C    5.961936
    96  C    5.980951
    97  C    5.987629
    98  C    5.963156
    99  C    6.002178
   100  C    5.986589
   101  O    7.981040
   102  C    6.004212
   103  N    7.002088
   104  C    5.959989
   105  C    6.015763
   106  C    5.988330
   107  C    6.033546
   108  C    6.002731
   109  C    5.995783
   110  C    6.000011
   111  N    6.999019
   112  C    6.032691
   113  C    6.031138
   114  C    6.003375
   115  C    6.027655
   116  C    5.998076
   117  C    6.016026
   118  O    8.026435
   119  C    6.001505
   120  C    6.007377
   121  O    8.009189
   122  O    7.993954
   123  C    5.997798
   124  H    0.988002
   125  H    0.994222
   126  H    1.011194
   127  H    0.999534
   128  H    0.995056
   129  H    0.986634
   130  H    1.000224
   131  H    0.997046
   132  H    0.995895
   133  H    1.008104
   134  H    1.007068
   135  H    0.993204
   136  H    0.985508
   137  H    0.985659
   138  H    0.982936
   139  H    0.991027
   140  H    0.990164
   141  H    0.987708
   142  H    0.998642
   143  H    1.001007
   144  H    0.991411
   145  H    1.005207
   146  H    0.995596
   147  H    0.999850
   148  H    1.012148
   149  H    0.996309
   150  H    1.005398
   151  H    1.000486
   152  H    1.017496
   153  H    1.017015
   154  H    1.015389
   155  H    1.006567
   156  H    1.004871
   157  H    1.006362
   158  H    1.000846
 Sum of Mulliken charges = 624.00000

 Dipole moment (field-independent basis, Debye):
    X=              3.6669    Y=             -8.4158    Z=              3.6692  Tot=              9.8861
 Quadrupole moment (field-independent basis, Debye-Ang):
   XX=            162.9873   YY=             -8.0625   ZZ=              0.8769
   XY=           -193.5220   XZ=             84.4072   YZ=              1.7158

 Normal termination of Gaussian 16 at Thu Oct 14 19:09:40 2021.
