 Gaussian 16, Revision A.03,
 Gaussian 16:  ES64L-G16RevA.03 25-Dec-2016

 --------------------------------------------------------
 #p PBE1PBE/Def2SVP td=(nstates=5) density=(transition=1)
 --------------------------------------------------------

 --------------------------------
 TDDFT excited states in gaussian
 --------------------------------
 Symbolic Z-matrix:
 Charge =  0 Multiplicity = 1

                         Standard orientation:
 ---------------------------------------------------------------------
 Center     Atomic      Atomic             Coordinates (Angstroms)
 Number     Number       Type             X           Y           Z
 ---------------------------------------------------------------------
      1         12           0       -9.024933    0.301051   -0.123911
      2          6           0       -7.027911   -2.322811   -0.993914
      3          6           0      -10.514900   -1.757857    2.336741
      4          6           0      -11.161837    2.773796    0.605751
      5          6           0       -7.459724    2.225128   -2.500217
      6          7           0       -9.031979   -1.862581    0.384249
      7          6           0       -8.014932   -2.720917   -0.052711
      8          6           0       -8.112210   -4.123372    0.611827
      9          6           0       -9.283829   -3.846277    1.590971
     10          6           0       -9.702976   -2.400243    1.396985
     11          6           0      -10.562446   -4.786608    1.645157
     12          6           0       -6.807833   -4.658246    1.351462
     13          6           0       -7.039213   -6.047350    2.004406
     14          1           0       -6.321732   -7.184368    1.275532
     15          7           0      -10.621998    0.491618    1.348586
     16          6           0      -10.877598   -0.385150    2.380902
     17          6           0      -12.004611    0.182891    3.111363
     18          6           0      -12.188295    1.503869    2.589807
     19          6           0      -11.300329    1.667907    1.482165
     20          6           0      -12.650133   -0.563021    4.214782
     21          6           0      -13.312748    2.474590    3.093683
     22          8           0      -13.621454    3.535258    2.513498
     23          6           0      -14.139102    2.107025    4.298475
     24          7           0       -9.282021    2.109393   -0.822051
     25          6           0      -10.278275    3.020917   -0.372181
     26          6           0      -10.393078    4.202348   -1.308628
     27          6           0       -8.986345    4.202250   -1.903852
     28          6           0       -8.488644    2.777707   -1.704637
     29          6           0      -11.512252    4.020721   -2.388310
     30          6           0       -8.021531    5.151909   -1.159160
     31          6           0       -7.989768    6.601912   -1.561612
     32          7           0       -7.556818    0.092028   -1.556207
     33          6           0       -6.910531    0.968135   -2.342240
     34          6           0       -5.905657    0.278660   -3.096357
     35          6           0       -5.884756   -1.008645   -2.603170
     36          6           0       -6.888717   -1.070065   -1.624275
     37          6           0       -5.047746    0.963364   -4.102392
     38          6           0       -5.232155   -2.241770   -2.725903
     39          8           0       -4.297450   -2.597385   -3.417454
     40          6           0       -5.962194   -3.180971   -1.655162
     41          6           0       -6.490936   -4.369921   -2.376312
     42          8           0       -7.382426   -4.392995   -3.189634
     43          8           0       -5.950559   -5.499175   -1.908705
     44          6           0       -6.447711   -6.788180   -2.527224
     45          1           0      -10.812943   -2.397992    3.169547
     46          1           0      -11.847469    3.591444    0.837028
     47          1           0       -6.832430    2.803543   -3.181161
     48          1           0       -8.423249   -4.842652   -0.145863
     49          1           0       -8.910713   -3.861163    2.615451
     50          1           0      -10.996932   -4.954894    2.630910
     51          1           0      -10.385492   -5.684362    1.052584
     52          1           0      -11.336206   -4.206415    1.142570
     53          1           0       -6.565381   -3.853396    2.044302
     54          1           0       -6.003164   -4.720475    0.618953
     55          1           0       -8.106149   -6.216746    2.149521
     56          1           0       -6.583037   -6.002232    2.992892
     57          1           0      -13.652335   -0.841447    3.888381
     58          1           0      -12.547715    0.067782    5.097802
     59          1           0      -12.082850   -1.461414    4.458478
     60          1           0      -14.824875    2.919347    4.539218
     61          1           0      -13.416642    2.098241    5.115764
     62          1           0      -14.671313    1.156795    4.263426
     63          1           0      -10.616825    5.118615   -0.761583
     64          1           0       -8.965868    4.440499   -2.967101
     65          1           0      -11.206663    3.309351   -3.154572
     66          1           0      -11.763860    4.981743   -2.837683
     67          1           0      -12.381362    3.656123   -1.841864
     68          1           0       -6.992221    4.795522   -1.158351
     69          1           0       -8.226933    5.111164   -0.089372
     70          1           0       -8.258970    7.175724   -0.675296
     71          1           0       -8.850303    6.689782   -2.225011
     72          1           0       -7.067791    6.917251   -2.050372
     73          1           0       -4.092042    1.240585   -3.659259
     74          1           0       -5.481041    1.774914   -4.687787
     75          1           0       -4.812083    0.195645   -4.839599
     76          1           0       -5.224176   -3.492385   -0.915582
     77          1           0       -7.536766   -6.761021   -2.484708
     78          1           0       -6.138087   -7.676846   -1.976595
     79          1           0       -6.092869   -6.819710   -3.557601
     80         12           0        8.412390    1.102426    0.379204
     81          6           0       10.557060   -1.705590    0.623025
     82          6           0        5.810486   -1.213015    0.083525
     83          6           0        6.270234    3.587134    0.249091
     84          6           0       11.183078    3.141830   -0.124829
     85          7           0        8.253878   -1.176969    0.395220
     86          6           0        9.220825   -2.101212    0.651965
     87          6           0        8.765067   -3.570459    0.653304
     88          6           0        7.203635   -3.316432    0.343191
     89          6           0        7.118000   -1.821155    0.259509
     90          6           0        6.695665   -3.957934   -1.008328
     91          6           0        9.005732   -4.284455    2.023309
     92          6           0       10.007630   -5.410531    2.246774
     93          1           0        9.714078   -6.549387    3.214417
     94          7           0        6.311145    1.209959    0.268516
     95          6           0        5.414444    0.148130    0.081388
     96          6           0        4.100665    0.721460   -0.107935
     97          6           0        4.176688    2.097131    0.095471
     98          6           0        5.620302    2.347994    0.272638
     99          6           0        2.935439   -0.199517   -0.234490
    100          6           0        3.109769    3.189765    0.036137
    101          8           0        3.326853    4.393240    0.206978
    102          6           0        1.705061    2.749494   -0.095851
    103          7           0        8.643921    3.082452   -0.000536
    104          6           0        7.637032    3.985110    0.202280
    105          6           0        8.204878    5.435717    0.365680
    106          6           0        9.699651    5.244610    0.143887
    107          6           0        9.871377    3.716964   -0.083559
    108          6           0        7.504819    6.488798   -0.554171
    109          6           0       10.474327    5.776541    1.359234
    110          6           0       11.689659    6.596251    1.119095
    111          7           0       10.456261    0.829574    0.160987
    112          6           0       11.466524    1.742154   -0.008928
    113          6           0       12.749295    1.105012   -0.024351
    114          6           0       12.503366   -0.311448    0.328930
    115          6           0       11.058939   -0.392757    0.432854
    116          6           0       14.096055    1.798341   -0.292445
    117          6           0       13.086808   -1.650873    0.593049
    118          8           0       14.272351   -1.995633    0.734448
    119          6           0       11.826820   -2.589080    0.797336
    120          6           0       12.068114   -3.585828   -0.292908
    121          8           0       11.736177   -3.523670   -1.470502
    122          8           0       12.606488   -4.674184    0.185108
    123          6           0       13.080854   -5.729340   -0.742911
    124          1           0        5.095011   -2.034175    0.158300
    125          1           0        5.676628    4.499541    0.165744
    126          1           0       12.043615    3.807722   -0.213079
    127          1           0        9.244504   -4.065042   -0.192390
    128          1           0        6.473820   -3.594749    1.104092
    129          1           0        7.453943   -4.271791   -1.725170
    130          1           0        6.068215   -3.245314   -1.542512
    131          1           0        6.084501   -4.827365   -0.765424
    132          1           0        8.047256   -4.713816    2.315436
    133          1           0        9.307524   -3.559189    2.777892
    134          1           0       10.809917   -4.861213    2.739622
    135          1           0       10.198419   -5.738937    1.225034
    136          1           0        2.222483   -0.067579    0.578214
    137          1           0        3.255635   -1.241698   -0.226001
    138          1           0        2.365528   -0.049859   -1.150998
    139          1           0        1.495851    1.976154    0.643365
    140          1           0        1.524059    2.205952   -1.023270
    141          1           0        0.969037    3.534004    0.077053
    142          1           0        7.946275    5.653467    1.401799
    143          1           0       10.054000    5.848277   -0.691486
    144          1           0        6.615721    6.117745   -1.063790
    145          1           0        8.145821    6.877779   -1.344449
    146          1           0        7.315008    7.401398    0.010646
    147          1           0       10.751956    4.859347    1.877069
    148          1           0        9.896212    6.420422    2.021574
    149          1           0       12.476438    6.085676    1.673931
    150          1           0       11.503223    7.635537    1.389526
    151          1           0       12.059358    6.580516    0.093599
    152          1           0       14.307217    1.760189   -1.360479
    153          1           0       14.862172    1.292457    0.294935
    154          1           0       14.073774    2.856565   -0.031208
    155          1           0       11.938118   -3.050484    1.778402
    156          1           0       12.296942   -6.155300   -1.368164
    157          1           0       13.605082   -6.550291   -0.254097
    158          1           0       13.850881   -5.443999   -1.459015
 ---------------------------------------------------------------------

 SCF Done:  E(RPBE1PBE) =  -4067.39396008     A.U. after   16 cycles

 Excitation energies and oscillator strengths:

 Excited State   1:      Singlet-A      1.7050 eV  727.19 nm  f=0.0000  <S**2>=0.000
     312 -> 313        0.70706
 This state for optimization and/or second-order correction.
 Total Energy, E(TD-HF/TD-DFT) =  -4067.33130365
 Copying the excited state density for this state as the 1-particle RhoCI density.

 Excited State   2:      Singlet-A      1.8078 eV  685.81 nm  f=0.4749  <S**2>=0.000
     309 -> 316       -0.15243
     311 -> 313        0.69042
     312 -> 314       -0.11216
     311 <- 313       -0.12329

 Excited State   3:      Singlet-A      1.8655 eV  664.63 nm  f=0.2942  <S**2>=0.000
     310 -> 315       -0.18116
     311 -> 313        0.11281
     312 -> 314        0.68054

 Excited State   4:      Singlet-A      1.9501 eV  635.78 nm  f=0.0000  <S**2>=0.000
     311 -> 314        0.70701

 Excited State   5:      Singlet-A      2.2123 eV  560.42 nm  f=0.0943  <S**2>=0.000
     310 -> 314        0.64986
     312 -> 315        0.26769

 The electronic state is 1-A.
 Alpha  occ. eigenvalues --  -46.91902 -46.91083 -19.25908 -19.25711 -19.19711
 Alpha  occ. eigenvalues --  -19.19459 -19.19318 -19.19094 -19.19031 -19.18440
 Alpha  occ. eigenvalues --  -14.42331 -14.41891 -14.41541 -14.41500 -14.39294
 Alpha  occ. eigenvalues --  -14.38800 -14.38771 -14.38653 -10.35664 -10.35659
 Alpha  occ. eigenvalues --  -10.32803 -10.32758 -10.32626 -10.32185 -10.29950
 Alpha  occ. eigenvalues --  -10.29683 -10.29194 -10.29163 -10.29098 -10.28887
 Alpha  occ. eigenvalues --  -10.28788 -10.28561 -10.28423 -10.28344 -10.28015
 Alpha  occ. eigenvalues --  -10.27984 -10.27513 -10.27337 -10.27190 -10.26932
 Alpha  occ. eigenvalues --  -10.26833 -10.26779 -10.26759 -10.26709 -10.26589
 Alpha  occ. eigenvalues --  -10.26539 -10.26403 -10.26385 -10.26339 -10.25874
 Alpha  occ. eigenvalues --  -10.25861 -10.25832 -10.25821 -10.25805 -10.25786
 Alpha  occ. eigenvalues --  -10.25782 -10.25692 -10.25362 -10.25278 -10.25272
 Alpha  occ. eigenvalues --  -10.25257 -10.25181 -10.25083 -10.24876 -10.24851
 Alpha  occ. eigenvalues --  -10.24716 -10.24513 -10.24429 -10.24232 -10.24188
 Alpha  occ. eigenvalues --  -10.24078 -10.23830 -10.23797 -10.23735 -10.23472
 Alpha  occ. eigenvalues --  -10.23423 -10.23407 -10.23394 -10.23328 -10.23325
 Alpha  occ. eigenvalues --  -10.23315 -10.23272 -10.22903 -10.22760 -10.22619
 Alpha  occ. eigenvalues --  -10.22331  -3.14077  -3.13438  -1.86919  -1.86453
 Alpha  occ. eigenvalues --   -1.86304  -1.86283  -1.85831  -1.85660  -1.12595
 Alpha  occ. eigenvalues --   -1.11833  -1.05309  -1.04477  -1.03304  -1.03241
 Alpha  occ. eigenvalues --   -1.02107  -1.01298  -1.00246  -0.99976  -0.98710
 Alpha  occ. eigenvalues --   -0.98385  -0.97904  -0.97382  -0.96898  -0.96237
 Alpha  occ. eigenvalues --   -0.87818  -0.86258  -0.83793  -0.83536  -0.83294
 Alpha  occ. eigenvalues --   -0.83152  -0.83130  -0.82877  -0.82384  -0.81800
 Alpha  occ. eigenvalues --   -0.81675  -0.81068  -0.81031  -0.79462  -0.78829
 Alpha  occ. eigenvalues --   -0.78631  -0.78425  -0.77844  -0.77123  -0.76974
 Alpha  occ. eigenvalues --   -0.76611  -0.75997  -0.75697  -0.75144  -0.75078
 Alpha  occ. eigenvalues --   -0.74786  -0.72921  -0.72783  -0.72024  -0.71819
 Alpha  occ. eigenvalues --   -0.71706  -0.71135  -0.70659  -0.70549  -0.69758
 Alpha  occ. eigenvalues --   -0.69427  -0.67830  -0.66735  -0.66439  -0.66168
 Alpha  occ. eigenvalues --   -0.64058  -0.63522  -0.63431  -0.62806  -0.62612
 Alpha  occ. eigenvalues --   -0.62186  -0.61206  -0.60729  -0.60430  -0.60154
 Alpha  occ. eigenvalues --   -0.59676  -0.59563  -0.59371  -0.59337  -0.58881
 Alpha  occ. eigenvalues --   -0.58724  -0.57038  -0.56827  -0.55191  -0.54974
 Alpha  occ. eigenvalues --   -0.54774  -0.53942  -0.53902  -0.53683  -0.53571
 Alpha  occ. eigenvalues --   -0.53077  -0.53059  -0.52619  -0.52370  -0.52230
 Alpha  occ. eigenvalues --   -0.51329  -0.51066  -0.50662  -0.50157  -0.49833
 Alpha  occ. eigenvalues --   -0.49564  -0.49433  -0.49015  -0.48856  -0.48760
 Alpha  occ. eigenvalues --   -0.48374  -0.48193  -0.48143  -0.47845  -0.47562
 Alpha  occ. eigenvalues --   -0.47453  -0.47364  -0.47187  -0.46963  -0.46818
 Alpha  occ. eigenvalues --   -0.46694  -0.46493  -0.46474  -0.46076  -0.46051
 Alpha  occ. eigenvalues --   -0.45281  -0.45191  -0.45044  -0.44928  -0.44745
 Alpha  occ. eigenvalues --   -0.44641  -0.44567  -0.44468  -0.44332  -0.44150
 Alpha  occ. eigenvalues --   -0.44025  -0.43850  -0.43754  -0.43593  -0.43494
 Alpha  occ. eigenvalues --   -0.43427  -0.43124  -0.43071  -0.42893  -0.42805
 Alpha  occ. eigenvalues --   -0.42565  -0.42558  -0.42309  -0.42308  -0.42142
 Alpha  occ. eigenvalues --   -0.42012  -0.41764  -0.41496  -0.41320  -0.41205
 Alpha  occ. eigenvalues --   -0.41021  -0.40925  -0.40766  -0.40760  -0.40592
 Alpha  occ. eigenvalues --   -0.40371  -0.40277  -0.40146  -0.40144  -0.39957
 Alpha  occ. eigenvalues --   -0.39753  -0.39624  -0.39473  -0.39181  -0.39099
 Alpha  occ. eigenvalues --   -0.38826  -0.38756  -0.38734  -0.38721  -0.38545
 Alpha  occ. eigenvalues --   -0.38376  -0.38016  -0.37892  -0.37833  -0.37643
 Alpha  occ. eigenvalues --   -0.37324  -0.37040  -0.36861  -0.36720  -0.36647
 Alpha  occ. eigenvalues --   -0.36560  -0.36363  -0.36269  -0.36148  -0.36054
 Alpha  occ. eigenvalues --   -0.35951  -0.35763  -0.35672  -0.35496  -0.35315
 Alpha  occ. eigenvalues --   -0.35079  -0.34976  -0.34905  -0.34781  -0.34363
 Alpha  occ. eigenvalues --   -0.33509  -0.33372  -0.33197  -0.32849  -0.32644
 Alpha  occ. eigenvalues --   -0.32202  -0.32162  -0.31855  -0.31705  -0.31683
 Alpha  occ. eigenvalues --   -0.31297  -0.30826  -0.29673  -0.29636  -0.29297
 Alpha  occ. eigenvalues --   -0.28800  -0.28674  -0.28030  -0.27253  -0.27196
 Alpha  occ. eigenvalues --   -0.26402  -0.26278  -0.26219  -0.25891  -0.25653
 Alpha  occ. eigenvalues --   -0.25560  -0.24980  -0.24636  -0.21648  -0.20760
 Alpha  occ. eigenvalues --   -0.18966  -0.18723
 Alpha virt. eigenvalues --   -0.11701  -0.11002  -0.05334  -0.05292  -0.04334
 Alpha virt. eigenvalues --   -0.04026  -0.02244  -0.02224  -0.00124  -0.00001
 Alpha virt. eigenvalues --    0.00786   0.01112   0.01172   0.01521   0.01672

 Mulliken charges:
               1
     1  Mg  12.000000
     2  C    6.000000
     3  C    6.000000
     4  C    6.000000
     5  C    6.000000
     6  N    7.000000
     7  C    6.000000
     8  C    6.000000
     9  C    6.000000
    10  C    6.000000
    11  C    6.000000
    12  C    6.000000
    13  C    6.000000
    14  H    1.000000
    15  N    7.000000
    16  C    6.000000
    17  C    6.000000
    18  C    6.000000
    19  C    6.000000
    20  C    6.000000
    21  C    6.000000
    22  O    8.000000
    23  C    6.000000
    24  N    7.000000
    25  C    5.999999
    26  C    6.000000
    27  C    6.000000
    28  C    6.000000
    29  C    6.000000
    30  C    6.000000
    31  C    6.000000
    32  N    7.000000
    33  C    6.000000
    34  C    6.000001
    35  C    6.000000
    36  C    6.000000
    37  C    6.000000
    38  C    6.000000
    39  O    8.000000
    40  C    6.000000
    41  C    6.000000
    42  O    8.000000
    43  O    8.000000
    44  C    6.000000
    45  H    1.000000
    46  H    1.000000
    47  H    1.000000
    48  H    1.000000
    49  H    1.000000
    50  H    1.000000
    51  H    1.000000
    52  H    1.000000
    53  H    1.000000
    54  H    1.000000
    55  H    1.000000
    56  H    1.000000
    57  H    1.000000
    58  H    1.000000
    59  H    1.000000
    60  H    1.000000
    61  H    1.000000
    62  H    1.000000
    63  H    1.000000
    64  H    1.000000
    65  H    1.000000
    66  H    1.000000
    67  H    1.000000
    68  H    1.000000
    69  H    1.000000
    70  H    1.000000
    71  H    1.000000
    72  H    1.000000
    73  H    0.999999
    74  H    1.000000
    75  H    1.000000
    76  H    1.000000
    77  H    1.000000
    78  H    1.000000
    79  H    1.000000
    80  Mg  12.000000
    81  C    6.000000
    82  C    6.000000
    83  C    6.000000
    84  C    6.000001
    85  N    7.000000
    86  C    6.000000
    87  C    6.000000
    88  C    6.000000
    89  C    6.000000
    90  C    6.000000
    91  C    6.000000
    92  C    6.000000
    93  H    1.000000
    94  N    7.000000
    95  C    6.000000
    96  C    6.000001
    97  C    6.000000
    98  C    5.999999
    99  C    6.000000
   100  C    6.000000
   101  O    8.000001
   102  C    5.999999
   103  N    7.000000
   104  C    6.000000
   105  C    6.000000
   106  C    6.000000
   107  C    6.000000
   108  C    6.000000
   109  C    6.000000
   110  C    6.000000
   111  N    7.000000
   112  C    6.000000
   113  C    6.000000
   114  C    6.000000
   115  C    6.000000
   116  C    6.000000
   117  C    6.000000
   118  O    8.000000
   119  C    6.000000
   120  C    6.000000
   121  O    8.000000
   122  O    8.000000
   123  C    6.000000
   124  H    1.000000
   125  H    1.000000
   126  H    1.000000
   127  H    1.000000
   128  H    1.000000
   129  H    1.000000
   130  H    1.000000
   131  H    1.000000
   132  H    1.000000
   133  H    1.000000
   134  H    1.000000
   135  H    1.000000
   136  H    1.000000
   137  H    1.000000
   138  H    1.000000
   139  H    1.000000
   140  H    0.999999
   141  H    1.000000
   142  H    1.000000
   143  H    1.000000
   144  H    1.000000
   145  H    1.000000
   146  H    1.000000
   147  H    1.000000
   148  H    1.000000
   149  H    1.000000
   150  H    1.000000
   151  H    1.000000
   152  H    1.000000
   153  H    1.000000
   154  H    1.000000
   155  H    1.000000
   156  H    1.000000
   157  H    1.000000
   158  H    1.000000
 Sum of Mulliken charges = 624.00000

 Dipole moment (field-independent basis, Debye):
    X=              0.0001    Y=              0.0000    Z=             -0.0001  Tot=              0.0002
 Quadrupole moment (field-independent basis, Debye-Ang):
   XX=             -0.0020   YY=              0.0001   ZZ=             -0.0001
   XY=              0.0001   XZ=              0.0006   YZ=             -0.0000

 Normal termination of Gaussian 16 at Fri Oct 15 06:09:01 2021.
