 Gaussian 16, Revision A.03,
 Gaussian 16:  ES64L-G16RevA.03 25-Dec-2016

 --------------------------------------------------------
 #p PBE1PBE/Def2SVP td=(nstates=5) density=(transition=1)
 --------------------------------------------------------

 --------------------------------
 TDDFT excited states in gaussian
 --------------------------------
 Symbolic Z-matrix:
 Charge =  0 Multiplicity = 1

                         Standard orientation:
 ---------------------------------------------------------------------
 Center     Atomic      Atomic             Coordinates (Angstroms)
 Number     Number       Type             X           Y           Z
 ---------------------------------------------------------------------
      1         12           0      -11.215197   -0.073319   -0.033437
      2          6           0       -8.019401   -1.018848    1.238787
      3          6           0      -10.220158    3.066211    0.373055
      4          6           0      -13.696202    0.917170   -2.103472
      5          6           0      -11.468808   -3.439053   -1.176990
      6          7           0       -9.452814    0.869814    0.800919
      7          6           0       -8.279960    0.311958    1.354294
      8          6           0       -7.271046    1.387886    1.865981
      9          6           0       -8.069118    2.697054    1.606828
     10          6           0       -9.379759    2.196176    0.963942
     11          6           0       -8.188998    3.437494    2.949249
     12          6           0       -5.827962    1.421727    1.200244
     13          6           0       -4.649245    1.068623    2.099948
     14          1           0       -3.513056    2.104607    2.221108
     15          7           0      -11.934770    1.691818   -0.691239
     16          6           0      -11.349497    2.923489   -0.398490
     17          6           0      -12.148719    3.976593   -0.880013
     18          6           0      -13.263206    3.426242   -1.485683
     19          6           0      -13.032109    1.995889   -1.478441
     20          6           0      -11.915914    5.528077   -0.755181
     21          6           0      -14.392637    4.259431   -2.044678
     22          8           0      -14.483461    5.443697   -1.912698
     23          6           0      -15.586338    3.431669   -2.732846
     24          7           0      -12.375122   -1.084577   -1.499060
     25          6           0      -13.365931   -0.439592   -2.187794
     26          6           0      -13.943703   -1.472475   -3.239762
     27          6           0      -13.366583   -2.854758   -2.891842
     28          6           0      -12.312787   -2.452923   -1.790643
     29          6           0      -15.431902   -1.410477   -3.435742
     30          6           0      -12.637690   -3.420672   -4.104239
     31          6           0      -12.461226   -4.914545   -4.168932
     32          7           0      -10.126984   -1.948188    0.217275
     33          6           0      -10.374996   -3.205447   -0.279720
     34          6           0       -9.404546   -4.122031    0.197990
     35          6           0       -8.435526   -3.359383    0.891954
     36          6           0       -8.891927   -2.018166    0.753354
     37          6           0       -9.302650   -5.563394   -0.103412
     38          6           0       -7.165323   -3.308739    1.628452
     39          8           0       -6.444214   -4.248577    1.989322
     40          6           0       -6.836889   -1.793523    1.916380
     41          6           0       -6.954405   -1.545566    3.328603
     42          8           0       -8.076950   -1.463243    3.880950
     43          8           0       -5.705456   -1.490171    3.831491
     44          6           0       -5.524446   -1.050402    5.242114
     45          1           0       -9.941779    4.111118    0.527410
     46          1           0      -14.532984    1.269944   -2.710128
     47          1           0      -11.558069   -4.505064   -1.394826
     48          1           0       -7.119471    1.268297    2.938701
     49          1           0       -7.598878    3.356572    0.878068
     50          1           0       -8.884163    4.261670    2.791945
     51          1           0       -7.263335    3.849989    3.350393
     52          1           0       -8.589334    2.801702    3.739731
     53          1           0       -5.668419    2.477705    0.982065
     54          1           0       -5.825478    0.834378    0.281967
     55          1           0       -4.242940    0.121676    1.742900
     56          1           0       -5.007861    0.930546    3.120572
     57          1           0      -11.977535    5.915572   -1.772319
     58          1           0      -10.936405    5.761549   -0.338152
     59          1           0      -12.570669    6.053071   -0.059689
     60          1           0      -16.354327    4.167846   -2.968315
     61          1           0      -15.861134    2.713877   -1.959588
     62          1           0      -15.083058    2.986186   -3.590903
     63          1           0      -13.509338   -1.133691   -4.180983
     64          1           0      -14.071109   -3.608064   -2.539453
     65          1           0      -15.780718   -2.403384   -3.718267
     66          1           0      -15.597211   -0.679857   -4.227805
     67          1           0      -15.981261   -0.995775   -2.591369
     68          1           0      -11.652518   -2.978742   -4.256141
     69          1           0      -13.109808   -3.126930   -5.041725
     70          1           0      -13.053556   -5.444821   -3.423465
     71          1           0      -11.406657   -5.131517   -3.997693
     72          1           0      -12.603162   -5.276075   -5.187341
     73          1           0      -10.279472   -6.002398   -0.308839
     74          1           0       -8.861143   -6.015209    0.785196
     75          1           0       -8.692318   -5.627091   -1.004557
     76          1           0       -5.903034   -1.437737    1.481116
     77          1           0       -4.659373   -1.655039    5.518324
     78          1           0       -6.398959   -1.209157    5.872399
     79          1           0       -5.114114   -0.041496    5.296637
     80         12           0       10.864253    0.063602   -0.470718
     81          6           0        8.248013    0.908580    1.705532
     82          6           0       10.506022   -3.211099    0.530388
     83          6           0       13.349459   -0.701861   -2.502835
     84          6           0       11.186199    3.473976   -1.250712
     85          7           0        9.458133   -0.973476    0.891165
     86          6           0        8.460442   -0.456682    1.717936
     87          6           0        7.505485   -1.565249    2.311904
     88          6           0        8.361384   -2.784224    2.026874
     89          6           0        9.532960   -2.310220    1.071114
     90          6           0        9.041699   -3.323366    3.367678
     91          6           0        6.234682   -1.534224    1.351634
     92          6           0        4.804217   -1.663972    2.037954
     93          1           0        4.903111   -2.550257    3.253183
     94          7           0       11.858314   -1.643446   -0.792865
     95          6           0       11.598258   -2.856749   -0.313940
     96          6           0       12.482194   -3.862068   -0.841831
     97          6           0       13.205820   -3.211952   -1.861093
     98          6           0       12.860336   -1.747592   -1.717431
     99          6           0       12.525278   -5.290094   -0.437368
    100          6           0       14.078757   -3.778564   -2.961821
    101          8           0       14.445956   -3.113292   -3.937003
    102          6           0       14.634194   -5.200265   -2.839963
    103          7           0       12.130997    1.266295   -1.675308
    104          6           0       13.043132    0.620138   -2.475899
    105          6           0       13.666889    1.644936   -3.420933
    106          6           0       12.880472    3.010138   -3.109355
    107          6           0       11.962274    2.587601   -1.992792
    108          6           0       15.227177    1.646150   -3.250277
    109          6           0       12.180912    3.684177   -4.279268
    110          6           0       12.552805    5.190296   -4.450947
    111          7           0        9.934787    1.828831    0.120833
    112          6           0       10.190594    3.179032   -0.275593
    113          6           0        9.330678    4.069105    0.419244
    114          6           0        8.554164    3.199200    1.203157
    115          6           0        9.005758    1.876980    1.011217
    116          6           0        9.194084    5.555577    0.340610
    117          6           0        7.481696    3.124371    2.142932
    118          8           0        6.800168    3.965657    2.680056
    119          6           0        7.187388    1.620405    2.406076
    120          6           0        7.080214    1.399964    3.871298
    121          8           0        7.984081    1.427748    4.701771
    122          8           0        5.801945    1.102974    4.124711
    123          6           0        5.466163    0.762202    5.491270
    124          1           0       10.413506   -4.292203    0.652244
    125          1           0       14.172327   -1.019495   -3.148142
    126          1           0       11.209196    4.534783   -1.509064
    127          1           0        7.250324   -1.208744    3.309372
    128          1           0        7.770952   -3.549510    1.524173
    129          1           0        8.794564   -2.710758    4.234929
    130          1           0       10.122436   -3.320314    3.227223
    131          1           0        8.668047   -4.343205    3.460059
    132          1           0        6.239384   -2.327887    0.605108
    133          1           0        6.306255   -0.604059    0.787315
    134          1           0        4.131530   -2.251317    1.412850
    135          1           0        4.297069   -0.700286    2.091627
    136          1           0       12.162161   -5.864353   -1.290790
    137          1           0       11.858865   -5.486989    0.401255
    138          1           0       13.524477   -5.635150   -0.173254
    139          1           0       15.459479   -5.132545   -3.548405
    140          1           0       13.911518   -5.980760   -3.080927
    141          1           0       15.123279   -5.467527   -1.903423
    142          1           0       13.538538    1.445583   -4.484795
    143          1           0       13.589572    3.724478   -2.690829
    144          1           0       15.632395    1.642443   -4.262211
    145          1           0       15.607559    0.823360   -2.644863
    146          1           0       15.589019    2.624446   -2.931684
    147          1           0       11.094191    3.609545   -4.255147
    148          1           0       12.637523    3.223728   -5.156534
    149          1           0       13.350258    5.471397   -3.762894
    150          1           0       11.748945    5.844303   -4.113641
    151          1           0       12.871180    5.406293   -5.471000
    152          1           0        8.678588    5.669502   -0.613409
    153          1           0       10.201623    5.963828    0.416852
    154          1           0        8.533750    5.955363    1.108890
    155          1           0        6.176423    1.495994    2.015752
    156          1           0        5.801596    1.551361    6.164765
    157          1           0        5.939258   -0.128457    5.906175
    158          1           0        4.379590    0.679854    5.522969
 ---------------------------------------------------------------------

 SCF Done:  E(RPBE1PBE) =  -4067.40075966     A.U. after   16 cycles

 Excitation energies and oscillator strengths:

 Excited State   1:      Singlet-A      1.8567 eV  667.77 nm  f=0.0000  <S**2>=0.000
     312 -> 313        0.70709
 This state for optimization and/or second-order correction.
 Total Energy, E(TD-HF/TD-DFT) =  -4067.33252774
 Copying the excited state density for this state as the 1-particle RhoCI density.

 Excited State   2:      Singlet-A      1.8612 eV  666.14 nm  f=0.2439  <S**2>=0.000
     310 -> 315       -0.15240
     311 -> 313        0.12276
     312 -> 314        0.68302
     312 <- 314       -0.10624

 Excited State   3:      Singlet-A      1.8690 eV  663.36 nm  f=0.4855  <S**2>=0.000
     309 -> 316        0.16430
     311 -> 313        0.68324
     312 -> 314       -0.12253
     311 <- 313       -0.10783

 Excited State   4:      Singlet-A      1.9639 eV  631.30 nm  f=0.0000  <S**2>=0.000
     311 -> 314        0.70709

 Excited State   5:      Singlet-A      2.2654 eV  547.30 nm  f=0.1213  <S**2>=0.000
     309 -> 313        0.64369
     311 -> 316       -0.26547

 The electronic state is 1-A.
 Alpha  occ. eigenvalues --  -46.91951 -46.91158 -19.27181 -19.25994 -19.19952
 Alpha  occ. eigenvalues --  -19.19894 -19.19731 -19.19169 -19.19143 -19.17902
 Alpha  occ. eigenvalues --  -14.41976 -14.41786 -14.41764 -14.41127 -14.39697
 Alpha  occ. eigenvalues --  -14.39103 -14.38259 -14.38255 -10.36529 -10.35428
 Alpha  occ. eigenvalues --  -10.33125 -10.32728 -10.32512 -10.30525 -10.30089
 Alpha  occ. eigenvalues --  -10.29493 -10.29428 -10.29260 -10.28671 -10.28507
 Alpha  occ. eigenvalues --  -10.28455 -10.28433 -10.28383 -10.28215 -10.28077
 Alpha  occ. eigenvalues --  -10.27980 -10.27939 -10.27048 -10.27018 -10.26695
 Alpha  occ. eigenvalues --  -10.26516 -10.26502 -10.26352 -10.26270 -10.26170
 Alpha  occ. eigenvalues --  -10.26059 -10.25943 -10.25855 -10.25682 -10.25664
 Alpha  occ. eigenvalues --  -10.25636 -10.25409 -10.25391 -10.25388 -10.25361
 Alpha  occ. eigenvalues --  -10.25120 -10.25085 -10.25061 -10.25054 -10.25043
 Alpha  occ. eigenvalues --  -10.25009 -10.24983 -10.24797 -10.24717 -10.24555
 Alpha  occ. eigenvalues --  -10.24422 -10.24405 -10.24355 -10.23936 -10.23918
 Alpha  occ. eigenvalues --  -10.23822 -10.23711 -10.23593 -10.23551 -10.23458
 Alpha  occ. eigenvalues --  -10.23448 -10.23438 -10.23431 -10.23404 -10.23280
 Alpha  occ. eigenvalues --  -10.23180 -10.23067 -10.22943 -10.22850 -10.22677
 Alpha  occ. eigenvalues --  -10.21636  -3.14123  -3.13443  -1.86939  -1.86477
 Alpha  occ. eigenvalues --   -1.86373  -1.86296  -1.85798  -1.85698  -1.11996
 Alpha  occ. eigenvalues --   -1.11442  -1.06609  -1.04834  -1.04365  -1.03576
 Alpha  occ. eigenvalues --   -1.02218  -1.02000  -0.99445  -0.98742  -0.98688
 Alpha  occ. eigenvalues --   -0.97883  -0.97509  -0.97492  -0.97002  -0.96391
 Alpha  occ. eigenvalues --   -0.87167  -0.86645  -0.83988  -0.83832  -0.83559
 Alpha  occ. eigenvalues --   -0.82985  -0.82681  -0.82667  -0.82231  -0.81655
 Alpha  occ. eigenvalues --   -0.81545  -0.81042  -0.80936  -0.80840  -0.79058
 Alpha  occ. eigenvalues --   -0.78591  -0.78285  -0.77845  -0.77533  -0.76551
 Alpha  occ. eigenvalues --   -0.76170  -0.75982  -0.75533  -0.75511  -0.74672
 Alpha  occ. eigenvalues --   -0.74524  -0.73031  -0.72108  -0.71825  -0.71664
 Alpha  occ. eigenvalues --   -0.71119  -0.70911  -0.70575  -0.69943  -0.69444
 Alpha  occ. eigenvalues --   -0.69302  -0.67603  -0.67276  -0.66180  -0.65814
 Alpha  occ. eigenvalues --   -0.63546  -0.63468  -0.63240  -0.63049  -0.62231
 Alpha  occ. eigenvalues --   -0.62064  -0.61767  -0.61627  -0.60074  -0.60017
 Alpha  occ. eigenvalues --   -0.59801  -0.59716  -0.59562  -0.59526  -0.59166
 Alpha  occ. eigenvalues --   -0.59093  -0.57114  -0.56866  -0.55201  -0.54659
 Alpha  occ. eigenvalues --   -0.54238  -0.54190  -0.53912  -0.53708  -0.53214
 Alpha  occ. eigenvalues --   -0.53041  -0.52842  -0.52361  -0.51894  -0.51840
 Alpha  occ. eigenvalues --   -0.51166  -0.50951  -0.50576  -0.50227  -0.49865
 Alpha  occ. eigenvalues --   -0.49588  -0.49302  -0.49048  -0.48909  -0.48452
 Alpha  occ. eigenvalues --   -0.48439  -0.48038  -0.47767  -0.47454  -0.47433
 Alpha  occ. eigenvalues --   -0.47214  -0.47075  -0.46937  -0.46750  -0.46737
 Alpha  occ. eigenvalues --   -0.46399  -0.46261  -0.46105  -0.45974  -0.45862
 Alpha  occ. eigenvalues --   -0.45501  -0.45258  -0.45202  -0.45125  -0.45059
 Alpha  occ. eigenvalues --   -0.44878  -0.44815  -0.44568  -0.44505  -0.44359
 Alpha  occ. eigenvalues --   -0.44254  -0.43812  -0.43774  -0.43580  -0.43298
 Alpha  occ. eigenvalues --   -0.43083  -0.43047  -0.42954  -0.42857  -0.42691
 Alpha  occ. eigenvalues --   -0.42583  -0.42350  -0.42222  -0.42188  -0.42002
 Alpha  occ. eigenvalues --   -0.41893  -0.41675  -0.41535  -0.41339  -0.41122
 Alpha  occ. eigenvalues --   -0.41037  -0.41015  -0.40799  -0.40783  -0.40320
 Alpha  occ. eigenvalues --   -0.40064  -0.40057  -0.39920  -0.39897  -0.39568
 Alpha  occ. eigenvalues --   -0.39523  -0.39512  -0.39304  -0.39290  -0.39113
 Alpha  occ. eigenvalues --   -0.39065  -0.38890  -0.38552  -0.38396  -0.38325
 Alpha  occ. eigenvalues --   -0.38189  -0.38132  -0.37910  -0.37901  -0.37676
 Alpha  occ. eigenvalues --   -0.37560  -0.37427  -0.37379  -0.37264  -0.37176
 Alpha  occ. eigenvalues --   -0.36829  -0.36784  -0.36601  -0.36523  -0.36495
 Alpha  occ. eigenvalues --   -0.35993  -0.35660  -0.35530  -0.35375  -0.35210
 Alpha  occ. eigenvalues --   -0.35105  -0.35003  -0.34647  -0.34080  -0.33696
 Alpha  occ. eigenvalues --   -0.33382  -0.33291  -0.33183  -0.32634  -0.32623
 Alpha  occ. eigenvalues --   -0.32408  -0.32213  -0.31939  -0.31777  -0.31498
 Alpha  occ. eigenvalues --   -0.31355  -0.31063  -0.29472  -0.29430  -0.29124
 Alpha  occ. eigenvalues --   -0.29028  -0.28596  -0.28174  -0.27397  -0.27195
 Alpha  occ. eigenvalues --   -0.26460  -0.26381  -0.26158  -0.25800  -0.25520
 Alpha  occ. eigenvalues --   -0.25307  -0.24768  -0.24627  -0.21180  -0.21013
 Alpha  occ. eigenvalues --   -0.18884  -0.18680
 Alpha virt. eigenvalues --   -0.11245  -0.11060  -0.05318  -0.05259  -0.03730
 Alpha virt. eigenvalues --   -0.03534  -0.01687  -0.01625  -0.00525  -0.00006
 Alpha virt. eigenvalues --    0.00555   0.00578   0.01400   0.01433   0.01762

 Mulliken charges:
               1
     1  Mg  12.000000
     2  C    6.000000
     3  C    6.000000
     4  C    6.000000
     5  C    6.000000
     6  N    7.000000
     7  C    6.000000
     8  C    6.000000
     9  C    6.000000
    10  C    6.000000
    11  C    6.000000
    12  C    6.000000
    13  C    6.000000
    14  H    1.000000
    15  N    7.000000
    16  C    6.000000
    17  C    6.000000
    18  C    6.000000
    19  C    6.000000
    20  C    6.000000
    21  C    6.000000
    22  O    8.000000
    23  C    6.000000
    24  N    7.000000
    25  C    6.000000
    26  C    6.000000
    27  C    6.000000
    28  C    6.000000
    29  C    6.000000
    30  C    6.000000
    31  C    6.000000
    32  N    7.000000
    33  C    6.000000
    34  C    6.000000
    35  C    6.000000
    36  C    6.000000
    37  C    6.000000
    38  C    6.000000
    39  O    8.000000
    40  C    6.000000
    41  C    6.000000
    42  O    8.000000
    43  O    8.000000
    44  C    6.000000
    45  H    1.000000
    46  H    1.000000
    47  H    1.000000
    48  H    1.000000
    49  H    1.000000
    50  H    1.000000
    51  H    1.000000
    52  H    1.000000
    53  H    1.000000
    54  H    1.000000
    55  H    1.000000
    56  H    1.000000
    57  H    1.000000
    58  H    1.000000
    59  H    1.000000
    60  H    1.000000
    61  H    1.000000
    62  H    1.000000
    63  H    1.000000
    64  H    1.000000
    65  H    1.000000
    66  H    1.000000
    67  H    1.000000
    68  H    1.000000
    69  H    1.000000
    70  H    1.000000
    71  H    1.000000
    72  H    1.000000
    73  H    1.000000
    74  H    1.000000
    75  H    1.000000
    76  H    1.000000
    77  H    1.000000
    78  H    1.000000
    79  H    1.000000
    80  Mg  12.000000
    81  C    6.000000
    82  C    6.000000
    83  C    6.000000
    84  C    6.000000
    85  N    7.000000
    86  C    6.000000
    87  C    6.000000
    88  C    6.000000
    89  C    6.000000
    90  C    6.000000
    91  C    6.000000
    92  C    6.000000
    93  H    1.000000
    94  N    7.000000
    95  C    6.000000
    96  C    6.000000
    97  C    6.000000
    98  C    6.000000
    99  C    6.000000
   100  C    6.000000
   101  O    8.000000
   102  C    6.000000
   103  N    7.000000
   104  C    6.000000
   105  C    6.000000
   106  C    6.000000
   107  C    6.000000
   108  C    6.000000
   109  C    6.000000
   110  C    6.000000
   111  N    7.000000
   112  C    6.000000
   113  C    6.000000
   114  C    6.000000
   115  C    6.000000
   116  C    6.000000
   117  C    6.000000
   118  O    8.000000
   119  C    6.000000
   120  C    6.000000
   121  O    8.000000
   122  O    8.000000
   123  C    6.000000
   124  H    1.000000
   125  H    1.000000
   126  H    1.000000
   127  H    1.000000
   128  H    1.000000
   129  H    1.000000
   130  H    1.000000
   131  H    1.000000
   132  H    1.000000
   133  H    1.000000
   134  H    1.000000
   135  H    1.000000
   136  H    1.000000
   137  H    1.000000
   138  H    1.000000
   139  H    1.000000
   140  H    1.000000
   141  H    1.000000
   142  H    1.000000
   143  H    1.000000
   144  H    1.000000
   145  H    1.000000
   146  H    1.000000
   147  H    1.000000
   148  H    1.000000
   149  H    1.000000
   150  H    1.000000
   151  H    1.000000
   152  H    1.000000
   153  H    1.000000
   154  H    1.000000
   155  H    1.000000
   156  H    1.000000
   157  H    1.000000
   158  H    1.000000
 Sum of Mulliken charges = 624.00000

 Dipole moment (field-independent basis, Debye):
    X=             -0.0000    Y=              0.0000    Z=             -0.0000  Tot=              0.0000
 Quadrupole moment (field-independent basis, Debye-Ang):
   XX=              0.0000   YY=             -0.0000   ZZ=              0.0000
   XY=             -0.0000   XZ=              0.0000   YZ=             -0.0000

 Normal termination of Gaussian 16 at Thu Oct 14 20:39:57 2021.
