 Gaussian 16, Revision A.03,
 Gaussian 16:  ES64L-G16RevA.03 25-Dec-2016

 --------------------------------------------------------
 #p PBE1PBE/Def2SVP td=(nstates=5) density=(transition=1)
 --------------------------------------------------------

 --------------------------------
 TDDFT excited states in gaussian
 --------------------------------
 Symbolic Z-matrix:
 Charge =  0 Multiplicity = 1

                         Standard orientation:
 ---------------------------------------------------------------------
 Center     Atomic      Atomic             Coordinates (Angstroms)
 Number     Number       Type             X           Y           Z
 ---------------------------------------------------------------------
      1         12           0      -11.631308    0.159093   -0.398476
      2          6           0       -8.597036   -1.422775    0.115744
      3          6           0      -13.263921   -2.823117    0.237727
      4          6           0      -14.512794    1.901334   -0.160844
      5          6           0       -9.789282    3.153773   -0.675011
      6          7           0      -10.997029   -1.834795    0.401762
      7          6           0       -9.727050   -2.242571    0.326306
      8          6           0       -9.610954   -3.721210    0.809872
      9          6           0      -11.109470   -4.235572    0.576787
     10          6           0      -11.871516   -2.881442    0.309827
     11          6           0      -11.208809   -5.329201   -0.513907
     12          6           0       -9.262899   -3.769716    2.280219
     13          6           0       -8.256999   -4.837626    2.680648
     14          1           0       -8.356363   -5.639107    4.033010
     15          7           0      -13.660616   -0.467017   -0.177911
     16          6           0      -14.136193   -1.683120    0.140963
     17          6           0      -15.559715   -1.591594    0.177989
     18          6           0      -15.970088   -0.254990   -0.111783
     19          6           0      -14.703378    0.481561   -0.203360
     20          6           0      -16.414346   -2.799498    0.291531
     21          6           0      -17.381289    0.213110   -0.069236
     22          8           0      -18.285644   -0.582313    0.124066
     23          6           0      -17.748147    1.668830   -0.331680
     24          7           0      -12.088104    2.323853   -0.506409
     25          6           0      -13.374082    2.724330   -0.301134
     26          6           0      -13.441279    4.204653   -0.109474
     27          6           0      -11.896288    4.594359   -0.272246
     28          6           0      -11.161738    3.311549   -0.573267
     29          6           0      -14.416794    4.934541   -1.051670
     30          6           0      -11.249326    5.402053    0.938544
     31          6           0      -10.486057    6.723046    0.683563
     32          7           0       -9.655053    0.767955   -0.331860
     33          6           0       -9.067464    1.977815   -0.529923
     34          6           0       -7.701710    1.814485   -0.765660
     35          6           0       -7.421238    0.472126   -0.551589
     36          6           0       -8.621456   -0.104685   -0.219708
     37          6           0       -6.711257    2.978919   -1.060419
     38          6           0       -6.438982   -0.507965   -0.544197
     39          8           0       -5.227677   -0.364600   -0.668050
     40          6           0       -7.107921   -1.880889   -0.052568
     41          6           0       -7.076464   -2.877641   -1.061234
     42          8           0       -7.757642   -3.017962   -2.079764
     43          8           0       -6.076533   -3.769771   -0.686398
     44          6           0       -5.767938   -4.928895   -1.506186
     45          1           0      -13.778474   -3.785035    0.281807
     46          1           0      -15.355986    2.593887   -0.108151
     47          1           0       -9.323775    4.124335   -0.859361
     48          1           0       -8.837790   -4.206496    0.214855
     49          1           0      -11.605849   -4.582279    1.482575
     50          1           0      -10.254243   -5.489030   -1.014879
     51          1           0      -11.967909   -5.046629   -1.244002
     52          1           0      -11.568499   -6.238465   -0.032831
     53          1           0      -10.085307   -3.842363    2.992175
     54          1           0       -8.921762   -2.760129    2.509193
     55          1           0       -7.271560   -4.381707    2.586517
     56          1           0       -8.357725   -5.539121    1.852498
     57          1           0      -16.688047   -2.995451   -0.745022
     58          1           0      -17.284276   -2.616859    0.922666
     59          1           0      -15.891478   -3.657566    0.714079
     60          1           0      -17.547383    2.194639    0.601888
     61          1           0      -18.833703    1.684174   -0.425690
     62          1           0      -17.193081    2.060265   -1.184097
     63          1           0      -13.775790    4.243758    0.926687
     64          1           0      -11.747108    5.311924   -1.079079
     65          1           0      -15.272289    5.212975   -0.435392
     66          1           0      -14.714674    4.328507   -1.907917
     67          1           0      -13.959187    5.861603   -1.396143
     68          1           0      -10.536626    4.748099    1.440835
     69          1           0      -11.986831    5.727833    1.672396
     70          1           0       -9.483164    6.323329    0.534016
     71          1           0      -10.486739    7.340353    1.580980
     72          1           0      -10.637075    7.273231   -0.245100
     73          1           0       -6.538370    3.525854   -0.134437
     74          1           0       -7.065120    3.748097   -1.747166
     75          1           0       -5.755213    2.595559   -1.418028
     76          1           0       -6.585545   -2.150521    0.865452
     77          1           0       -4.705589   -5.134097   -1.377890
     78          1           0       -6.085386   -4.859948   -2.546994
     79          1           0       -6.255906   -5.790367   -1.050057
     80         12           0       10.741300    0.859705   -0.215545
     81          6           0       11.930105   -2.359305   -0.608162
     82          6           0        7.672421   -0.474792    0.591564
     83          6           0        9.719824    3.992853    0.753567
     84          6           0       13.869192    2.111661   -0.922716
     85          7           0        9.958311   -1.159990    0.163114
     86          6           0       10.638090   -2.322623   -0.142292
     87          6           0        9.774709   -3.561549    0.080076
     88          6           0        8.336599   -2.923067    0.128101
     89          6           0        8.674645   -1.456238    0.351098
     90          6           0        7.357556   -3.228357   -1.094397
     91          6           0       10.148931   -4.458894    1.302644
     92          6           0       10.174984   -5.949915    1.040459
     93          1           0        9.038500   -6.675657    1.743672
     94          7           0        8.963699    1.599723    0.565810
     95          6           0        7.835529    0.918035    0.794332
     96          6           0        6.774284    1.808565    1.231297
     97          6           0        7.244111    3.108366    1.319276
     98          6           0        8.710753    2.961013    0.924830
     99          6           0        5.317699    1.279451    1.639302
    100          6           0        6.416017    4.391504    1.666129
    101          8           0        5.201072    4.259373    1.987157
    102          6           0        7.027216    5.740180    1.677575
    103          7           0       11.754450    2.820325    0.142353
    104          6           0       11.101923    3.939128    0.358834
    105          6           0       11.928461    5.170537    0.052400
    106          6           0       13.334077    4.659804   -0.413405
    107          6           0       12.991137    3.095327   -0.490013
    108          6           0       11.293153    6.363131   -0.731378
    109          6           0       14.600467    4.932690    0.448949
    110          6           0       15.891539    4.753312   -0.322638
    111          7           0       12.580373    0.035176   -0.671709
    112          6           0       13.785905    0.682264   -1.028963
    113          6           0       14.724705   -0.328193   -1.434040
    114          6           0       14.046249   -1.566602   -1.325605
    115          6           0       12.786860   -1.251865   -0.822756
    116          6           0       16.071900   -0.097779   -2.102475
    117          6           0       14.209638   -2.917144   -1.545725
    118          8           0       15.126180   -3.631660   -1.848189
    119          6           0       12.853414   -3.553555   -0.938745
    120          6           0       13.277835   -4.082285    0.430511
    121          8           0       13.409330   -3.415854    1.439054
    122          8           0       13.496360   -5.442440    0.282214
    123          6           0       14.019771   -6.135472    1.454983
    124          1           0        6.637791   -0.816881    0.659734
    125          1           0        9.325174    4.962202    1.064127
    126          1           0       14.860242    2.369164   -1.302110
    127          1           0        9.818051   -4.155973   -0.832087
    128          1           0        7.910482   -3.192588    1.095163
    129          1           0        6.677177   -2.378250   -1.045579
    130          1           0        6.695565   -4.080141   -0.936443
    131          1           0        7.816372   -3.338899   -2.076834
    132          1           0        9.372911   -4.220022    2.030137
    133          1           0       11.016226   -4.157681    1.889794
    134          1           0       11.141652   -6.320943    1.381798
    135          1           0       10.074467   -6.189667   -0.018269
    136          1           0        5.187699    0.197214    1.597542
    137          1           0        4.554715    1.733844    1.006374
    138          1           0        5.078227    1.452355    2.687605
    139          1           0        7.422086    5.968826    0.688180
    140          1           0        7.709583    5.865084    2.518437
    141          1           0        6.171586    6.413395    1.712766
    142          1           0       12.279781    5.728577    0.920554
    143          1           0       13.507800    4.827489   -1.476590
    144          1           0       10.218839    6.174036   -0.741196
    145          1           0       11.743946    6.538902   -1.708781
    146          1           0       11.401753    7.330091   -0.239948
    147          1           0       14.513974    4.285463    1.321608
    148          1           0       14.456219    5.947135    0.820551
    149          1           0       16.621303    5.447259    0.095223
    150          1           0       15.828645    4.957630   -1.392126
    151          1           0       16.300979    3.767176   -0.103409
    152          1           0       16.524730   -1.003111   -2.506826
    153          1           0       16.724982    0.376215   -1.370877
    154          1           0       15.987087    0.605446   -2.931034
    155          1           0       12.401667   -4.262900   -1.632864
    156          1           0       15.022329   -5.768782    1.675867
    157          1           0       14.002055   -7.217384    1.328156
    158          1           0       13.418635   -5.877209    2.326327
 ---------------------------------------------------------------------

 SCF Done:  E(RPBE1PBE) =  -4067.35281491     A.U. after   16 cycles

 Excitation energies and oscillator strengths:

 Excited State   1:      Singlet-A      1.8024 eV  687.90 nm  f=0.0000  <S**2>=0.000
     312 -> 313        0.70707
 This state for optimization and/or second-order correction.
 Total Energy, E(TD-HF/TD-DFT) =  -4067.28657960
 Copying the excited state density for this state as the 1-particle RhoCI density.

 Excited State   2:      Singlet-A      1.8593 eV  666.81 nm  f=0.5172  <S**2>=0.000
     309 -> 315       -0.17428
     311 -> 313        0.67967
     312 -> 314       -0.13251
     311 <- 313       -0.10804

 Excited State   3:      Singlet-A      1.8878 eV  656.76 nm  f=0.2513  <S**2>=0.000
     310 -> 316        0.14295
     311 -> 313        0.13182
     312 -> 314        0.67954

 Excited State   4:      Singlet-A      2.0654 eV  600.28 nm  f=0.0000  <S**2>=0.000
     311 -> 314        0.70707

 Excited State   5:      Singlet-A      2.2306 eV  555.84 nm  f=0.0886  <S**2>=0.000
     310 -> 314        0.65190
     312 -> 316       -0.21848
     312 -> 318       -0.11336

 The electronic state is 1-A.
 Alpha  occ. eigenvalues --  -46.93064 -46.92705 -19.25286 -19.25253 -19.20357
 Alpha  occ. eigenvalues --  -19.20201 -19.19969 -19.19514 -19.18605 -19.18394
 Alpha  occ. eigenvalues --  -14.41880 -14.41635 -14.41503 -14.41495 -14.39883
 Alpha  occ. eigenvalues --  -14.39468 -14.38878 -14.38333 -10.36533 -10.36228
 Alpha  occ. eigenvalues --  -10.33725 -10.32361 -10.31787 -10.30863 -10.30133
 Alpha  occ. eigenvalues --  -10.29602 -10.29275 -10.29150 -10.29043 -10.28919
 Alpha  occ. eigenvalues --  -10.28869 -10.28809 -10.28624 -10.28457 -10.28414
 Alpha  occ. eigenvalues --  -10.28024 -10.27757 -10.27483 -10.27116 -10.26760
 Alpha  occ. eigenvalues --  -10.26753 -10.26337 -10.26319 -10.26261 -10.26201
 Alpha  occ. eigenvalues --  -10.26146 -10.26121 -10.26025 -10.26008 -10.25992
 Alpha  occ. eigenvalues --  -10.25979 -10.25954 -10.25945 -10.25757 -10.25664
 Alpha  occ. eigenvalues --  -10.25476 -10.25458 -10.25440 -10.25315 -10.25238
 Alpha  occ. eigenvalues --  -10.25179 -10.25074 -10.25058 -10.24622 -10.24498
 Alpha  occ. eigenvalues --  -10.24472 -10.24454 -10.24429 -10.24421 -10.24418
 Alpha  occ. eigenvalues --  -10.24371 -10.24364 -10.24358 -10.24219 -10.23936
 Alpha  occ. eigenvalues --  -10.23685 -10.23642 -10.23546 -10.23354 -10.23345
 Alpha  occ. eigenvalues --  -10.23318 -10.23283 -10.23047 -10.22533 -10.22396
 Alpha  occ. eigenvalues --  -10.21356  -3.14974  -3.14727  -1.87826  -1.87550
 Alpha  occ. eigenvalues --   -1.87342  -1.87188  -1.87104  -1.86954  -1.10452
 Alpha  occ. eigenvalues --   -1.10298  -1.04958  -1.04794  -1.04755  -1.03376
 Alpha  occ. eigenvalues --   -1.02820  -1.02284  -1.00196  -0.99075  -0.98712
 Alpha  occ. eigenvalues --   -0.98482  -0.98293  -0.97811  -0.97311  -0.97119
 Alpha  occ. eigenvalues --   -0.88281  -0.86150  -0.83811  -0.83404  -0.83393
 Alpha  occ. eigenvalues --   -0.82688  -0.82671  -0.82246  -0.82089  -0.81293
 Alpha  occ. eigenvalues --   -0.81239  -0.80558  -0.80478  -0.80267  -0.79725
 Alpha  occ. eigenvalues --   -0.78903  -0.78567  -0.77855  -0.77333  -0.77140
 Alpha  occ. eigenvalues --   -0.76478  -0.76270  -0.75834  -0.75109  -0.75090
 Alpha  occ. eigenvalues --   -0.74521  -0.72521  -0.71937  -0.71900  -0.71262
 Alpha  occ. eigenvalues --   -0.70878  -0.70820  -0.70795  -0.69670  -0.69539
 Alpha  occ. eigenvalues --   -0.69386  -0.67935  -0.66877  -0.66854  -0.66028
 Alpha  occ. eigenvalues --   -0.64330  -0.64017  -0.63661  -0.63392  -0.62551
 Alpha  occ. eigenvalues --   -0.62398  -0.61776  -0.61522  -0.60557  -0.60334
 Alpha  occ. eigenvalues --   -0.60064  -0.59936  -0.59838  -0.59428  -0.59129
 Alpha  occ. eigenvalues --   -0.58629  -0.57253  -0.56321  -0.55060  -0.54511
 Alpha  occ. eigenvalues --   -0.54267  -0.54065  -0.53708  -0.53520  -0.53477
 Alpha  occ. eigenvalues --   -0.52903  -0.52829  -0.52622  -0.52444  -0.51986
 Alpha  occ. eigenvalues --   -0.50944  -0.50742  -0.50666  -0.50098  -0.50046
 Alpha  occ. eigenvalues --   -0.49614  -0.49373  -0.48931  -0.48648  -0.48260
 Alpha  occ. eigenvalues --   -0.48236  -0.48016  -0.47997  -0.47937  -0.47677
 Alpha  occ. eigenvalues --   -0.47170  -0.47128  -0.46909  -0.46723  -0.46523
 Alpha  occ. eigenvalues --   -0.46522  -0.46357  -0.46135  -0.46109  -0.45859
 Alpha  occ. eigenvalues --   -0.45627  -0.45397  -0.45143  -0.45007  -0.44728
 Alpha  occ. eigenvalues --   -0.44663  -0.44548  -0.44445  -0.44251  -0.44160
 Alpha  occ. eigenvalues --   -0.44082  -0.43890  -0.43714  -0.43678  -0.43656
 Alpha  occ. eigenvalues --   -0.43303  -0.43161  -0.43042  -0.42955  -0.42799
 Alpha  occ. eigenvalues --   -0.42204  -0.42186  -0.41924  -0.41596  -0.41517
 Alpha  occ. eigenvalues --   -0.41498  -0.41420  -0.41327  -0.41180  -0.40951
 Alpha  occ. eigenvalues --   -0.40835  -0.40732  -0.40688  -0.40522  -0.40499
 Alpha  occ. eigenvalues --   -0.40237  -0.40092  -0.40009  -0.39939  -0.39847
 Alpha  occ. eigenvalues --   -0.39797  -0.39496  -0.39474  -0.39353  -0.39305
 Alpha  occ. eigenvalues --   -0.38796  -0.38706  -0.38704  -0.38457  -0.38428
 Alpha  occ. eigenvalues --   -0.38268  -0.38169  -0.37975  -0.37790  -0.37766
 Alpha  occ. eigenvalues --   -0.37413  -0.37287  -0.37099  -0.37042  -0.36986
 Alpha  occ. eigenvalues --   -0.36888  -0.36809  -0.36773  -0.36682  -0.36377
 Alpha  occ. eigenvalues --   -0.36371  -0.35880  -0.35765  -0.35291  -0.35203
 Alpha  occ. eigenvalues --   -0.35020  -0.34810  -0.34655  -0.34115  -0.33864
 Alpha  occ. eigenvalues --   -0.33269  -0.33171  -0.32964  -0.32941  -0.32424
 Alpha  occ. eigenvalues --   -0.32361  -0.32248  -0.31470  -0.31338  -0.31173
 Alpha  occ. eigenvalues --   -0.30693  -0.30403  -0.29812  -0.29572  -0.29561
 Alpha  occ. eigenvalues --   -0.29189  -0.29043  -0.28611  -0.27441  -0.27118
 Alpha  occ. eigenvalues --   -0.26665  -0.26418  -0.26299  -0.25922  -0.25501
 Alpha  occ. eigenvalues --   -0.25224  -0.25091  -0.24855  -0.21507  -0.20778
 Alpha  occ. eigenvalues --   -0.19212  -0.18859
 Alpha virt. eigenvalues --   -0.11649  -0.11000  -0.05765  -0.05382  -0.04405
 Alpha virt. eigenvalues --   -0.03820  -0.02430  -0.02103  -0.00839  -0.00436
 Alpha virt. eigenvalues --   -0.00214   0.00476   0.00972   0.01342   0.01372

 Mulliken charges:
               1
     1  Mg  12.000000
     2  C    6.000000
     3  C    6.000000
     4  C    6.000000
     5  C    6.000000
     6  N    7.000000
     7  C    6.000000
     8  C    6.000000
     9  C    6.000000
    10  C    6.000000
    11  C    6.000000
    12  C    6.000000
    13  C    6.000000
    14  H    1.000000
    15  N    7.000000
    16  C    6.000000
    17  C    6.000000
    18  C    6.000000
    19  C    6.000000
    20  C    6.000000
    21  C    6.000000
    22  O    8.000000
    23  C    6.000000
    24  N    7.000000
    25  C    6.000000
    26  C    6.000000
    27  C    6.000000
    28  C    6.000000
    29  C    6.000000
    30  C    6.000000
    31  C    6.000000
    32  N    7.000000
    33  C    6.000000
    34  C    6.000000
    35  C    6.000000
    36  C    6.000000
    37  C    6.000000
    38  C    6.000000
    39  O    8.000000
    40  C    6.000000
    41  C    6.000000
    42  O    8.000000
    43  O    8.000000
    44  C    6.000000
    45  H    1.000000
    46  H    1.000000
    47  H    1.000000
    48  H    1.000000
    49  H    1.000000
    50  H    1.000000
    51  H    1.000000
    52  H    1.000000
    53  H    1.000000
    54  H    1.000000
    55  H    1.000000
    56  H    1.000000
    57  H    1.000000
    58  H    1.000000
    59  H    1.000000
    60  H    1.000000
    61  H    1.000000
    62  H    1.000000
    63  H    1.000000
    64  H    1.000000
    65  H    1.000000
    66  H    1.000000
    67  H    1.000000
    68  H    1.000000
    69  H    1.000000
    70  H    1.000000
    71  H    1.000000
    72  H    1.000000
    73  H    1.000000
    74  H    1.000000
    75  H    1.000000
    76  H    1.000000
    77  H    1.000000
    78  H    1.000000
    79  H    1.000000
    80  Mg  12.000000
    81  C    6.000000
    82  C    6.000000
    83  C    6.000000
    84  C    6.000000
    85  N    7.000000
    86  C    6.000000
    87  C    6.000000
    88  C    6.000000
    89  C    6.000000
    90  C    6.000000
    91  C    6.000000
    92  C    6.000000
    93  H    1.000000
    94  N    7.000000
    95  C    6.000000
    96  C    6.000000
    97  C    6.000000
    98  C    6.000000
    99  C    6.000000
   100  C    6.000000
   101  O    8.000000
   102  C    6.000000
   103  N    7.000000
   104  C    6.000000
   105  C    6.000000
   106  C    6.000000
   107  C    6.000000
   108  C    6.000000
   109  C    6.000000
   110  C    6.000000
   111  N    7.000000
   112  C    6.000000
   113  C    6.000000
   114  C    6.000000
   115  C    6.000000
   116  C    6.000000
   117  C    6.000000
   118  O    8.000000
   119  C    6.000000
   120  C    6.000000
   121  O    8.000000
   122  O    8.000000
   123  C    6.000000
   124  H    1.000000
   125  H    1.000000
   126  H    1.000000
   127  H    1.000000
   128  H    1.000000
   129  H    1.000000
   130  H    1.000000
   131  H    1.000000
   132  H    1.000000
   133  H    1.000000
   134  H    1.000000
   135  H    1.000000
   136  H    1.000000
   137  H    1.000000
   138  H    1.000000
   139  H    1.000000
   140  H    1.000000
   141  H    1.000000
   142  H    1.000000
   143  H    1.000000
   144  H    1.000000
   145  H    1.000000
   146  H    1.000000
   147  H    1.000000
   148  H    1.000000
   149  H    1.000000
   150  H    1.000000
   151  H    1.000000
   152  H    1.000000
   153  H    1.000000
   154  H    1.000000
   155  H    1.000000
   156  H    1.000000
   157  H    1.000000
   158  H    1.000000
 Sum of Mulliken charges = 624.00000

 Dipole moment (field-independent basis, Debye):
    X=             -0.0000    Y=              0.0000    Z=              0.0000  Tot=              0.0000
 Quadrupole moment (field-independent basis, Debye-Ang):
   XX=             -0.0000   YY=              0.0000   ZZ=              0.0000
   XY=              0.0000   XZ=              0.0000   YZ=              0.0000

 Normal termination of Gaussian 16 at Thu Oct 14 10:09:51 2021.
