 Gaussian 16, Revision A.03,
 Gaussian 16:  ES64L-G16RevA.03 25-Dec-2016

 --------------------------------------------------------
 #p PBE1PBE/Def2SVP td=(nstates=5) density=(transition=1)
 --------------------------------------------------------

 --------------------------------
 TDDFT excited states in gaussian
 --------------------------------
 Symbolic Z-matrix:
 Charge =  0 Multiplicity = 1

                         Standard orientation:
 ---------------------------------------------------------------------
 Center     Atomic      Atomic             Coordinates (Angstroms)
 Number     Number       Type             X           Y           Z
 ---------------------------------------------------------------------
      1         12           0       -9.444680   -1.057453    0.427090
      2          6           0      -10.491176    2.055969   -0.580513
      3          6           0       -8.252716    0.432378    3.430297
      4          6           0       -7.888277   -3.921347    1.324527
      5          6           0      -10.267526   -2.391546   -2.538337
      6          7           0       -9.381071    1.022225    1.314243
      7          6           0       -9.875258    2.126233    0.672911
      8          6           0       -9.791908    3.365189    1.567327
      9          6           0       -8.881739    2.810841    2.758399
     10          6           0       -8.825099    1.334240    2.496472
     11          6           0       -7.486473    3.524858    2.889209
     12          6           0      -11.213030    3.884058    2.078178
     13          6           0      -11.585545    5.346964    2.101172
     14          1           0      -10.609414    6.317070    2.665639
     15          7           0       -8.263312   -1.713501    2.173501
     16          6           0       -8.056446   -1.035149    3.323605
     17          6           0       -7.474920   -1.867920    4.322490
     18          6           0       -7.382264   -3.173362    3.744668
     19          6           0       -7.795239   -2.939439    2.328663
     20          6           0       -7.081341   -1.253368    5.626882
     21          6           0       -6.775008   -4.434365    4.335466
     22          8           0       -6.499412   -5.421408    3.646355
     23          6           0       -6.464146   -4.510815    5.819969
     24          7           0       -8.976935   -2.891895   -0.548628
     25          6           0       -8.436078   -3.962964    0.089576
     26          6           0       -8.515820   -5.211146   -0.787756
     27          6           0       -9.451039   -4.731656   -1.962163
     28          6           0       -9.587503   -3.249846   -1.672725
     29          6           0       -7.229612   -5.959806   -1.246420
     30          6           0      -10.822283   -5.506798   -2.144518
     31          6           0      -12.083251   -5.002525   -1.475179
     32          7           0      -10.119544   -0.344853   -1.257934
     33          6           0      -10.567778   -0.983750   -2.386107
     34          6           0      -11.072312   -0.098990   -3.371942
     35          6           0      -11.111919    1.114502   -2.692429
     36          6           0      -10.544967    0.906498   -1.408728
     37          6           0      -11.598949   -0.304094   -4.786342
     38          6           0      -11.440365    2.470070   -2.774227
     39          8           0      -11.881642    3.081227   -3.730006
     40          6           0      -11.035945    3.222265   -1.385205
     41          6           0      -10.059167    4.255874   -1.705214
     42          8           0       -8.909635    4.064062   -2.148799
     43          8           0      -10.528751    5.518624   -1.524093
     44          6           0       -9.780674    6.642142   -2.099282
     45          1           0       -8.007892    0.981978    4.341183
     46          1           0       -7.653722   -4.921383    1.694601
     47          1           0      -10.866774   -2.838592   -3.333347
     48          1           0       -9.377661    4.185361    0.979578
     49          1           0       -9.341338    2.996537    3.729311
     50          1           0       -7.435080    3.968967    3.882713
     51          1           0       -7.451169    4.212038    2.043669
     52          1           0       -6.621817    2.860554    2.898870
     53          1           0      -11.219938    3.502162    3.099215
     54          1           0      -12.021192    3.289680    1.653237
     55          1           0      -12.572564    5.472854    2.546138
     56          1           0      -11.629861    5.648934    1.055396
     57          1           0       -7.441309   -1.951445    6.381787
     58          1           0       -7.618130   -0.318908    5.792290
     59          1           0       -6.017236   -1.061834    5.769223
     60          1           0       -7.240734   -4.088814    6.458561
     61          1           0       -5.440482   -4.178174    5.997299
     62          1           0       -6.473050   -5.579429    6.036769
     63          1           0       -8.966880   -5.947620   -0.122390
     64          1           0       -9.028656   -4.931980   -2.946112
     65          1           0       -7.069115   -5.814736   -2.314638
     66          1           0       -7.411045   -7.017801   -1.057874
     67          1           0       -6.421129   -5.554050   -0.639288
     68          1           0      -10.649237   -6.522978   -1.792830
     69          1           0      -11.075156   -5.562393   -3.203564
     70          1           0      -12.574452   -5.783569   -0.894360
     71          1           0      -12.813182   -4.590135   -2.173036
     72          1           0      -11.745839   -4.201739   -0.817130
     73          1           0      -11.584184   -1.369233   -5.020506
     74          1           0      -10.981482    0.263053   -5.483346
     75          1           0      -12.619999    0.073612   -4.832239
     76          1           0      -11.988536    3.692899   -1.140222
     77          1           0      -10.383354    7.533070   -2.276238
     78          1           0       -9.161912    6.401947   -2.963366
     79          1           0       -9.141475    6.993578   -1.289185
     80         12           0        9.493050   -0.503253   -0.026135
     81          6           0        7.560327    2.405587   -0.073298
     82          6           0       12.137446    1.486793    1.132016
     83          6           0       11.617747   -3.054360   -0.446248
     84          6           0        7.176678   -2.002072   -2.083140
     85          7           0        9.812968    1.733160    0.594776
     86          6           0        8.844517    2.666428    0.395930
     87          6           0        9.363915    4.100605    0.808450
     88          6           0       10.941890    3.807711    0.954476
     89          6           0       11.007611    2.274813    0.849000
     90          6           0       11.647272    4.409202   -0.312665
     91          6           0        8.722627    4.448142    2.202012
     92          6           0        9.182237    5.760783    2.893058
     93          1           0        9.542577    5.993647    4.330167
     94          7           0       11.502491   -0.777270    0.486185
     95          6           0       12.447905    0.130302    0.992343
     96          6           0       13.666791   -0.550176    1.127208
     97          6           0       13.493703   -1.901287    0.858167
     98          6           0       12.159617   -1.962246    0.284171
     99          6           0       14.858161    0.149359    1.694909
    100          6           0       14.498728   -3.097761    0.932726
    101          8           0       14.219252   -4.264774    0.679915
    102          6           0       15.894530   -2.949718    1.544408
    103          7           0        9.430362   -2.206202   -1.208916
    104          6           0       10.374635   -3.165358   -1.083977
    105          6           0        9.989244   -4.502234   -1.747004
    106          6           0        8.627803   -4.121115   -2.391979
    107          6           0        8.309184   -2.761944   -1.795379
    108          6           0       11.104475   -5.125370   -2.650653
    109          6           0        7.468019   -5.146221   -2.262171
    110          6           0        6.817279   -5.237841   -0.947436
    111          7           0        7.680156   -0.001424   -0.846235
    112          6           0        6.870403   -0.674000   -1.630795
    113          6           0        5.616767    0.047205   -1.873474
    114          6           0        5.890596    1.298452   -1.234189
    115          6           0        7.148281    1.239075   -0.666437
    116          6           0        4.309490   -0.479683   -2.242921
    117          6           0        5.296194    2.591208   -0.942492
    118          8           0        4.180195    3.011442   -1.148430
    119          6           0        6.416549    3.364900   -0.236923
    120          6           0        6.748777    4.672522   -0.963329
    121          8           0        7.418557    4.743834   -1.960753
    122          8           0        6.103675    5.714597   -0.341263
    123          6           0        6.384057    7.019436   -0.983418
    124          1           0       12.911172    2.086976    1.613547
    125          1           0       12.199118   -3.978566   -0.417509
    126          1           0        6.565874   -2.736846   -2.610529
    127          1           0        9.207110    4.843302    0.025786
    128          1           0       11.395677    4.204470    1.863494
    129          1           0       11.985985    3.697982   -1.065336
    130          1           0       12.636563    4.798752   -0.071296
    131          1           0       11.056332    5.163571   -0.831711
    132          1           0        8.900068    3.597045    2.858912
    133          1           0        7.641542    4.450343    2.060297
    134          1           0        8.434528    6.490973    2.582066
    135          1           0       10.126307    5.931644    2.377197
    136          1           0       14.722218    1.207430    1.920347
    137          1           0       15.716855   -0.092967    1.067295
    138          1           0       15.004216   -0.338589    2.658980
    139          1           0       16.564558   -2.316788    0.962443
    140          1           0       16.378948   -3.890704    1.805639
    141          1           0       15.748347   -2.506686    2.529703
    142          1           0        9.880661   -5.082389   -0.831061
    143          1           0        8.872799   -3.951267   -3.440423
    144          1           0       12.095849   -4.844899   -2.296366
    145          1           0       10.989217   -4.754096   -3.669310
    146          1           0       11.089143   -6.215458   -2.649079
    147          1           0        7.981716   -6.078392   -2.495162
    148          1           0        6.750039   -4.992134   -3.067923
    149          1           0        6.061397   -4.457345   -0.861882
    150          1           0        7.551317   -5.202048   -0.142683
    151          1           0        6.246751   -6.160768   -0.839334
    152          1           0        4.326863   -1.518207   -1.911521
    153          1           0        4.039634   -0.573541   -3.294928
    154          1           0        3.572228    0.138387   -1.731633
    155          1           0        6.081485    3.578029    0.778703
    156          1           0        5.487091    7.634680   -0.915057
    157          1           0        6.513932    7.004028   -2.065751
    158          1           0        7.176638    7.550951   -0.457727
 ---------------------------------------------------------------------

 SCF Done:  E(RPBE1PBE) =  -4067.41475914     A.U. after   16 cycles

 Excitation energies and oscillator strengths:

 Excited State   1:      Singlet-A      1.7701 eV  700.43 nm  f=0.0000  <S**2>=0.000
     312 -> 313        0.70709
 This state for optimization and/or second-order correction.
 Total Energy, E(TD-HF/TD-DFT) =  -4067.34970814
 Copying the excited state density for this state as the 1-particle RhoCI density.

 Excited State   2:      Singlet-A      1.8773 eV  660.45 nm  f=0.4683  <S**2>=0.000
     309 -> 316        0.16973
     311 -> 313        0.68679
     311 <- 313       -0.10920

 Excited State   3:      Singlet-A      1.8846 eV  657.89 nm  f=0.3091  <S**2>=0.000
     310 -> 315       -0.17803
     312 -> 314        0.68471
     312 <- 314       -0.10262

 Excited State   4:      Singlet-A      2.0300 eV  610.77 nm  f=0.0000  <S**2>=0.000
     311 -> 314        0.70707

 Excited State   5:      Singlet-A      2.2053 eV  562.21 nm  f=0.1542  <S**2>=0.000
     309 -> 313        0.66987
     311 -> 316       -0.21354

 The electronic state is 1-A.
 Alpha  occ. eigenvalues --  -46.92398 -46.92045 -19.26380 -19.25566 -19.20554
 Alpha  occ. eigenvalues --  -19.19456 -19.19016 -19.18961 -19.18814 -19.18614
 Alpha  occ. eigenvalues --  -14.41515 -14.41486 -14.40941 -14.40668 -14.39072
 Alpha  occ. eigenvalues --  -14.39047 -14.38757 -14.38701 -10.36723 -10.35787
 Alpha  occ. eigenvalues --  -10.33136 -10.32358 -10.31623 -10.31611 -10.28988
 Alpha  occ. eigenvalues --  -10.28719 -10.28713 -10.28603 -10.28419 -10.28416
 Alpha  occ. eigenvalues --  -10.28146 -10.28099 -10.27755 -10.27733 -10.27688
 Alpha  occ. eigenvalues --  -10.27586 -10.27585 -10.27578 -10.27413 -10.27069
 Alpha  occ. eigenvalues --  -10.26633 -10.26387 -10.26353 -10.26177 -10.26156
 Alpha  occ. eigenvalues --  -10.25958 -10.25830 -10.25799 -10.25696 -10.25686
 Alpha  occ. eigenvalues --  -10.25656 -10.25645 -10.25537 -10.25518 -10.25398
 Alpha  occ. eigenvalues --  -10.25306 -10.25282 -10.25247 -10.25183 -10.25057
 Alpha  occ. eigenvalues --  -10.25040 -10.25000 -10.24894 -10.24589 -10.24505
 Alpha  occ. eigenvalues --  -10.24379 -10.24212 -10.24191 -10.24175 -10.23809
 Alpha  occ. eigenvalues --  -10.23790 -10.23766 -10.23755 -10.23469 -10.23423
 Alpha  occ. eigenvalues --  -10.23403 -10.23328 -10.23219 -10.23125 -10.23002
 Alpha  occ. eigenvalues --  -10.22753 -10.22728 -10.22486 -10.22379 -10.22310
 Alpha  occ. eigenvalues --  -10.22063  -3.14587  -3.14185  -1.87410  -1.87012
 Alpha  occ. eigenvalues --   -1.86922  -1.86859  -1.86574  -1.86395  -1.11522
 Alpha  occ. eigenvalues --   -1.10485  -1.05016  -1.04946  -1.04606  -1.04047
 Alpha  occ. eigenvalues --   -1.03533  -1.00490  -0.99987  -0.99693  -0.99222
 Alpha  occ. eigenvalues --   -0.98677  -0.98278  -0.98023  -0.97902  -0.96942
 Alpha  occ. eigenvalues --   -0.88173  -0.86884  -0.83650  -0.83222  -0.82720
 Alpha  occ. eigenvalues --   -0.82447  -0.82378  -0.82344  -0.82067  -0.81651
 Alpha  occ. eigenvalues --   -0.81594  -0.81473  -0.80631  -0.80541  -0.78474
 Alpha  occ. eigenvalues --   -0.78232  -0.77943  -0.77911  -0.76834  -0.76603
 Alpha  occ. eigenvalues --   -0.75915  -0.75650  -0.75390  -0.75090  -0.74621
 Alpha  occ. eigenvalues --   -0.74509  -0.72663  -0.72570  -0.71849  -0.71705
 Alpha  occ. eigenvalues --   -0.71295  -0.70862  -0.70439  -0.70388  -0.69746
 Alpha  occ. eigenvalues --   -0.69102  -0.67911  -0.66902  -0.66130  -0.65885
 Alpha  occ. eigenvalues --   -0.64307  -0.63934  -0.63547  -0.63545  -0.62723
 Alpha  occ. eigenvalues --   -0.62457  -0.61439  -0.61287  -0.59927  -0.59768
 Alpha  occ. eigenvalues --   -0.59580  -0.59146  -0.59143  -0.58875  -0.58664
 Alpha  occ. eigenvalues --   -0.58513  -0.57028  -0.56729  -0.54628  -0.54466
 Alpha  occ. eigenvalues --   -0.54302  -0.53960  -0.53841  -0.53548  -0.52972
 Alpha  occ. eigenvalues --   -0.52818  -0.52761  -0.52330  -0.51857  -0.51794
 Alpha  occ. eigenvalues --   -0.50982  -0.50749  -0.50108  -0.50055  -0.49755
 Alpha  occ. eigenvalues --   -0.49711  -0.49491  -0.49239  -0.49139  -0.48494
 Alpha  occ. eigenvalues --   -0.48489  -0.47749  -0.47733  -0.47656  -0.47505
 Alpha  occ. eigenvalues --   -0.47212  -0.47139  -0.47040  -0.46760  -0.46664
 Alpha  occ. eigenvalues --   -0.46647  -0.46525  -0.45879  -0.45628  -0.45547
 Alpha  occ. eigenvalues --   -0.45287  -0.45282  -0.44970  -0.44718  -0.44652
 Alpha  occ. eigenvalues --   -0.44454  -0.44376  -0.44093  -0.44056  -0.43974
 Alpha  occ. eigenvalues --   -0.43762  -0.43745  -0.43571  -0.43462  -0.43361
 Alpha  occ. eigenvalues --   -0.43327  -0.43264  -0.43059  -0.42885  -0.42717
 Alpha  occ. eigenvalues --   -0.42465  -0.42424  -0.42092  -0.42040  -0.41718
 Alpha  occ. eigenvalues --   -0.41700  -0.41504  -0.41259  -0.41097  -0.40831
 Alpha  occ. eigenvalues --   -0.40758  -0.40644  -0.40629  -0.40509  -0.40467
 Alpha  occ. eigenvalues --   -0.40027  -0.39991  -0.39765  -0.39663  -0.39652
 Alpha  occ. eigenvalues --   -0.39380  -0.39120  -0.39113  -0.38980  -0.38778
 Alpha  occ. eigenvalues --   -0.38737  -0.38683  -0.38564  -0.38366  -0.38312
 Alpha  occ. eigenvalues --   -0.38104  -0.38097  -0.37908  -0.37872  -0.37660
 Alpha  occ. eigenvalues --   -0.37635  -0.37308  -0.37185  -0.37088  -0.37007
 Alpha  occ. eigenvalues --   -0.36709  -0.36677  -0.36560  -0.36487  -0.36253
 Alpha  occ. eigenvalues --   -0.36074  -0.35891  -0.35517  -0.35360  -0.35075
 Alpha  occ. eigenvalues --   -0.34876  -0.34661  -0.34470  -0.34373  -0.33766
 Alpha  occ. eigenvalues --   -0.33348  -0.33341  -0.33112  -0.32739  -0.32632
 Alpha  occ. eigenvalues --   -0.32222  -0.32189  -0.31731  -0.31569  -0.31336
 Alpha  occ. eigenvalues --   -0.31011  -0.30450  -0.29730  -0.29642  -0.29424
 Alpha  occ. eigenvalues --   -0.28652  -0.28536  -0.27872  -0.26881  -0.26871
 Alpha  occ. eigenvalues --   -0.26434  -0.26031  -0.25817  -0.25656  -0.25462
 Alpha  occ. eigenvalues --   -0.25459  -0.25289  -0.24895  -0.20722  -0.20642
 Alpha  occ. eigenvalues --   -0.18969  -0.18577
 Alpha virt. eigenvalues --   -0.11362  -0.10816  -0.04770  -0.04680  -0.03837
 Alpha virt. eigenvalues --   -0.03704  -0.02029  -0.01828  -0.00877  -0.00501
 Alpha virt. eigenvalues --    0.00281   0.00629   0.01398   0.01923   0.02157

 Mulliken charges:
               1
     1  Mg  12.000000
     2  C    6.000000
     3  C    6.000000
     4  C    6.000000
     5  C    6.000000
     6  N    7.000000
     7  C    6.000000
     8  C    6.000000
     9  C    6.000000
    10  C    6.000000
    11  C    6.000000
    12  C    6.000000
    13  C    6.000000
    14  H    1.000000
    15  N    7.000000
    16  C    6.000000
    17  C    6.000000
    18  C    6.000000
    19  C    6.000000
    20  C    6.000000
    21  C    6.000000
    22  O    8.000000
    23  C    6.000000
    24  N    7.000000
    25  C    6.000000
    26  C    6.000000
    27  C    6.000000
    28  C    6.000000
    29  C    6.000000
    30  C    6.000000
    31  C    6.000000
    32  N    7.000000
    33  C    6.000000
    34  C    6.000000
    35  C    6.000000
    36  C    6.000000
    37  C    6.000000
    38  C    6.000000
    39  O    8.000000
    40  C    6.000000
    41  C    6.000000
    42  O    8.000000
    43  O    8.000000
    44  C    6.000000
    45  H    1.000000
    46  H    1.000000
    47  H    1.000000
    48  H    1.000000
    49  H    1.000000
    50  H    1.000000
    51  H    1.000000
    52  H    1.000000
    53  H    1.000000
    54  H    1.000000
    55  H    1.000000
    56  H    1.000000
    57  H    1.000000
    58  H    1.000000
    59  H    1.000000
    60  H    1.000000
    61  H    1.000000
    62  H    1.000000
    63  H    1.000000
    64  H    1.000000
    65  H    1.000000
    66  H    1.000000
    67  H    1.000000
    68  H    1.000000
    69  H    1.000000
    70  H    1.000000
    71  H    1.000000
    72  H    1.000000
    73  H    1.000000
    74  H    1.000000
    75  H    1.000000
    76  H    1.000000
    77  H    1.000000
    78  H    1.000000
    79  H    1.000000
    80  Mg  12.000000
    81  C    6.000000
    82  C    6.000000
    83  C    6.000000
    84  C    6.000000
    85  N    7.000000
    86  C    6.000000
    87  C    6.000000
    88  C    6.000000
    89  C    6.000000
    90  C    6.000000
    91  C    6.000000
    92  C    6.000000
    93  H    1.000000
    94  N    7.000000
    95  C    6.000000
    96  C    6.000000
    97  C    6.000000
    98  C    6.000000
    99  C    6.000000
   100  C    6.000000
   101  O    8.000000
   102  C    6.000000
   103  N    7.000000
   104  C    6.000000
   105  C    6.000000
   106  C    6.000000
   107  C    6.000000
   108  C    6.000000
   109  C    6.000000
   110  C    6.000000
   111  N    7.000000
   112  C    6.000000
   113  C    6.000000
   114  C    6.000000
   115  C    6.000000
   116  C    6.000000
   117  C    6.000000
   118  O    8.000000
   119  C    6.000000
   120  C    6.000000
   121  O    8.000000
   122  O    8.000000
   123  C    6.000000
   124  H    1.000000
   125  H    1.000000
   126  H    1.000000
   127  H    1.000000
   128  H    1.000000
   129  H    1.000000
   130  H    1.000000
   131  H    1.000000
   132  H    1.000000
   133  H    1.000000
   134  H    1.000000
   135  H    1.000000
   136  H    1.000000
   137  H    1.000000
   138  H    1.000000
   139  H    1.000000
   140  H    1.000000
   141  H    1.000000
   142  H    1.000000
   143  H    1.000000
   144  H    1.000000
   145  H    1.000000
   146  H    1.000000
   147  H    1.000000
   148  H    1.000000
   149  H    1.000000
   150  H    1.000000
   151  H    1.000000
   152  H    1.000000
   153  H    1.000000
   154  H    1.000000
   155  H    1.000000
   156  H    1.000000
   157  H    1.000000
   158  H    1.000000
 Sum of Mulliken charges = 624.00000

 Dipole moment (field-independent basis, Debye):
    X=              0.0000    Y=             -0.0000    Z=              0.0000  Tot=              0.0000
 Quadrupole moment (field-independent basis, Debye-Ang):
   XX=              0.0000   YY=              0.0000   ZZ=             -0.0000
   XY=             -0.0000   XZ=              0.0000   YZ=             -0.0000

 Normal termination of Gaussian 16 at Fri Oct 15 17:28:38 2021.
