 Gaussian 16, Revision A.03,
 Gaussian 16:  ES64L-G16RevA.03 25-Dec-2016

 --------------------------------------------------------
 #p PBE1PBE/Def2SVP td=(nstates=5) density=(transition=1)
 --------------------------------------------------------

 --------------------------------
 TDDFT excited states in gaussian
 --------------------------------
 Symbolic Z-matrix:
 Charge =  0 Multiplicity = 1

                         Standard orientation:
 ---------------------------------------------------------------------
 Center     Atomic      Atomic             Coordinates (Angstroms)
 Number     Number       Type             X           Y           Z
 ---------------------------------------------------------------------
      1         12           0       13.641154    0.198907    0.367164
      2          6           0       10.220023   -0.431063   -0.560846
      3          6           0       14.174307    1.133810   -2.872520
      4          6           0       16.885847    0.490713    1.166090
      5          6           0       12.983663   -1.226112    3.381826
      6          7           0       12.250647    0.380156   -1.554111
      7          6           0       10.916375    0.097508   -1.601644
      8          6           0       10.421259    0.547816   -2.923545
      9          6           0       11.693888    0.923787   -3.731895
     10          6           0       12.855258    0.780295   -2.710570
     11          6           0       11.909821   -0.026043   -4.952818
     12          6           0        9.388854    1.647078   -2.900780
     13          6           0        8.657164    2.004327   -4.184503
     14          1           0        7.190578    2.091557   -4.110722
     15          7           0       15.254158    0.835849   -0.661841
     16          6           0       15.300011    1.094142   -2.059685
     17          6           0       16.653824    1.604459   -2.346706
     18          6           0       17.414650    1.325726   -1.214295
     19          6           0       16.516160    0.793251   -0.173938
     20          6           0       17.025735    2.112113   -3.724192
     21          6           0       18.914214    1.579679   -0.948328
     22          8           0       19.546088    1.091858    0.007436
     23          6           0       19.612336    2.482397   -1.881640
     24          7           0       14.829731   -0.355554    2.031246
     25          6           0       16.121153   -0.143424    2.180706
     26          6           0       16.678750   -0.657161    3.536518
     27          6           0       15.376490   -0.954077    4.283286
     28          6           0       14.337845   -0.796849    3.196448
     29          6           0       17.575915   -1.926545    3.346441
     30          6           0       15.072960   -0.101067    5.494328
     31          6           0       14.520874   -0.830839    6.731765
     32          7           0       11.945516   -0.559130    1.253653
     33          6           0       11.847214   -1.100600    2.516749
     34          6           0       10.440263   -1.491959    2.832326
     35          6           0        9.852555   -1.237457    1.609581
     36          6           0       10.769962   -0.736245    0.678213
     37          6           0        9.853293   -1.883138    4.150447
     38          6           0        8.568270   -1.315428    0.929136
     39          8           0        7.491616   -1.662590    1.401365
     40          6           0        8.734719   -0.794249   -0.516726
     41          6           0        8.160327   -1.793806   -1.380721
     42          8           0        8.668747   -2.894592   -1.703057
     43          8           0        7.026028   -1.316931   -1.964179
     44          6           0        6.449534   -2.054324   -3.067178
     45          1           0       14.341396    1.516823   -3.881144
     46          1           0       17.955551    0.427726    1.375639
     47          1           0       12.935032   -1.867796    4.263841
     48          1           0        9.982263   -0.359841   -3.335644
     49          1           0       11.653261    1.940809   -4.122301
     50          1           0       12.082134    0.329913   -5.969037
     51          1           0       10.995645   -0.618256   -4.990446
     52          1           0       12.648434   -0.813535   -4.800730
     53          1           0        9.838327    2.604668   -2.637375
     54          1           0        8.732964    1.572120   -2.033876
     55          1           0        8.862635    1.269628   -4.961586
     56          1           0        8.894976    3.052398   -4.364555
     57          1           0       17.972889    1.728089   -4.102467
     58          1           0       17.066690    3.198477   -3.800543
     59          1           0       16.348363    1.809391   -4.523087
     60          1           0       19.032219    3.401057   -1.970120
     61          1           0       19.582206    1.918008   -2.813008
     62          1           0       20.553110    2.749981   -1.401963
     63          1           0       17.228302    0.178029    3.972087
     64          1           0       15.247720   -1.977554    4.634282
     65          1           0       17.110087   -2.814564    3.772649
     66          1           0       18.526269   -1.821583    3.869833
     67          1           0       17.679576   -2.045287    2.267791
     68          1           0       14.392546    0.715310    5.254214
     69          1           0       15.970600    0.503837    5.618365
     70          1           0       14.822991   -0.245362    7.599576
     71          1           0       14.784257   -1.888672    6.757677
     72          1           0       13.449245   -0.781350    6.539882
     73          1           0        9.317024   -1.081170    4.658100
     74          1           0       10.669231   -2.355434    4.696771
     75          1           0        9.228208   -2.766507    4.014170
     76          1           0        8.036593    0.040168   -0.582978
     77          1           0        7.051227   -2.893519   -3.417215
     78          1           0        6.173820   -1.380209   -3.877675
     79          1           0        5.489215   -2.498452   -2.803881
     80         12           0      -13.130093   -0.478772   -0.529383
     81          6           0      -12.917027    2.678808    0.827296
     82          6           0       -9.900918   -0.162593   -1.595569
     83          6           0      -12.996542   -3.777696   -0.638839
     84          6           0      -16.423376   -0.648623    0.675988
     85          7           0      -11.484098    0.943601    0.047345
     86          6           0      -11.692042    2.242280    0.385286
     87          6           0      -10.451192    3.077551    0.271139
     88          6           0       -9.704614    2.293876   -0.856479
     89          6           0      -10.444946    0.964632   -0.867063
     90          6           0       -9.680773    3.053610   -2.213773
     91          6           0       -9.601015    3.095879    1.638913
     92          6           0       -8.854591    4.471890    1.964397
     93          1           0       -7.374286    4.190614    2.039381
     94          7           0      -11.704027   -1.765666   -1.238951
     95          6           0      -10.415226   -1.513522   -1.556714
     96          6           0       -9.725353   -2.743457   -1.924848
     97          6           0      -10.627738   -3.799346   -1.681894
     98          6           0      -11.845031   -3.120265   -1.155658
     99          6           0       -8.251785   -2.724808   -2.398685
    100          6           0      -10.226611   -5.246732   -1.745603
    101          8           0       -9.112910   -5.538484   -2.096022
    102          6           0      -11.132647   -6.425405   -1.341346
    103          7           0      -14.558088   -2.053745   -0.175744
    104          6           0      -14.250562   -3.270043   -0.275049
    105          6           0      -15.314324   -4.189671    0.199294
    106          6           0      -16.461563   -3.191162    0.624469
    107          6           0      -15.811481   -1.899957    0.375615
    108          6           0      -15.673775   -5.266513   -0.879606
    109          6           0      -16.887147   -3.380843    2.153708
    110          6           0      -18.278654   -2.802780    2.595151
    111          7           0      -14.473632    0.739642    0.455376
    112          6           0      -15.806737    0.563851    0.779161
    113          6           0      -16.371926    1.787533    1.276277
    114          6           0      -15.254869    2.694424    1.268068
    115          6           0      -14.138016    1.984715    0.871133
    116          6           0      -17.783959    2.042342    1.695305
    117          6           0      -14.878760    4.040977    1.528826
    118          8           0      -15.465353    5.050072    1.940760
    119          6           0      -13.316586    4.039844    1.441469
    120          6           0      -12.932061    5.258010    0.669850
    121          8           0      -12.628901    6.348482    1.174006
    122          8           0      -13.021152    5.003533   -0.670902
    123          6           0      -12.680860    6.244064   -1.422666
    124          1           0       -8.931561   -0.121046   -2.097397
    125          1           0      -12.901824   -4.865026   -0.629787
    126          1           0      -17.394569   -0.745066    1.167370
    127          1           0      -10.814532    4.036305   -0.096666
    128          1           0       -8.655514    2.187932   -0.579825
    129          1           0       -8.650639    3.299128   -2.470309
    130          1           0      -10.186438    4.006680   -2.055236
    131          1           0      -10.210178    2.439363   -2.941476
    132          1           0       -8.897909    2.275290    1.780862
    133          1           0      -10.255366    2.919218    2.491955
    134          1           0       -9.193826    4.724618    2.969072
    135          1           0       -9.068476    5.358560    1.367487
    136          1           0       -7.566776   -3.317618   -1.792630
    137          1           0       -7.833849   -1.723917   -2.512176
    138          1           0       -8.247843   -3.099021   -3.421887
    139          1           0      -12.013208   -6.528404   -1.974621
    140          1           0      -11.438600   -6.404492   -0.295073
    141          1           0      -10.469573   -7.291054   -1.344893
    142          1           0      -14.871968   -4.644096    1.085716
    143          1           0      -17.363313   -3.146604    0.014235
    144          1           0      -15.492488   -6.240071   -0.424699
    145          1           0      -15.086940   -5.142688   -1.789945
    146          1           0      -16.741764   -5.364041   -1.073895
    147          1           0      -16.140155   -2.930230    2.807541
    148          1           0      -16.867829   -4.456515    2.322574
    149          1           0      -19.054279   -3.451020    3.002019
    150          1           0      -18.790380   -2.350531    1.746718
    151          1           0      -18.141076   -2.020912    3.342067
    152          1           0      -18.508945    1.259559    1.473126
    153          1           0      -17.965715    2.961183    1.139271
    154          1           0      -17.623531    2.287981    2.745158
    155          1           0      -12.813042    4.028051    2.408706
    156          1           0      -13.473737    6.978414   -1.284238
    157          1           0      -12.722975    6.107023   -2.503219
    158          1           0      -11.694826    6.569558   -1.090515
 ---------------------------------------------------------------------

 SCF Done:  E(RPBE1PBE) =  -4067.37538145     A.U. after   16 cycles

 Excitation energies and oscillator strengths:

 Excited State   1:      Singlet-A      1.7988 eV  689.24 nm  f=0.3561  <S**2>=0.000
     310 -> 315       -0.16144
     311 -> 313        0.69471
     311 <- 313       -0.10906
 This state for optimization and/or second-order correction.
 Total Energy, E(TD-HF/TD-DFT) =  -4067.30927501
 Copying the excited state density for this state as the 1-particle RhoCI density.

 Excited State   2:      Singlet-A      1.8605 eV  666.39 nm  f=0.0000  <S**2>=0.000
     312 -> 313        0.70710

 Excited State   3:      Singlet-A      1.9172 eV  646.71 nm  f=0.3683  <S**2>=0.000
     309 -> 316       -0.19064
     312 -> 314        0.68783

 Excited State   4:      Singlet-A      2.0418 eV  607.24 nm  f=0.0000  <S**2>=0.000
     311 -> 314        0.70709

 Excited State   5:      Singlet-A      2.1991 eV  563.79 nm  f=0.1030  <S**2>=0.000
     310 -> 313        0.65385
     311 -> 315        0.25115

 The electronic state is 1-A.
 Alpha  occ. eigenvalues --  -46.92523 -46.91901 -19.26250 -19.25820 -19.19392
 Alpha  occ. eigenvalues --  -19.19341 -19.19215 -19.19088 -19.18856 -19.18409
 Alpha  occ. eigenvalues --  -14.41447 -14.41408 -14.41404 -14.40619 -14.39677
 Alpha  occ. eigenvalues --  -14.39424 -14.39261 -14.38386 -10.36122 -10.35783
 Alpha  occ. eigenvalues --  -10.32538 -10.32333 -10.31645 -10.31428 -10.29704
 Alpha  occ. eigenvalues --  -10.28971 -10.28948 -10.28458 -10.28438 -10.28404
 Alpha  occ. eigenvalues --  -10.28260 -10.28247 -10.28216 -10.28149 -10.28128
 Alpha  occ. eigenvalues --  -10.28050 -10.28041 -10.27819 -10.27819 -10.26637
 Alpha  occ. eigenvalues --  -10.26559 -10.26456 -10.26285 -10.26126 -10.26097
 Alpha  occ. eigenvalues --  -10.26089 -10.26086 -10.26038 -10.25912 -10.25864
 Alpha  occ. eigenvalues --  -10.25826 -10.25774 -10.25596 -10.25586 -10.25384
 Alpha  occ. eigenvalues --  -10.25356 -10.25297 -10.25270 -10.25160 -10.25067
 Alpha  occ. eigenvalues --  -10.25026 -10.25017 -10.24964 -10.24945 -10.24924
 Alpha  occ. eigenvalues --  -10.24694 -10.24563 -10.24558 -10.24500 -10.24368
 Alpha  occ. eigenvalues --  -10.24287 -10.23878 -10.23863 -10.23782 -10.23690
 Alpha  occ. eigenvalues --  -10.23688 -10.23675 -10.23591 -10.23563 -10.23487
 Alpha  occ. eigenvalues --  -10.23482 -10.23408 -10.23325 -10.23179 -10.22495
 Alpha  occ. eigenvalues --  -10.22350  -3.14676  -3.14085  -1.87502  -1.87064
 Alpha  occ. eigenvalues --   -1.86935  -1.86890  -1.86450  -1.86321  -1.10891
 Alpha  occ. eigenvalues --   -1.10767  -1.06340  -1.04229  -1.03721  -1.03065
 Alpha  occ. eigenvalues --   -1.01618  -1.01325  -1.00742  -1.00434  -0.99315
 Alpha  occ. eigenvalues --   -0.99010  -0.98474  -0.97682  -0.97635  -0.96812
 Alpha  occ. eigenvalues --   -0.87555  -0.87013  -0.84427  -0.84040  -0.83588
 Alpha  occ. eigenvalues --   -0.82877  -0.82782  -0.82465  -0.81866  -0.81580
 Alpha  occ. eigenvalues --   -0.81395  -0.81141  -0.80977  -0.80733  -0.78985
 Alpha  occ. eigenvalues --   -0.78452  -0.78341  -0.78142  -0.77217  -0.76751
 Alpha  occ. eigenvalues --   -0.76480  -0.75804  -0.75594  -0.75277  -0.75111
 Alpha  occ. eigenvalues --   -0.74647  -0.72941  -0.72767  -0.72038  -0.71897
 Alpha  occ. eigenvalues --   -0.71765  -0.71040  -0.70877  -0.70301  -0.69727
 Alpha  occ. eigenvalues --   -0.69608  -0.67469  -0.67158  -0.66566  -0.66414
 Alpha  occ. eigenvalues --   -0.64846  -0.63929  -0.63657  -0.63584  -0.62524
 Alpha  occ. eigenvalues --   -0.62503  -0.61970  -0.61290  -0.60940  -0.60855
 Alpha  occ. eigenvalues --   -0.59855  -0.59732  -0.59661  -0.59379  -0.59123
 Alpha  occ. eigenvalues --   -0.58997  -0.57146  -0.57022  -0.54928  -0.54870
 Alpha  occ. eigenvalues --   -0.54505  -0.54162  -0.54067  -0.53676  -0.53408
 Alpha  occ. eigenvalues --   -0.53331  -0.52859  -0.52519  -0.52235  -0.51380
 Alpha  occ. eigenvalues --   -0.51234  -0.51065  -0.50725  -0.50258  -0.50240
 Alpha  occ. eigenvalues --   -0.50097  -0.49487  -0.48972  -0.48773  -0.48577
 Alpha  occ. eigenvalues --   -0.48445  -0.48222  -0.47945  -0.47750  -0.47488
 Alpha  occ. eigenvalues --   -0.47473  -0.47097  -0.46735  -0.46651  -0.46493
 Alpha  occ. eigenvalues --   -0.46402  -0.46234  -0.46228  -0.45873  -0.45799
 Alpha  occ. eigenvalues --   -0.45728  -0.45425  -0.45316  -0.45038  -0.44874
 Alpha  occ. eigenvalues --   -0.44740  -0.44702  -0.44597  -0.44448  -0.44243
 Alpha  occ. eigenvalues --   -0.44068  -0.43825  -0.43640  -0.43588  -0.43284
 Alpha  occ. eigenvalues --   -0.43256  -0.43033  -0.42996  -0.42913  -0.42576
 Alpha  occ. eigenvalues --   -0.42398  -0.42378  -0.42313  -0.42022  -0.41960
 Alpha  occ. eigenvalues --   -0.41907  -0.41709  -0.41528  -0.41369  -0.41284
 Alpha  occ. eigenvalues --   -0.40989  -0.40969  -0.40966  -0.40851  -0.40604
 Alpha  occ. eigenvalues --   -0.40469  -0.40393  -0.40001  -0.39957  -0.39881
 Alpha  occ. eigenvalues --   -0.39722  -0.39420  -0.39334  -0.39162  -0.39068
 Alpha  occ. eigenvalues --   -0.38855  -0.38769  -0.38645  -0.38565  -0.38514
 Alpha  occ. eigenvalues --   -0.38268  -0.38127  -0.38032  -0.37979  -0.37497
 Alpha  occ. eigenvalues --   -0.37402  -0.37352  -0.37211  -0.36997  -0.36925
 Alpha  occ. eigenvalues --   -0.36850  -0.36747  -0.36596  -0.36469  -0.36378
 Alpha  occ. eigenvalues --   -0.36188  -0.36081  -0.36070  -0.35988  -0.35743
 Alpha  occ. eigenvalues --   -0.35696  -0.35046  -0.34919  -0.34901  -0.34549
 Alpha  occ. eigenvalues --   -0.33742  -0.33565  -0.33184  -0.32917  -0.32613
 Alpha  occ. eigenvalues --   -0.32127  -0.31859  -0.31761  -0.31440  -0.31071
 Alpha  occ. eigenvalues --   -0.30998  -0.30596  -0.30141  -0.29075  -0.29026
 Alpha  occ. eigenvalues --   -0.28582  -0.28335  -0.28188  -0.27172  -0.26781
 Alpha  occ. eigenvalues --   -0.26221  -0.26200  -0.26043  -0.25879  -0.25743
 Alpha  occ. eigenvalues --   -0.25405  -0.25289  -0.24694  -0.21011  -0.20982
 Alpha  occ. eigenvalues --   -0.18695  -0.18608
 Alpha virt. eigenvalues --   -0.11262  -0.10697  -0.05275  -0.05242  -0.03936
 Alpha virt. eigenvalues --   -0.03509  -0.02213  -0.01919  -0.00754  -0.00133
 Alpha virt. eigenvalues --    0.00299   0.00377   0.01245   0.01443   0.02377

 Mulliken charges:
               1
     1  Mg  12.000140
     2  C    6.000334
     3  C    5.999905
     4  C    5.999949
     5  C    6.000182
     6  N    7.000115
     7  C    5.999492
     8  C    6.000133
     9  C    5.999888
    10  C    6.000350
    11  C    5.999974
    12  C    5.999948
    13  C    6.000184
    14  H    0.999451
    15  N    6.999846
    16  C    6.000591
    17  C    6.000305
    18  C    6.000290
    19  C    6.000463
    20  C    5.999911
    21  C    6.000263
    22  O    8.000539
    23  C    5.999929
    24  N    6.999898
    25  C    6.000526
    26  C    5.999908
    27  C    6.000055
    28  C    5.999581
    29  C    5.999966
    30  C    6.000046
    31  C    5.999990
    32  N    7.000072
    33  C    5.999550
    34  C    5.999538
    35  C    5.999951
    36  C    5.999519
    37  C    6.000051
    38  C    5.999651
    39  O    7.999067
    40  C    5.999891
    41  C    5.999933
    42  O    7.999909
    43  O    7.999914
    44  C    6.000358
    45  H    1.000200
    46  H    1.000246
    47  H    0.999931
    48  H    0.999781
    49  H    1.000098
    50  H    1.000076
    51  H    0.999926
    52  H    1.000040
    53  H    1.000121
    54  H    1.000032
    55  H    0.999871
    56  H    1.000144
    57  H    1.000335
    58  H    1.000404
    59  H    1.000199
    60  H    1.000174
    61  H    1.000096
    62  H    1.000383
    63  H    1.000136
    64  H    1.000025
    65  H    1.000173
    66  H    1.000200
    67  H    0.999889
    68  H    1.000025
    69  H    0.999987
    70  H    1.000115
    71  H    0.999973
    72  H    1.000014
    73  H    0.999784
    74  H    0.999892
    75  H    0.999545
    76  H    0.999729
    77  H    0.999969
    78  H    0.999784
    79  H    0.999145
    80  Mg  12.000641
    81  C    6.012797
    82  C    5.992507
    83  C    5.984899
    84  C    6.003266
    85  N    7.008255
    86  C    5.966346
    87  C    6.010344
    88  C    5.986255
    89  C    6.031850
    90  C    5.996948
    91  C    5.998949
    92  C    6.002143
    93  H    0.991115
    94  N    6.995257
    95  C    6.035603
    96  C    6.022274
    97  C    6.013573
    98  C    6.029321
    99  C    5.996225
   100  C    6.009198
   101  O    8.018877
   102  C    5.998378
   103  N    7.000587
   104  C    6.028927
   105  C    5.991656
   106  C    6.010092
   107  C    5.965985
   108  C    5.997351
   109  C    6.006328
   110  C    6.001349
   111  N    6.999539
   112  C    5.973133
   113  C    5.968540
   114  C    6.000081
   115  C    5.975544
   116  C    5.999154
   117  C    5.984141
   118  O    7.971136
   119  C    6.001353
   120  C    5.996177
   121  O    7.992995
   122  O    8.000976
   123  C    6.000801
   124  H    1.010302
   125  H    1.006201
   126  H    0.991647
   127  H    1.002837
   128  H    1.005185
   129  H    1.003427
   130  H    1.015000
   131  H    0.999618
   132  H    0.989375
   133  H    1.004931
   134  H    1.002066
   135  H    1.000470
   136  H    1.017278
   137  H    1.017211
   138  H    1.016930
   139  H    1.010563
   140  H    1.011004
   141  H    1.010762
   142  H    0.998067
   143  H    0.998365
   144  H    1.000010
   145  H    0.994193
   146  H    1.008791
   147  H    0.997198
   148  H    0.988141
   149  H    0.994278
   150  H    1.001511
   151  H    1.003514
   152  H    0.982779
   153  H    0.984947
   154  H    0.982947
   155  H    0.991676
   156  H    1.000032
   157  H    0.993724
   158  H    0.994156
 Sum of Mulliken charges = 624.00000

 Dipole moment (field-independent basis, Debye):
    X=              7.1463    Y=             -6.1307    Z=             -3.9673  Tot=             10.2173
 Quadrupole moment (field-independent basis, Debye-Ang):
   XX=           -175.8491   YY=              4.5595   ZZ=              1.6358
   XY=             76.3747   XZ=             47.5362   YZ=              2.7733

 Normal termination of Gaussian 16 at Fri Oct 15 06:01:05 2021.
