 Gaussian 16, Revision A.03,
 Gaussian 16:  ES64L-G16RevA.03 25-Dec-2016

 ---------------------------------------------------------
 #p PBE1PBE/Def2SVP td=(nstates=5, root=1) density=current
 ---------------------------------------------------------

 --------------------------------
 TDDFT excited states in gaussian
 --------------------------------
 Symbolic Z-matrix:
 Charge =  0 Multiplicity = 1

                         Standard orientation:
 ---------------------------------------------------------------------
 Center     Atomic      Atomic             Coordinates (Angstroms)
 Number     Number       Type             X           Y           Z
 ---------------------------------------------------------------------
      1         12           0       -0.737706    0.055767   -0.555699
      2          6           0        2.785459   -0.001306   -0.668025
      3          6           0       -0.652941   -3.326883   -0.158645
      4          6           0       -4.041419    0.195296    0.308862
      5          6           0       -0.460716    3.607358   -0.458264
      6          7           0        0.925522   -1.493901   -0.283637
      7          6           0        2.264854   -1.356435   -0.511110
      8          6           0        3.037154   -2.661663   -0.252622
      9          6           0        1.807516   -3.670023   -0.484404
     10          6           0        0.606937   -2.775407   -0.300376
     11          6           0        1.773336   -4.385555   -1.861494
     12          6           0        3.629820   -2.801539    1.221338
     13          6           0        4.821380   -3.718331    1.451084
     14          1           0        4.702095   -5.039512    2.240246
     15          7           0       -2.259418   -1.362863   -0.012122
     16          6           0       -2.008834   -2.703614   -0.054707
     17          6           0       -3.189038   -3.439465    0.064287
     18          6           0       -4.235287   -2.448343    0.179251
     19          6           0       -3.561065   -1.119421    0.197744
     20          6           0       -3.280020   -4.960453    0.037316
     21          6           0       -5.697407   -2.818052    0.286910
     22          8           0       -6.034200   -4.030051    0.268403
     23          6           0       -6.861944   -1.766392    0.311191
     24          7           0       -1.986707    1.671967   -0.158886
     25          6           0       -3.358423    1.466084    0.150662
     26          6           0       -4.110914    2.762178    0.031516
     27          6           0       -3.019748    3.849849    0.134416
     28          6           0       -1.744742    3.046415   -0.255074
     29          6           0       -4.933227    3.060064   -1.242632
     30          6           0       -2.870494    4.431615    1.637532
     31          6           0       -3.806634    5.545499    2.081544
     32          7           0        0.848775    1.498128   -0.748659
     33          6           0        0.804788    2.883391   -0.700375
     34          6           0        2.069277    3.437416   -0.767398
     35          6           0        2.924057    2.322780   -0.813779
     36          6           0        2.125185    1.167556   -0.774603
     37          6           0        2.370197    4.902952   -0.779418
     38          6           0        4.224871    1.936951   -0.979437
     39          8           0        5.213221    2.599243   -1.227090
     40          6           0        4.207732    0.433290   -0.632841
     41          6           0        4.871471    0.339736    0.708605
     42          8           0        4.493184    0.913085    1.682383
     43          8           0        6.023546   -0.444013    0.623150
     44          6           0        6.778856   -0.426001    1.827374
     45          1           0       -0.688996   -4.415633   -0.237761
     46          1           0       -5.126786    0.296652    0.380063
     47          1           0       -0.468595    4.694015   -0.563721
     48          1           0        3.748742   -2.889014   -1.045678
     49          1           0        1.912502   -4.456519    0.262411
     50          1           0        2.208935   -5.358095   -1.630605
     51          1           0        2.405791   -3.892596   -2.599701
     52          1           0        0.751945   -4.527329   -2.215090
     53          1           0        2.873947   -3.200426    1.897899
     54          1           0        3.819021   -1.787143    1.573160
     55          1           0        5.549706   -3.078326    1.951226
     56          1           0        5.237043   -3.954959    0.471761
     57          1           0       -4.135152   -5.442357   -0.437808
     58          1           0       -3.189106   -5.135181    1.109119
     59          1           0       -2.464828   -5.370297   -0.559037
     60          1           0       -6.865638   -1.208552   -0.624848
     61          1           0       -6.614978   -1.170777    1.189808
     62          1           0       -7.852460   -2.151262    0.553424
     63          1           0       -4.738876    2.832179    0.919104
     64          1           0       -3.200345    4.682996   -0.544911
     65          1           0       -4.551575    3.872121   -1.861259
     66          1           0       -6.001194    2.932742   -1.064396
     67          1           0       -4.744670    2.194859   -1.878016
     68          1           0       -1.836939    4.775169    1.599747
     69          1           0       -2.960129    3.632003    2.373090
     70          1           0       -4.283449    5.258492    3.018372
     71          1           0       -4.571373    5.696776    1.319204
     72          1           0       -3.259609    6.465806    2.287872
     73          1           0        3.141265    5.054961   -0.024694
     74          1           0        1.520617    5.509565   -0.463407
     75          1           0        2.757673    5.248743   -1.737900
     76          1           0        4.795213   -0.091626   -1.385332
     77          1           0        7.529297    0.362399    1.776206
     78          1           0        7.412864   -1.304111    1.955855
     79          1           0        6.157074   -0.261691    2.705769
 ---------------------------------------------------------------------

 SCF Done:  E(RPBE1PBE) =  -2033.66514298     A.U. after   16 cycles

 Excitation energies and oscillator strengths:

 Excited State   1:      Singlet-A      1.8621 eV  665.85 nm  f=0.3863  <S**2>=0.000
     155 ->158        -0.18186
     156 ->157         0.68866
     156 <-157        -0.10551
 This state for optimization and/or second-order correction.
 Total Energy, E(TD-HF/TD-DFT) =  -2033.59671371
 Copying the excited state density for this state as the 1-particle RhoCI density.

 Excited State   2:      Singlet-A      2.1541 eV  575.57 nm  f=0.1182  <S**2>=0.000
     155 ->157         0.65690
     156 ->158         0.24319

 Excited State   3:      Singlet-A      2.6287 eV  471.65 nm  f=0.0013  <S**2>=0.000
     154 ->157         0.68050
     154 ->159         0.13486

 Excited State   4:      Singlet-A      2.7182 eV  456.13 nm  f=0.0001  <S**2>=0.000
     151 ->157         0.12326
     152 ->157         0.50419
     152 ->159        -0.11758
     153 ->157        -0.44147

 Excited State   5:      Singlet-A      2.8413 eV  436.36 nm  f=0.0068  <S**2>=0.000
     152 ->157         0.45409
     153 ->157         0.52925

 The electronic state is 1-A.
 Alpha  occ. eigenvalues --  -46.93698 -19.26017 -19.21084 -19.18361 -19.18164
 Alpha  occ. eigenvalues --  -14.42506 -14.42341 -14.39447 -14.38839 -10.36683
 Alpha  occ. eigenvalues --  -10.32233 -10.30463 -10.30115 -10.30103 -10.29457
 Alpha  occ. eigenvalues --  -10.28541 -10.28362 -10.28203 -10.27924 -10.27692
 Alpha  occ. eigenvalues --  -10.27053 -10.26589 -10.26220 -10.25971 -10.25842
 Alpha  occ. eigenvalues --  -10.25835 -10.25701 -10.25667 -10.25611 -10.25502
 Alpha  occ. eigenvalues --  -10.25465 -10.25256 -10.25218 -10.25017 -10.24931
 Alpha  occ. eigenvalues --  -10.24176 -10.24060 -10.23995 -10.23668 -10.23557
 Alpha  occ. eigenvalues --  -10.23288 -10.23107 -10.21878  -3.15578  -1.88415
 Alpha  occ. eigenvalues --   -1.87944  -1.87795  -1.12362  -1.04828  -1.04295
 Alpha  occ. eigenvalues --   -1.02062  -1.00337  -0.99349  -0.98602  -0.96528
 Alpha  occ. eigenvalues --   -0.88722  -0.83227  -0.83029  -0.82989  -0.81932
 Alpha  occ. eigenvalues --   -0.81425  -0.80221  -0.78655  -0.77921  -0.77173
 Alpha  occ. eigenvalues --   -0.76157  -0.75014  -0.74588  -0.72398  -0.71704
 Alpha  occ. eigenvalues --   -0.71220  -0.70279  -0.70050  -0.68073  -0.66697
 Alpha  occ. eigenvalues --   -0.63917  -0.62917  -0.62795  -0.61646  -0.60685
 Alpha  occ. eigenvalues --   -0.59798  -0.59288  -0.58773  -0.57357  -0.55026
 Alpha  occ. eigenvalues --   -0.54725  -0.54144  -0.53779  -0.53556  -0.52715
 Alpha  occ. eigenvalues --   -0.51129  -0.50190  -0.49859  -0.49664  -0.48448
 Alpha  occ. eigenvalues --   -0.48161  -0.47812  -0.47339  -0.47226  -0.46687
 Alpha  occ. eigenvalues --   -0.46428  -0.46055  -0.45786  -0.45478  -0.45153
 Alpha  occ. eigenvalues --   -0.44719  -0.44479  -0.44342  -0.43988  -0.43640
 Alpha  occ. eigenvalues --   -0.43549  -0.43099  -0.42651  -0.42023  -0.41891
 Alpha  occ. eigenvalues --   -0.41703  -0.41283  -0.41131  -0.41087  -0.40793
 Alpha  occ. eigenvalues --   -0.40546  -0.40063  -0.39846  -0.39502  -0.39410
 Alpha  occ. eigenvalues --   -0.38660  -0.38629  -0.38163  -0.38005  -0.37782
 Alpha  occ. eigenvalues --   -0.37417  -0.37296  -0.37087  -0.36403  -0.36205
 Alpha  occ. eigenvalues --   -0.36008  -0.35841  -0.35385  -0.35218  -0.34361
 Alpha  occ. eigenvalues --   -0.33489  -0.32826  -0.32632  -0.32082  -0.31911
 Alpha  occ. eigenvalues --   -0.31607  -0.30389  -0.30254  -0.29015  -0.27085
 Alpha  occ. eigenvalues --   -0.25700  -0.25341  -0.25237  -0.24624  -0.21310
 Alpha  occ. eigenvalues --   -0.19631
 Alpha virt. eigenvalues --   -0.11992  -0.05984  -0.04275  -0.01862  -0.01395
 Alpha virt. eigenvalues --    0.00104   0.00751   0.01248   0.03112   0.03921
 Alpha virt. eigenvalues --    0.04196   0.05259   0.06223   0.06624   0.06865

 Mulliken charges:
               1
     1  Mg   0.944058
     2  C   -0.013830
     3  C   -0.057500
     4  C   -0.077421
     5  C   -0.075958
     6  N   -0.347138
     7  C    0.021863
     8  C   -0.064970
     9  C   -0.179565
    10  C    0.105817
    11  C    0.023208
    12  C   -0.016170
    13  C   -0.118641
    14  H    0.051748
    15  N   -0.460205
    16  C    0.141573
    17  C   -0.174138
    18  C   -0.084502
    19  C    0.175340
    20  C    0.075139
    21  C    0.033657
    22  O   -0.277741
    23  C   -0.024299
    24  N   -0.462726
    25  C    0.112224
    26  C   -0.121210
    27  C   -0.147536
    28  C    0.108545
    29  C    0.048017
    30  C   -0.046956
    31  C   -0.037837
    32  N   -0.429193
    33  C    0.133498
    34  C   -0.178957
    35  C    0.038020
    36  C    0.144797
    37  C    0.088083
    38  C    0.034589
    39  O   -0.219274
    40  C   -0.113395
    41  C    0.278722
    42  O   -0.216534
    43  O   -0.360708
    44  C    0.106287
    45  H   -0.000137
    46  H   -0.005417
    47  H    0.015005
    48  H    0.041657
    49  H    0.053974
    50  H    0.044654
    51  H    0.047995
    52  H    0.052102
    53  H    0.053161
    54  H    0.063879
    55  H    0.060579
    56  H    0.050273
    57  H    0.070929
    58  H    0.069356
    59  H    0.033429
    60  H    0.070337
    61  H    0.055307
    62  H    0.051297
    63  H    0.045857
    64  H    0.041103
    65  H    0.055093
    66  H    0.050841
    67  H    0.026699
    68  H    0.038216
    69  H    0.045872
    70  H    0.042710
    71  H    0.040674
    72  H    0.049414
    73  H    0.060833
    74  H    0.028241
    75  H    0.067537
    76  H    0.051132
    77  H    0.052218
    78  H    0.051111
    79  H    0.065284
 Sum of Mulliken charges =  -0.00000

 Dipole moment (field-independent basis, Debye):
    X=             -1.5064    Y=              0.9477    Z=             -0.6296  Tot=              1.8878
 Quadrupole moment (field-independent basis, Debye-Ang):
   XX=           -271.3488   YY=           -248.0824   ZZ=           -254.8296
   XY=            -50.9510   XZ=              9.3085   YZ=              4.5948

 Normal termination of Gaussian 16 at Wed Oct 13 13:44:46 2021.
