 Gaussian 16, Revision A.03,
 Gaussian 16:  ES64L-G16RevA.03 25-Dec-2016

 --------------------------------------------------------
 #p PBE1PBE/Def2SVP td=(nstates=5) density=(transition=1)
 --------------------------------------------------------

 --------------------------------
 TDDFT excited states in gaussian
 --------------------------------
 Symbolic Z-matrix:
 Charge =  0 Multiplicity = 1

                         Standard orientation:
 ---------------------------------------------------------------------
 Center     Atomic      Atomic             Coordinates (Angstroms)
 Number     Number       Type             X           Y           Z
 ---------------------------------------------------------------------
      1         12           0       19.464134   -0.835156   -0.126561
      2          6           0       21.300559    2.192573   -0.192961
      3          6           0       17.323932    0.792503    2.107015
      4          6           0       17.582722   -3.524216   -0.032884
      5          6           0       22.125498   -2.452681   -1.672742
      6          7           0       19.350943    1.256512    0.786205
      7          6           0       20.106297    2.355023    0.507200
      8          6           0       19.723351    3.643597    1.255084
      9          6           0       18.474657    3.052600    2.085899
     10          6           0       18.414042    1.625174    1.628770
     11          6           0       18.653454    3.104858    3.654805
     12          6           0       19.319407    4.810554    0.296091
     13          6           0       20.124180    6.090291    0.105298
     14          1           0       19.436824    7.428153   -0.133793
     15          7           0       17.646626   -1.308881    0.828057
     16          6           0       16.952201   -0.532562    1.767030
     17          6           0       15.863182   -1.338534    2.272016
     18          6           0       15.816266   -2.531421    1.554767
     19          6           0       17.013557   -2.472321    0.693755
     20          6           0       14.900253   -0.715037    3.223848
     21          6           0       14.878926   -3.734637    1.651457
     22          8           0       14.974909   -4.756524    0.965017
     23          6           0       13.698371   -3.596645    2.529927
     24          7           0       19.813697   -2.761788   -0.659668
     25          6           0       18.812300   -3.690045   -0.732421
     26          6           0       19.219507   -4.887253   -1.656696
     27          6           0       20.652109   -4.546528   -2.046073
     28          6           0       20.932478   -3.181389   -1.358532
     29          6           0       19.003566   -6.288429   -0.996946
     30          6           0       20.774413   -4.501003   -3.576796
     31          6           0       21.951683   -5.147666   -4.211215
     32          7           0       21.384144   -0.329581   -0.724415
     33          6           0       22.345588   -1.071168   -1.363148
     34          6           0       23.501999   -0.280837   -1.662783
     35          6           0       23.143139    1.112397   -1.313829
     36          6           0       21.813532    0.991912   -0.746901
     37          6           0       24.810791   -0.798911   -2.283271
     38          6           0       23.560791    2.536643   -1.277619
     39          8           0       24.554377    3.094009   -1.774104
     40          6           0       22.362122    3.273708   -0.549978
     41          6           0       23.092084    3.864066    0.615782
     42          8           0       23.336649    3.351935    1.701452
     43          8           0       23.367689    5.121425    0.401411
     44          6           0       24.231152    5.858501    1.355742
     45          1           0       16.666621    1.464161    2.662550
     46          1           0       17.079636   -4.492889   -0.052364
     47          1           0       22.920242   -2.961871   -2.221224
     48          1           0       20.544939    3.890244    1.928752
     49          1           0       17.481415    3.452966    1.880380
     50          1           0       19.660848    3.272645    4.034749
     51          1           0       18.330257    2.162167    4.094976
     52          1           0       18.012394    3.895242    4.045664
     53          1           0       18.340471    5.154446    0.630438
     54          1           0       19.230100    4.444213   -0.725820
     55          1           0       20.602300    5.877847   -0.851040
     56          1           0       20.767583    6.076776    0.985101
     57          1           0       13.891921   -0.674365    2.814198
     58          1           0       15.196797    0.304571    3.471240
     59          1           0       14.812259   -1.257324    4.164786
     60          1           0       13.185158   -2.661751    2.304428
     61          1           0       13.971508   -3.438228    3.573290
     62          1           0       12.953136   -4.382286    2.409609
     63          1           0       18.510959   -4.777186   -2.477475
     64          1           0       21.340988   -5.333783   -1.740292
     65          1           0       18.453289   -6.260741   -0.056567
     66          1           0       19.929694   -6.815542   -0.770744
     67          1           0       18.561750   -6.971696   -1.722088
     68          1           0       20.797485   -3.430374   -3.776032
     69          1           0       19.947015   -4.964254   -4.113734
     70          1           0       22.403842   -4.359599   -4.812923
     71          1           0       21.646015   -6.048100   -4.743934
     72          1           0       22.750948   -5.423470   -3.522975
     73          1           0       25.489083   -1.093829   -1.483468
     74          1           0       25.229589   -0.007404   -2.904555
     75          1           0       24.654879   -1.693746   -2.886215
     76          1           0       22.017864    4.053380   -1.229220
     77          1           0       23.828224    5.914476    2.366394
     78          1           0       24.485133    6.869558    1.037980
     79          1           0       25.239452    5.473336    1.504558
     80         12           0      -20.143040   -0.542280    0.110742
     81          6           0      -19.814519    2.524207   -1.595407
     82          6           0      -19.661283    1.232071    3.037210
     83          6           0      -20.319786   -3.451802    1.887828
     84          6           0      -20.256725   -2.179188   -2.817889
     85          7           0      -19.809829    1.664958    0.663849
     86          6           0      -19.846078    2.771431   -0.176154
     87          6           0      -19.913166    4.049735    0.635144
     88          6           0      -19.496547    3.591581    2.080022
     89          6           0      -19.682398    2.099780    1.916542
     90          6           0      -18.065887    4.055838    2.560573
     91          6           0      -21.317356    4.671119    0.671040
     92          6           0      -21.359587    6.202852    0.651562
     93          1           0      -20.859192    6.974084    1.904509
     94          7           0      -20.100962   -1.039403    2.165186
     95          6           0      -19.851503   -0.140946    3.145511
     96          6           0      -19.750973   -0.838325    4.386259
     97          6           0      -20.077449   -2.221084    4.166205
     98          6           0      -20.123410   -2.287145    2.716170
     99          6           0      -19.413141   -0.137537    5.672864
    100          6           0      -20.188981   -3.408033    5.123249
    101          8           0      -20.651659   -4.509761    4.753557
    102          6           0      -19.676017   -3.356796    6.557930
    103          7           0      -20.358977   -2.496072   -0.388340
    104          6           0      -20.340113   -3.569587    0.496991
    105          6           0      -20.390125   -4.843592   -0.282260
    106          6           0      -20.442963   -4.514253   -1.817514
    107          6           0      -20.396336   -2.981159   -1.714377
    108          6           0      -19.329517   -5.905588    0.137006
    109          6           0      -21.700850   -5.010661   -2.562800
    110          6           0      -21.497289   -6.357521   -3.283207
    111          7           0      -20.015900   -0.023281   -1.793313
    112          6           0      -20.140282   -0.776445   -2.959928
    113          6           0      -20.113527    0.074299   -4.207045
    114          6           0      -19.951329    1.354371   -3.652749
    115          6           0      -19.952523    1.261645   -2.223819
    116          6           0      -20.232191   -0.407260   -5.641553
    117          6           0      -19.814878    2.748943   -4.045074
    118          8           0      -19.755783    3.273179   -5.158058
    119          6           0      -19.845398    3.560632   -2.681023
    120          6           0      -18.610154    4.481232   -2.730544
    121          8           0      -17.509244    4.189537   -3.150177
    122          8           0      -19.002052    5.768625   -2.368509
    123          6           0      -17.898246    6.728640   -2.389195
    124          1           0      -19.586296    1.832427    3.946068
    125          1           0      -20.396002   -4.436530    2.353127
    126          1           0      -20.176166   -2.792818   -3.717183
    127          1           0      -19.214142    4.824335    0.320729
    128          1           0      -20.141226    3.960281    2.877908
    129          1           0      -17.544044    4.740200    1.891053
    130          1           0      -17.323494    3.272243    2.710109
    131          1           0      -18.136324    4.619401    3.490931
    132          1           0      -21.874097    4.342254    1.548227
    133          1           0      -21.888333    4.384400   -0.212294
    134          1           0      -22.348566    6.579196    0.390420
    135          1           0      -20.775019    6.603485   -0.176353
    136          1           0      -18.536643    0.442842    5.384355
    137          1           0      -19.106077   -0.751162    6.519663
    138          1           0      -20.175421    0.553904    6.031216
    139          1           0      -18.655172   -2.975886    6.591968
    140          1           0      -19.750121   -4.401424    6.859839
    141          1           0      -20.284588   -2.690437    7.169235
    142          1           0      -21.273572   -5.382124    0.062022
    143          1           0      -19.562257   -4.814533   -2.386683
    144          1           0      -18.698524   -5.457443    0.904851
    145          1           0      -18.708096   -6.140639   -0.726690
    146          1           0      -19.925449   -6.730439    0.529061
    147          1           0      -22.048125   -4.191032   -3.191463
    148          1           0      -22.494096   -5.263303   -1.858874
    149          1           0      -20.684362   -6.909210   -2.810687
    150          1           0      -21.176923   -6.311298   -4.324204
    151          1           0      -22.405380   -6.947044   -3.153539
    152          1           0      -21.270042   -0.702877   -5.796107
    153          1           0      -19.625385   -1.275060   -5.899272
    154          1           0      -19.976572    0.452094   -6.261245
    155          1           0      -20.733092    4.170501   -2.514271
    156          1           0      -17.352266    6.818645   -1.449613
    157          1           0      -18.377605    7.666025   -2.671030
    158          1           0      -17.073847    6.576341   -3.085790
 ---------------------------------------------------------------------

 SCF Done:  E(RPBE1PBE) =  -4067.40224262     A.U. after   16 cycles

 Excitation energies and oscillator strengths:

 Excited State   1:      Singlet-A      1.8492 eV  670.49 nm  f=0.3590  <S**2>=0.000
     309 -> 316       -0.18104
     312 -> 313        0.69124
     312 <- 313       -0.10445
 This state for optimization and/or second-order correction.
 Total Energy, E(TD-HF/TD-DFT) =  -4067.33428701
 Copying the excited state density for this state as the 1-particle RhoCI density.

 Excited State   2:      Singlet-A      1.8638 eV  665.21 nm  f=0.3728  <S**2>=0.000
     310 -> 315        0.18321
     311 -> 314        0.68959

 Excited State   3:      Singlet-A      1.9925 eV  622.26 nm  f=0.0000  <S**2>=0.000
     312 -> 314        0.70710

 Excited State   4:      Singlet-A      2.0045 eV  618.52 nm  f=0.0000  <S**2>=0.000
     311 -> 313        0.70711

 Excited State   5:      Singlet-A      2.2118 eV  560.55 nm  f=0.1035  <S**2>=0.000
     310 -> 314        0.65039
     311 -> 315       -0.26769

 The electronic state is 1-A.
 Alpha  occ. eigenvalues --  -46.91968 -46.91105 -19.26440 -19.25965 -19.20649
 Alpha  occ. eigenvalues --  -19.19518 -19.19399 -19.19378 -19.19365 -19.18502
 Alpha  occ. eigenvalues --  -14.42064 -14.41959 -14.41564 -14.40996 -14.39627
 Alpha  occ. eigenvalues --  -14.39364 -14.39099 -14.38865 -10.36740 -10.35719
 Alpha  occ. eigenvalues --  -10.32927 -10.32863 -10.32818 -10.32307 -10.29331
 Alpha  occ. eigenvalues --  -10.29218 -10.29157 -10.28950 -10.28860 -10.28742
 Alpha  occ. eigenvalues --  -10.28493 -10.28491 -10.28419 -10.28399 -10.28257
 Alpha  occ. eigenvalues --  -10.28225 -10.28193 -10.28049 -10.27109 -10.27105
 Alpha  occ. eigenvalues --  -10.26999 -10.26904 -10.26846 -10.26658 -10.26632
 Alpha  occ. eigenvalues --  -10.26620 -10.26492 -10.26486 -10.26430 -10.26398
 Alpha  occ. eigenvalues --  -10.26211 -10.26186 -10.26166 -10.25928 -10.25922
 Alpha  occ. eigenvalues --  -10.25886 -10.25790 -10.25738 -10.25355 -10.25349
 Alpha  occ. eigenvalues --  -10.25147 -10.25070 -10.25010 -10.24939 -10.24898
 Alpha  occ. eigenvalues --  -10.24663 -10.24535 -10.24347 -10.24134 -10.24082
 Alpha  occ. eigenvalues --  -10.24052 -10.23966 -10.23942 -10.23861 -10.23814
 Alpha  occ. eigenvalues --  -10.23771 -10.23640 -10.23537 -10.23537 -10.23459
 Alpha  occ. eigenvalues --  -10.23369 -10.23310 -10.23198 -10.23061 -10.22941
 Alpha  occ. eigenvalues --  -10.22363  -3.14143  -3.13461  -1.86985  -1.86519
 Alpha  occ. eigenvalues --   -1.86370  -1.86302  -1.85812  -1.85729  -1.12654
 Alpha  occ. eigenvalues --   -1.11082  -1.04534  -1.04035  -1.03573  -1.03363
 Alpha  occ. eigenvalues --   -1.03030  -1.01358  -1.00046  -0.99289  -0.98454
 Alpha  occ. eigenvalues --   -0.98273  -0.97842  -0.97445  -0.96302  -0.96129
 Alpha  occ. eigenvalues --   -0.86969  -0.86322  -0.83845  -0.83710  -0.83349
 Alpha  occ. eigenvalues --   -0.83226  -0.82955  -0.82617  -0.81875  -0.81853
 Alpha  occ. eigenvalues --   -0.81252  -0.81094  -0.80531  -0.79526  -0.78694
 Alpha  occ. eigenvalues --   -0.78674  -0.77924  -0.77897  -0.77182  -0.76684
 Alpha  occ. eigenvalues --   -0.76611  -0.75875  -0.75288  -0.75205  -0.74853
 Alpha  occ. eigenvalues --   -0.74422  -0.72882  -0.72731  -0.71875  -0.71823
 Alpha  occ. eigenvalues --   -0.71598  -0.71211  -0.70605  -0.70495  -0.69498
 Alpha  occ. eigenvalues --   -0.69441  -0.67190  -0.66802  -0.66237  -0.66108
 Alpha  occ. eigenvalues --   -0.63742  -0.63501  -0.63291  -0.62676  -0.62659
 Alpha  occ. eigenvalues --   -0.62250  -0.61705  -0.61272  -0.60218  -0.60211
 Alpha  occ. eigenvalues --   -0.59957  -0.59728  -0.59401  -0.59038  -0.58805
 Alpha  occ. eigenvalues --   -0.58788  -0.57182  -0.57098  -0.55273  -0.54929
 Alpha  occ. eigenvalues --   -0.54658  -0.54012  -0.53634  -0.53545  -0.53193
 Alpha  occ. eigenvalues --   -0.53123  -0.52435  -0.52313  -0.52292  -0.52067
 Alpha  occ. eigenvalues --   -0.51143  -0.50656  -0.50216  -0.50045  -0.49761
 Alpha  occ. eigenvalues --   -0.49630  -0.49092  -0.48907  -0.48820  -0.48438
 Alpha  occ. eigenvalues --   -0.48414  -0.48122  -0.47919  -0.47728  -0.47519
 Alpha  occ. eigenvalues --   -0.47425  -0.47248  -0.47185  -0.46904  -0.46750
 Alpha  occ. eigenvalues --   -0.46726  -0.46456  -0.46236  -0.46109  -0.45840
 Alpha  occ. eigenvalues --   -0.45341  -0.45163  -0.44990  -0.44662  -0.44626
 Alpha  occ. eigenvalues --   -0.44606  -0.44432  -0.44393  -0.44230  -0.44032
 Alpha  occ. eigenvalues --   -0.43933  -0.43725  -0.43567  -0.43547  -0.43490
 Alpha  occ. eigenvalues --   -0.43180  -0.43149  -0.42877  -0.42827  -0.42745
 Alpha  occ. eigenvalues --   -0.42621  -0.42387  -0.42226  -0.42215  -0.42138
 Alpha  occ. eigenvalues --   -0.41529  -0.41414  -0.41279  -0.41277  -0.41018
 Alpha  occ. eigenvalues --   -0.40993  -0.40817  -0.40665  -0.40658  -0.40350
 Alpha  occ. eigenvalues --   -0.40284  -0.40223  -0.40022  -0.39819  -0.39764
 Alpha  occ. eigenvalues --   -0.39534  -0.39441  -0.39329  -0.39222  -0.39161
 Alpha  occ. eigenvalues --   -0.39059  -0.38878  -0.38812  -0.38433  -0.38335
 Alpha  occ. eigenvalues --   -0.38084  -0.37995  -0.37961  -0.37900  -0.37713
 Alpha  occ. eigenvalues --   -0.37509  -0.37389  -0.37196  -0.36793  -0.36710
 Alpha  occ. eigenvalues --   -0.36590  -0.36441  -0.36425  -0.36322  -0.36114
 Alpha  occ. eigenvalues --   -0.36104  -0.35920  -0.35733  -0.35482  -0.35359
 Alpha  occ. eigenvalues --   -0.35212  -0.35036  -0.34829  -0.34695  -0.34430
 Alpha  occ. eigenvalues --   -0.33731  -0.33430  -0.33360  -0.32968  -0.32919
 Alpha  occ. eigenvalues --   -0.32261  -0.32257  -0.31893  -0.31746  -0.31705
 Alpha  occ. eigenvalues --   -0.31357  -0.30880  -0.30383  -0.29893  -0.29697
 Alpha  occ. eigenvalues --   -0.28869  -0.28472  -0.28093  -0.27272  -0.26735
 Alpha  occ. eigenvalues --   -0.26352  -0.26337  -0.26093  -0.25957  -0.25824
 Alpha  occ. eigenvalues --   -0.25713  -0.25564  -0.24699  -0.20890  -0.20827
 Alpha  occ. eigenvalues --   -0.18790  -0.18732
 Alpha virt. eigenvalues --   -0.11094  -0.11072  -0.05399  -0.05279  -0.04400
 Alpha virt. eigenvalues --   -0.04261  -0.02666  -0.02289  -0.00178   0.00268
 Alpha virt. eigenvalues --    0.00485   0.01058   0.01301   0.01609   0.01619

 Mulliken charges:
               1
     1  Mg  11.999891
     2  C    6.000349
     3  C    5.999909
     4  C    5.999517
     5  C    6.000212
     6  N    7.000239
     7  C    5.999345
     8  C    6.000286
     9  C    5.999800
    10  C    6.000627
    11  C    5.999905
    12  C    6.000073
    13  C    6.000058
    14  H    0.999842
    15  N    6.999857
    16  C    6.000702
    17  C    6.000335
    18  C    6.000426
    19  C    6.000491
    20  C    5.999851
    21  C    6.000251
    22  O    8.000565
    23  C    5.999911
    24  N    6.999763
    25  C    6.000810
    26  C    5.999908
    27  C    6.000133
    28  C    5.999436
    29  C    5.999939
    30  C    6.000052
    31  C    6.000008
    32  N    6.999995
    33  C    5.999382
    34  C    5.999408
    35  C    5.999953
    36  C    5.999382
    37  C    6.000053
    38  C    5.999632
    39  O    7.999448
    40  C    5.999987
    41  C    6.000002
    42  O    7.999849
    43  O    7.999962
    44  C    6.000057
    45  H    1.000286
    46  H    1.000063
    47  H    0.999782
    48  H    0.999994
    49  H    0.999975
    50  H    1.000266
    51  H    0.999944
    52  H    1.000149
    53  H    0.999824
    54  H    0.999991
    55  H    1.000071
    56  H    1.000022
    57  H    1.000364
    58  H    1.000314
    59  H    1.000435
    60  H    1.000098
    61  H    1.000196
    62  H    1.000304
    63  H    0.999965
    64  H    0.999960
    65  H    0.999913
    66  H    1.000158
    67  H    1.000046
    68  H    1.000056
    69  H    0.999760
    70  H    1.000042
    71  H    0.999863
    72  H    1.000036
    73  H    0.999617
    74  H    0.999685
    75  H    0.999624
    76  H    0.999811
    77  H    0.999895
    78  H    0.999899
    79  H    0.999985
    80  Mg  11.999492
    81  C    5.982687
    82  C    6.010350
    83  C    6.017363
    84  C    5.990983
    85  N    6.993793
    86  C    6.031681
    87  C    5.990626
    88  C    6.010404
    89  C    5.968218
    90  C    6.003017
    91  C    5.996897
    92  C    5.998741
    93  H    1.009287
    94  N    7.003712
    95  C    5.965369
    96  C    5.975574
    97  C    5.986768
    98  C    5.971354
    99  C    6.002122
   100  C    5.988922
   101  O    7.973521
   102  C    6.003262
   103  N    7.005982
   104  C    5.967799
   105  C    6.008825
   106  C    5.988794
   107  C    6.030361
   108  C    6.001923
   109  C    5.996295
   110  C    5.999963
   111  N    7.000381
   112  C    6.033986
   113  C    6.032317
   114  C    5.999096
   115  C    6.029059
   116  C    6.000642
   117  C    6.016477
   118  O    8.029160
   119  C    6.000141
   120  C    6.006331
   121  O    8.002155
   122  O    8.002319
   123  C    5.997667
   124  H    0.990414
   125  H    0.993802
   126  H    1.009301
   127  H    1.000435
   128  H    0.999152
   129  H    0.986905
   130  H    1.000964
   131  H    0.997784
   132  H    1.011452
   133  H    0.993495
   134  H    1.000428
   135  H    0.996119
   136  H    0.984616
   137  H    0.985050
   138  H    0.979369
   139  H    0.993476
   140  H    0.987428
   141  H    0.992574
   142  H    0.999026
   143  H    1.001301
   144  H    1.004852
   145  H    0.989759
   146  H    0.998637
   147  H    0.994375
   148  H    1.009871
   149  H    1.005902
   150  H    0.998358
   151  H    1.004146
   152  H    1.017845
   153  H    1.017695
   154  H    1.011509
   155  H    1.007880
   156  H    1.007008
   157  H    1.003541
   158  H    1.001712
 Sum of Mulliken charges = 624.00000

 Dipole moment (field-independent basis, Debye):
    X=             -0.5374    Y=              2.5687    Z=             -9.7732  Tot=             10.1194
 Quadrupole moment (field-independent basis, Debye-Ang):
   XX=              7.1550   YY=              0.7909   ZZ=             -4.2685
   XY=            -52.6131   XZ=            198.3884   YZ=              5.2431

 Normal termination of Gaussian 16 at Fri Oct 15 14:09:31 2021.
