 Gaussian 16, Revision A.03,
 Gaussian 16:  ES64L-G16RevA.03 25-Dec-2016

 --------------------------------------------------------
 #p PBE1PBE/Def2SVP td=(nstates=5) density=(transition=1)
 --------------------------------------------------------

 --------------------------------
 TDDFT excited states in gaussian
 --------------------------------
 Symbolic Z-matrix:
 Charge =  0 Multiplicity = 1

                         Standard orientation:
 ---------------------------------------------------------------------
 Center     Atomic      Atomic             Coordinates (Angstroms)
 Number     Number       Type             X           Y           Z
 ---------------------------------------------------------------------
      1         12           0       28.106902    0.343034   -0.198104
      2          6           0       25.606566   -1.938347    0.167435
      3          6           0       25.656833    2.790791   -0.384899
      4          6           0       30.575700    2.618343   -0.173602
      5          6           0       30.486054   -2.101199    0.668574
      6          7           0       25.878282    0.426744    0.145723
      7          6           0       25.109398   -0.677193    0.232422
      8          6           0       23.673845   -0.356681    0.436960
      9          6           0       23.674978    1.193192   -0.137841
     10          6           0       25.180876    1.530529   -0.138731
     11          6           0       22.967773    1.326452   -1.518818
     12          6           0       23.338101   -0.427124    1.918201
     13          6           0       24.185790    0.447139    2.953973
     14          1           0       23.496233    1.143866    4.120369
     15          7           0       28.127305    2.403691   -0.267177
     16          6           0       27.007388    3.245798   -0.483786
     17          6           0       27.512157    4.553203   -0.740786
     18          6           0       28.897972    4.571794   -0.643231
     19          6           0       29.300540    3.177530   -0.393144
     20          6           0       26.515608    5.654396   -1.040874
     21          6           0       29.809176    5.774526   -0.701303
     22          8           0       29.238634    6.880903   -0.870500
     23          6           0       31.196950    5.792081   -0.380661
     24          7           0       30.205963    0.278944    0.412703
     25          6           0       31.018172    1.363717    0.258139
     26          6           0       32.480529    1.028230    0.637166
     27          6           0       32.415747   -0.512914    0.906726
     28          6           0       30.934259   -0.797963    0.726896
     29          6           0       33.486555    1.432346   -0.419317
     30          6           0       32.983565   -0.874792    2.381232
     31          6           0       33.866998   -2.126976    2.420768
     32          7           0       28.134985   -1.689027    0.330526
     33          6           0       29.143264   -2.590761    0.452549
     34          6           0       28.542387   -3.896445    0.420783
     35          6           0       27.120174   -3.751906    0.266154
     36          6           0       26.937437   -2.379099    0.244767
     37          6           0       29.232107   -5.169851    0.772911
     38          6           0       25.834440   -4.370587    0.219607
     39          8           0       25.644897   -5.593437    0.227979
     40          6           0       24.831818   -3.235924    0.118820
     41          6           0       24.045155   -3.410361   -1.126382
     42          8           0       23.431026   -4.444638   -1.299835
     43          8           0       24.021270   -2.319190   -1.940234
     44          6           0       23.228601   -2.471372   -3.161885
     45          1           0       24.905396    3.510024   -0.716965
     46          1           0       31.373621    3.327060   -0.404158
     47          1           0       31.177316   -2.941767    0.761829
     48          1           0       22.930864   -0.981104   -0.059303
     49          1           0       23.034000    1.833191    0.469896
     50          1           0       22.143028    2.034624   -1.447714
     51          1           0       22.546051    0.348375   -1.751887
     52          1           0       23.625307    1.607400   -2.342532
     53          1           0       23.323497   -1.482675    2.190455
     54          1           0       22.267894   -0.220695    1.917922
     55          1           0       24.750406    1.274452    2.523813
     56          1           0       24.825700   -0.310828    3.404810
     57          1           0       26.194168    6.025447   -0.067503
     58          1           0       25.650509    5.220170   -1.540466
     59          1           0       26.875790    6.480206   -1.655128
     60          1           0       31.508090    6.757250    0.020262
     61          1           0       31.835928    5.425409   -1.185037
     62          1           0       31.285384    5.143137    0.489577
     63          1           0       32.625128    1.579966    1.566683
     64          1           0       32.918066   -1.042876    0.097685
     65          1           0       33.057779    1.994893   -1.248221
     66          1           0       34.193896    0.713363   -0.831754
     67          1           0       34.041466    2.227439    0.079537
     68          1           0       32.204898   -1.035287    3.126973
     69          1           0       33.533569   -0.044135    2.823147
     70          1           0       34.898428   -1.806697    2.565464
     71          1           0       33.839187   -2.593436    1.435783
     72          1           0       33.585920   -2.821740    3.212373
     73          1           0       29.988288   -5.541012    0.082202
     74          1           0       28.432556   -5.902491    0.889016
     75          1           0       29.772133   -5.096511    1.716950
     76          1           0       24.170214   -3.340370    0.979242
     77          1           0       22.210203   -2.726260   -2.867228
     78          1           0       23.651547   -3.186684   -3.867436
     79          1           0       23.284711   -1.569179   -3.770807
     80         12           0      -28.255280    0.427808    0.275554
     81          6           0      -26.404678   -2.285515   -1.043419
     82          6           0      -27.799945    2.038124   -2.655114
     83          6           0      -29.855073    2.960625    1.596086
     84          6           0      -27.960728   -1.146058    3.485543
     85          7           0      -27.115248   -0.012876   -1.650588
     86          6           0      -26.681681   -1.282062   -1.995495
     87          6           0      -26.435522   -1.269562   -3.465551
     88          6           0      -26.340973    0.211734   -3.832487
     89          6           0      -27.153526    0.833333   -2.669098
     90          6           0      -24.846773    0.707162   -3.792215
     91          6           0      -27.515529   -2.047033   -4.393834
     92          6           0      -27.040711   -2.936268   -5.583652
     93          1           0      -26.015143   -2.301580   -6.566933
     94          7           0      -28.737832    2.272471   -0.473721
     95          6           0      -28.479182    2.710185   -1.670627
     96          6           0      -28.980786    4.091396   -1.775214
     97          6           0      -29.787128    4.336872   -0.622695
     98          6           0      -29.464318    3.175127    0.253542
     99          6           0      -28.757245    5.133178   -2.931123
    100          6           0      -30.742068    5.478028   -0.273815
    101          8           0      -31.293491    5.616798    0.834713
    102          6           0      -30.865850    6.585211   -1.209380
    103          7           0      -28.675126    0.902352    2.362219
    104          6           0      -29.480892    2.009148    2.616228
    105          6           0      -29.970746    1.950520    4.114512
    106          6           0      -29.458026    0.572631    4.602480
    107          6           0      -28.674748    0.039682    3.400673
    108          6           0      -29.560540    3.179716    4.925918
    109          6           0      -30.525159   -0.386175    5.187919
    110          6           0      -30.136022   -1.227942    6.425560
    111          7           0      -27.372178   -1.322942    1.108222
    112          6           0      -27.286054   -1.803820    2.410925
    113          6           0      -26.706586   -3.122491    2.375084
    114          6           0      -26.297489   -3.322284    1.055740
    115          6           0      -26.727580   -2.207795    0.284014
    116          6           0      -26.595319   -4.027735    3.442054
    117          6           0      -25.680844   -4.267781    0.113520
    118          8           0      -25.232923   -5.395871    0.244530
    119          6           0      -25.755210   -3.622448   -1.308941
    120          6           0      -24.338104   -3.559823   -1.850354
    121          8           0      -23.428273   -2.773938   -1.711795
    122          8           0      -24.317896   -4.628324   -2.699504
    123          6           0      -23.209781   -4.708605   -3.680892
    124          1           0      -27.737198    2.535409   -3.625676
    125          1           0      -30.556860    3.727031    1.931411
    126          1           0      -28.058564   -1.736579    4.398367
    127          1           0      -25.509341   -1.738047   -3.799363
    128          1           0      -26.901645    0.458827   -4.733652
    129          1           0      -24.621103    1.489435   -4.516151
    130          1           0      -24.130539   -0.062018   -4.082168
    131          1           0      -24.719056    1.126485   -2.794824
    132          1           0      -28.282300   -1.344315   -4.718281
    133          1           0      -28.116390   -2.712295   -3.772647
    134          1           0      -27.958373   -3.051922   -6.161526
    135          1           0      -26.673808   -3.820428   -5.062305
    136          1           0      -29.641267    5.372151   -3.521873
    137          1           0      -27.990215    4.718357   -3.585705
    138          1           0      -28.485469    6.137293   -2.605451
    139          1           0      -31.133648    6.227096   -2.203781
    140          1           0      -29.936325    7.152019   -1.263901
    141          1           0      -31.748723    7.150195   -0.911933
    142          1           0      -31.054102    1.838173    4.069284
    143          1           0      -28.640753    0.697867    5.312485
    144          1           0      -28.582932    3.000030    5.374450
    145          1           0      -30.201049    3.393054    5.781091
    146          1           0      -29.332357    3.995701    4.240998
    147          1           0      -30.979682   -1.048026    4.450882
    148          1           0      -31.421060    0.162113    5.482278
    149          1           0      -29.858345   -2.196523    6.009555
    150          1           0      -31.067853   -1.352899    6.978018
    151          1           0      -29.318762   -0.749255    6.964351
    152          1           0      -25.843209   -4.815815    3.412865
    153          1           0      -27.589644   -4.446524    3.600249
    154          1           0      -26.309664   -3.422571    4.301689
    155          1           0      -26.399150   -4.218175   -1.955634
    156          1           0      -23.691114   -5.002293   -4.613278
    157          1           0      -22.432155   -5.442534   -3.470888
    158          1           0      -22.760428   -3.725083   -3.815721
 ---------------------------------------------------------------------

 SCF Done:  E(RPBE1PBE) =  -4067.37119975     A.U. after   16 cycles

 Excitation energies and oscillator strengths:

 Excited State   1:      Singlet-A      1.8570 eV  667.66 nm  f=0.0000  <S**2>=0.000
     312 -> 313        0.70711
 This state for optimization and/or second-order correction.
 Total Energy, E(TD-HF/TD-DFT) =  -4067.30295651
 Copying the excited state density for this state as the 1-particle RhoCI density.

 Excited State   2:      Singlet-A      1.8848 eV  657.80 nm  f=0.3568  <S**2>=0.000
     310 -> 315       -0.17647
     312 -> 314        0.68824

 Excited State   3:      Singlet-A      1.8908 eV  655.72 nm  f=0.3988  <S**2>=0.000
     309 -> 316       -0.16976
     311 -> 313        0.69165
     311 <- 313       -0.10815

 Excited State   4:      Singlet-A      2.2081 eV  561.51 nm  f=0.1164  <S**2>=0.000
     309 -> 313        0.66034
     311 -> 316        0.22030

 Excited State   5:      Singlet-A      2.2313 eV  555.65 nm  f=0.0000  <S**2>=0.000
     311 -> 314        0.70711

 The electronic state is 1-A.
 Alpha  occ. eigenvalues --  -46.92740 -46.92464 -19.27044 -19.25055 -19.20250
 Alpha  occ. eigenvalues --  -19.19745 -19.19410 -19.18919 -19.18673 -19.18242
 Alpha  occ. eigenvalues --  -14.41564 -14.41474 -14.41303 -14.40919 -14.39427
 Alpha  occ. eigenvalues --  -14.39376 -14.38664 -14.38373 -10.36505 -10.36241
 Alpha  occ. eigenvalues --  -10.32560 -10.31991 -10.31813 -10.31719 -10.29965
 Alpha  occ. eigenvalues --  -10.29445 -10.29232 -10.28729 -10.28685 -10.28673
 Alpha  occ. eigenvalues --  -10.28568 -10.28388 -10.28320 -10.28108 -10.28016
 Alpha  occ. eigenvalues --  -10.27862 -10.27702 -10.27551 -10.27371 -10.27344
 Alpha  occ. eigenvalues --  -10.27128 -10.27070 -10.26570 -10.26253 -10.26236
 Alpha  occ. eigenvalues --  -10.26211 -10.26136 -10.26060 -10.25933 -10.25866
 Alpha  occ. eigenvalues --  -10.25696 -10.25684 -10.25682 -10.25550 -10.25373
 Alpha  occ. eigenvalues --  -10.25355 -10.25337 -10.25252 -10.25163 -10.25047
 Alpha  occ. eigenvalues --  -10.24992 -10.24970 -10.24900 -10.24893 -10.24878
 Alpha  occ. eigenvalues --  -10.24870 -10.24861 -10.24672 -10.24479 -10.24368
 Alpha  occ. eigenvalues --  -10.24213 -10.24026 -10.23979 -10.23775 -10.23774
 Alpha  occ. eigenvalues --  -10.23653 -10.23265 -10.23264 -10.23183 -10.23085
 Alpha  occ. eigenvalues --  -10.23072 -10.22848 -10.22697 -10.22575 -10.22556
 Alpha  occ. eigenvalues --  -10.22455  -3.14712  -3.14500  -1.87549  -1.87315
 Alpha  occ. eigenvalues --   -1.87087  -1.86926  -1.86892  -1.86705  -1.12200
 Alpha  occ. eigenvalues --   -1.10887  -1.04350  -1.03998  -1.03886  -1.02948
 Alpha  occ. eigenvalues --   -1.02876  -1.02599  -0.99783  -0.99553  -0.99136
 Alpha  occ. eigenvalues --   -0.98555  -0.97688  -0.97543  -0.96749  -0.95971
 Alpha  occ. eigenvalues --   -0.88531  -0.87147  -0.83522  -0.83312  -0.83178
 Alpha  occ. eigenvalues --   -0.83033  -0.82772  -0.82296  -0.82078  -0.81899
 Alpha  occ. eigenvalues --   -0.81333  -0.81166  -0.80512  -0.80171  -0.79386
 Alpha  occ. eigenvalues --   -0.78510  -0.78444  -0.77885  -0.77500  -0.77046
 Alpha  occ. eigenvalues --   -0.76970  -0.76578  -0.75840  -0.75783  -0.75254
 Alpha  occ. eigenvalues --   -0.74973  -0.72972  -0.72652  -0.72239  -0.71748
 Alpha  occ. eigenvalues --   -0.71378  -0.71343  -0.70430  -0.70165  -0.69464
 Alpha  occ. eigenvalues --   -0.69273  -0.66995  -0.66986  -0.66542  -0.66267
 Alpha  occ. eigenvalues --   -0.64414  -0.63621  -0.63230  -0.63221  -0.63112
 Alpha  occ. eigenvalues --   -0.62188  -0.61718  -0.61530  -0.60966  -0.59970
 Alpha  occ. eigenvalues --   -0.59837  -0.59815  -0.59747  -0.59433  -0.58898
 Alpha  occ. eigenvalues --   -0.58896  -0.58398  -0.56529  -0.54985  -0.54776
 Alpha  occ. eigenvalues --   -0.54223  -0.54131  -0.53834  -0.53824  -0.53220
 Alpha  occ. eigenvalues --   -0.52996  -0.52944  -0.52666  -0.52390  -0.52075
 Alpha  occ. eigenvalues --   -0.51284  -0.51129  -0.50746  -0.50435  -0.50412
 Alpha  occ. eigenvalues --   -0.49729  -0.49712  -0.49131  -0.49013  -0.48865
 Alpha  occ. eigenvalues --   -0.48423  -0.48273  -0.48124  -0.47805  -0.47786
 Alpha  occ. eigenvalues --   -0.47688  -0.47626  -0.47392  -0.46993  -0.46957
 Alpha  occ. eigenvalues --   -0.46670  -0.46476  -0.46420  -0.46254  -0.46131
 Alpha  occ. eigenvalues --   -0.46006  -0.45879  -0.45777  -0.45530  -0.45389
 Alpha  occ. eigenvalues --   -0.44958  -0.44742  -0.44606  -0.44191  -0.44144
 Alpha  occ. eigenvalues --   -0.44041  -0.43937  -0.43788  -0.43556  -0.43427
 Alpha  occ. eigenvalues --   -0.43358  -0.43349  -0.43181  -0.42861  -0.42755
 Alpha  occ. eigenvalues --   -0.42349  -0.42253  -0.42084  -0.41797  -0.41754
 Alpha  occ. eigenvalues --   -0.41479  -0.41456  -0.41359  -0.41121  -0.41004
 Alpha  occ. eigenvalues --   -0.41000  -0.40742  -0.40635  -0.40517  -0.40421
 Alpha  occ. eigenvalues --   -0.40315  -0.39973  -0.39762  -0.39644  -0.39570
 Alpha  occ. eigenvalues --   -0.39483  -0.39470  -0.39433  -0.39297  -0.39180
 Alpha  occ. eigenvalues --   -0.38796  -0.38638  -0.38402  -0.38373  -0.38320
 Alpha  occ. eigenvalues --   -0.37824  -0.37781  -0.37664  -0.37538  -0.37377
 Alpha  occ. eigenvalues --   -0.37174  -0.37140  -0.37091  -0.37005  -0.36763
 Alpha  occ. eigenvalues --   -0.36676  -0.36639  -0.36377  -0.36163  -0.36081
 Alpha  occ. eigenvalues --   -0.36014  -0.35799  -0.35755  -0.35420  -0.35258
 Alpha  occ. eigenvalues --   -0.35094  -0.34725  -0.34601  -0.34504  -0.34110
 Alpha  occ. eigenvalues --   -0.33700  -0.33654  -0.32797  -0.32674  -0.32667
 Alpha  occ. eigenvalues --   -0.32458  -0.32391  -0.31945  -0.31621  -0.31386
 Alpha  occ. eigenvalues --   -0.31021  -0.30950  -0.29760  -0.29586  -0.29177
 Alpha  occ. eigenvalues --   -0.29125  -0.28598  -0.28550  -0.27363  -0.26890
 Alpha  occ. eigenvalues --   -0.26482  -0.25912  -0.25579  -0.25423  -0.25352
 Alpha  occ. eigenvalues --   -0.25350  -0.24947  -0.24800  -0.21192  -0.20909
 Alpha  occ. eigenvalues --   -0.19248  -0.18624
 Alpha virt. eigenvalues --   -0.11563  -0.10812  -0.05558  -0.05399  -0.04259
 Alpha virt. eigenvalues --   -0.04030  -0.02348  -0.02147  -0.01373  -0.00886
 Alpha virt. eigenvalues --    0.00530   0.01124   0.01272   0.01322   0.01559

 Mulliken charges:
               1
     1  Mg  12.000000
     2  C    6.000000
     3  C    6.000000
     4  C    6.000000
     5  C    6.000000
     6  N    7.000000
     7  C    6.000000
     8  C    6.000000
     9  C    6.000000
    10  C    6.000000
    11  C    6.000000
    12  C    6.000000
    13  C    6.000000
    14  H    1.000000
    15  N    7.000000
    16  C    6.000000
    17  C    6.000000
    18  C    6.000000
    19  C    6.000000
    20  C    6.000000
    21  C    6.000000
    22  O    8.000000
    23  C    6.000000
    24  N    7.000000
    25  C    6.000000
    26  C    6.000000
    27  C    6.000000
    28  C    6.000000
    29  C    6.000000
    30  C    6.000000
    31  C    6.000000
    32  N    7.000000
    33  C    6.000000
    34  C    6.000000
    35  C    6.000000
    36  C    6.000000
    37  C    6.000000
    38  C    6.000000
    39  O    8.000000
    40  C    6.000000
    41  C    6.000000
    42  O    8.000000
    43  O    8.000000
    44  C    6.000000
    45  H    1.000000
    46  H    1.000000
    47  H    1.000000
    48  H    1.000000
    49  H    1.000000
    50  H    1.000000
    51  H    1.000000
    52  H    1.000000
    53  H    1.000000
    54  H    1.000000
    55  H    1.000000
    56  H    1.000000
    57  H    1.000000
    58  H    1.000000
    59  H    1.000000
    60  H    1.000000
    61  H    1.000000
    62  H    1.000000
    63  H    1.000000
    64  H    1.000000
    65  H    1.000000
    66  H    1.000000
    67  H    1.000000
    68  H    1.000000
    69  H    1.000000
    70  H    1.000000
    71  H    1.000000
    72  H    1.000000
    73  H    1.000000
    74  H    1.000000
    75  H    1.000000
    76  H    1.000000
    77  H    1.000000
    78  H    1.000000
    79  H    1.000000
    80  Mg  12.000000
    81  C    6.000000
    82  C    6.000000
    83  C    6.000000
    84  C    6.000000
    85  N    7.000000
    86  C    6.000000
    87  C    6.000000
    88  C    6.000000
    89  C    6.000000
    90  C    6.000000
    91  C    6.000000
    92  C    6.000000
    93  H    1.000000
    94  N    7.000000
    95  C    6.000000
    96  C    6.000000
    97  C    6.000000
    98  C    6.000000
    99  C    6.000000
   100  C    6.000000
   101  O    8.000000
   102  C    6.000000
   103  N    7.000000
   104  C    6.000000
   105  C    6.000000
   106  C    6.000000
   107  C    6.000000
   108  C    6.000000
   109  C    6.000000
   110  C    6.000000
   111  N    7.000000
   112  C    6.000000
   113  C    6.000000
   114  C    6.000000
   115  C    6.000000
   116  C    6.000000
   117  C    6.000000
   118  O    8.000000
   119  C    6.000000
   120  C    6.000000
   121  O    8.000000
   122  O    8.000000
   123  C    6.000000
   124  H    1.000000
   125  H    1.000000
   126  H    1.000000
   127  H    1.000000
   128  H    1.000000
   129  H    1.000000
   130  H    1.000000
   131  H    1.000000
   132  H    1.000000
   133  H    1.000000
   134  H    1.000000
   135  H    1.000000
   136  H    1.000000
   137  H    1.000000
   138  H    1.000000
   139  H    1.000000
   140  H    1.000000
   141  H    1.000000
   142  H    1.000000
   143  H    1.000000
   144  H    1.000000
   145  H    1.000000
   146  H    1.000000
   147  H    1.000000
   148  H    1.000000
   149  H    1.000000
   150  H    1.000000
   151  H    1.000000
   152  H    1.000000
   153  H    1.000000
   154  H    1.000000
   155  H    1.000000
   156  H    1.000000
   157  H    1.000000
   158  H    1.000000
 Sum of Mulliken charges = 624.00000

 Dipole moment (field-independent basis, Debye):
    X=             -0.0000    Y=              0.0000    Z=             -0.0000  Tot=              0.0000
 Quadrupole moment (field-independent basis, Debye-Ang):
   XX=              0.0000   YY=              0.0000   ZZ=             -0.0000
   XY=              0.0000   XZ=              0.0000   YZ=             -0.0000

 Normal termination of Gaussian 16 at Thu Oct 14 22:55:44 2021.
