 Gaussian 16, Revision A.03,
 Gaussian 16:  ES64L-G16RevA.03 25-Dec-2016

 --------------------------------------------------------
 #p PBE1PBE/Def2SVP td=(nstates=5) density=(transition=1)
 --------------------------------------------------------

 --------------------------------
 TDDFT excited states in gaussian
 --------------------------------
 Symbolic Z-matrix:
 Charge =  0 Multiplicity = 1

                         Standard orientation:
 ---------------------------------------------------------------------
 Center     Atomic      Atomic             Coordinates (Angstroms)
 Number     Number       Type             X           Y           Z
 ---------------------------------------------------------------------
      1         12           0       26.724300   -0.863476    0.313495
      2          6           0       27.365490    2.204418   -1.049896
      3          6           0       26.157490    0.494702    3.302874
      4          6           0       26.373043   -3.890399    1.469736
      5          6           0       27.932170   -2.231128   -2.748062
      6          7           0       26.924315    1.146331    1.107688
      7          6           0       26.932678    2.236890    0.301073
      8          6           0       26.474653    3.473496    1.024739
      9          6           0       26.369873    2.928869    2.505684
     10          6           0       26.573930    1.439073    2.335259
     11          6           0       27.330989    3.605381    3.512435
     12          6           0       25.124617    4.173084    0.388054
     13          6           0       25.121950    5.692780    0.162745
     14          1           0       26.096526    6.538946    1.040869
     15          7           0       26.172512   -1.558817    2.017364
     16          6           0       25.973942   -0.889180    3.182635
     17          6           0       25.718522   -1.760597    4.303627
     18          6           0       25.576281   -2.999137    3.754693
     19          6           0       26.166061   -2.863253    2.386653
     20          6           0       25.704748   -1.129226    5.683754
     21          6           0       25.141154   -4.313101    4.433504
     22          8           0       25.102691   -5.384275    3.874194
     23          6           0       24.796098   -4.161312    5.885563
     24          7           0       27.279298   -2.780748   -0.505963
     25          6           0       26.883534   -3.868958    0.178678
     26          6           0       27.116917   -5.143758   -0.638124
     27          6           0       27.312805   -4.595578   -2.092392
     28          6           0       27.553564   -3.103851   -1.782494
     29          6           0       28.273035   -6.132263   -0.182077
     30          6           0       26.082131   -4.736988   -3.065311
     31          6           0       24.734733   -4.132423   -2.769912
     32          7           0       27.426248   -0.241610   -1.597483
     33          6           0       27.969353   -0.879252   -2.717571
     34          6           0       28.369987    0.086602   -3.748587
     35          6           0       28.139326    1.326758   -3.134547
     36          6           0       27.571727    1.036277   -1.854057
     37          6           0       28.851447   -0.186960   -5.150331
     38          6           0       28.232359    2.707535   -3.276087
     39          8           0       28.671656    3.428522   -4.158296
     40          6           0       27.526137    3.341093   -2.049542
     41          6           0       28.488004    4.386999   -1.632424
     42          8           0       29.511498    4.195036   -0.971490
     43          8           0       28.163566    5.598300   -2.171124
     44          6           0       29.140373    6.691094   -2.129204
     45          1           0       25.791660    0.983969    4.208242
     46          1           0       26.223970   -4.929220    1.769079
     47          1           0       28.236870   -2.785213   -3.639190
     48          1           0       27.271941    4.216048    1.058873
     49          1           0       25.341683    3.041109    2.848987
     50          1           0       28.163865    2.931161    3.711669
     51          1           0       26.793159    3.768344    4.446410
     52          1           0       27.674587    4.526072    3.040722
     53          1           0       24.326950    3.913192    1.084065
     54          1           0       24.912922    3.764060   -0.599360
     55          1           0       24.152864    6.111304    0.433125
     56          1           0       25.239606    5.908111   -0.899209
     57          1           0       26.640526   -0.660382    5.988468
     58          1           0       25.636680   -1.751748    6.575704
     59          1           0       24.840335   -0.470736    5.598186
     60          1           0       24.019300   -3.408927    6.019886
     61          1           0       25.772804   -3.959923    6.325061
     62          1           0       24.345282   -5.003361    6.409532
     63          1           0       26.179126   -5.677764   -0.480778
     64          1           0       28.243018   -4.998052   -2.494028
     65          1           0       28.755554   -5.737477    0.711703
     66          1           0       29.081498   -6.143324   -0.912116
     67          1           0       27.988510   -7.173473   -0.022848
     68          1           0       26.025638   -5.824284   -3.123197
     69          1           0       26.297647   -4.349026   -4.060360
     70          1           0       24.722570   -3.751599   -1.747838
     71          1           0       23.954515   -4.891166   -2.828550
     72          1           0       24.448252   -3.267853   -3.368368
     73          1           0       29.915738    0.010645   -5.270220
     74          1           0       28.282405    0.414930   -5.859068
     75          1           0       28.724288   -1.265688   -5.244699
     76          1           0       26.528025    3.703107   -2.296840
     77          1           0       28.985705    7.412772   -2.932171
     78          1           0       30.159265    6.323549   -2.017257
     79          1           0       29.077801    7.272559   -1.209558
     80         12           0      -27.339520   -0.523885   -0.289917
     81          6           0      -25.472517    2.567801    0.083924
     82          6           0      -28.595557    0.142090    2.766836
     83          6           0      -28.926318   -3.277032   -0.614013
     84          6           0      -25.605871   -1.113392   -3.320398
     85          7           0      -27.046514    1.278844    1.281026
     86          6           0      -26.334787    2.411820    1.151939
     87          6           0      -26.639824    3.368714    2.320220
     88          6           0      -27.273483    2.285954    3.312511
     89          6           0      -27.714618    1.210245    2.411505
     90          6           0      -26.514174    1.939176    4.582221
     91          6           0      -27.578959    4.478847    1.817680
     92          6           0      -27.461931    5.791797    2.646595
     93          1           0      -26.285797    6.062440    3.694628
     94          7           0      -28.662675   -1.466327    0.904966
     95          6           0      -29.014189   -1.099941    2.190011
     96          6           0      -29.902469   -2.128528    2.722738
     97          6           0      -30.071885   -3.104314    1.709649
     98          6           0      -29.189398   -2.623035    0.609248
     99          6           0      -30.478087   -2.106087    4.068513
    100          6           0      -31.008412   -4.422714    1.681369
    101          8           0      -31.171631   -5.055725    0.674365
    102          6           0      -31.964439   -4.755046    2.841031
    103          7           0      -27.055041   -2.107665   -1.646053
    104          6           0      -27.971362   -3.072416   -1.636008
    105          6           0      -27.892847   -4.016392   -2.805631
    106          6           0      -27.140729   -3.103342   -3.804501
    107          6           0      -26.436025   -2.126312   -2.801523
    108          6           0      -27.083175   -5.363890   -2.511004
    109          6           0      -28.030638   -2.390467   -4.907289
    110          6           0      -29.336451   -3.071706   -5.410566
    111          7           0      -25.787861    0.407249   -1.356799
    112          6           0      -25.227168    0.130391   -2.560015
    113          6           0      -24.392971    1.157985   -2.992767
    114          6           0      -24.435371    2.068520   -1.975811
    115          6           0      -25.298167    1.620922   -0.994945
    116          6           0      -23.677967    1.228442   -4.339306
    117          6           0      -23.900504    3.388421   -1.609051
    118          8           0      -23.008755    4.084606   -2.070734
    119          6           0      -24.656174    3.768301   -0.261547
    120          6           0      -23.646863    4.146900    0.711866
    121          8           0      -22.922615    3.388780    1.364730
    122          8           0      -23.457823    5.476721    0.582768
    123          6           0      -22.229548    5.927868    1.211967
    124          1           0      -28.853201    0.269340    3.820418
    125          1           0      -29.454510   -4.230437   -0.672090
    126          1           0      -25.169626   -1.293678   -4.304916
    127          1           0      -25.725973    3.736212    2.787210
    128          1           0      -28.182278    2.743475    3.701104
    129          1           0      -27.034908    2.278421    5.477170
    130          1           0      -25.521070    2.387563    4.561315
    131          1           0      -26.299330    0.876588    4.695799
    132          1           0      -28.600554    4.140491    1.992197
    133          1           0      -27.499180    4.678782    0.749306
    134          1           0      -28.406820    6.053186    3.124083
    135          1           0      -27.502112    6.549262    1.863946
    136          1           0      -30.529623   -1.094078    4.469551
    137          1           0      -29.820140   -2.735780    4.667670
    138          1           0      -31.496096   -2.492380    4.123433
    139          1           0      -32.767805   -4.029981    2.971143
    140          1           0      -31.306801   -4.931671    3.692439
    141          1           0      -32.404146   -5.740665    2.686116
    142          1           0      -28.941180   -4.233655   -3.008916
    143          1           0      -26.360155   -3.625935   -4.356865
    144          1           0      -27.746922   -6.113658   -2.940964
    145          1           0      -26.935439   -5.578720   -1.452063
    146          1           0      -26.117134   -5.454283   -3.006220
    147          1           0      -27.396992   -2.145498   -5.758504
    148          1           0      -28.386998   -1.527239   -4.344914
    149          1           0      -30.174042   -2.811227   -4.763955
    150          1           0      -29.064547   -4.126762   -5.457933
    151          1           0      -29.574259   -2.798264   -6.437980
    152          1           0      -24.322094    0.669624   -5.018632
    153          1           0      -22.718143    0.712724   -4.344083
    154          1           0      -23.587680    2.276964   -4.622552
    155          1           0      -25.304438    4.611969   -0.501676
    156          1           0      -22.051485    6.996621    1.096435
    157          1           0      -21.337108    5.330100    1.025968
    158          1           0      -22.308006    5.847693    2.296728
 ---------------------------------------------------------------------

 SCF Done:  E(RPBE1PBE) =  -4067.34436529     A.U. after   16 cycles

 Excitation energies and oscillator strengths:

 Excited State   1:      Singlet-A      1.8950 eV  654.27 nm  f=0.3623  <S**2>=0.000
     309 -> 315       -0.18693
     312 -> 314        0.68806
 This state for optimization and/or second-order correction.
 Total Energy, E(TD-HF/TD-DFT) =  -4067.27472551
 Copying the excited state density for this state as the 1-particle RhoCI density.

 Excited State   2:      Singlet-A      1.9474 eV  636.65 nm  f=0.3569  <S**2>=0.000
     310 -> 316        0.18524
     311 -> 313        0.68731

 Excited State   3:      Singlet-A      1.9697 eV  629.47 nm  f=0.0000  <S**2>=0.000
     312 -> 313        0.70711

 Excited State   4:      Singlet-A      2.2362 eV  554.44 nm  f=0.0000  <S**2>=0.000
     311 -> 314        0.70711

 Excited State   5:      Singlet-A      2.2406 eV  553.35 nm  f=0.1506  <S**2>=0.000
     310 -> 313        0.66536
     311 -> 316       -0.23013

 The electronic state is 1-A.
 Alpha  occ. eigenvalues --  -46.92767 -46.91342 -19.25581 -19.24598 -19.20514
 Alpha  occ. eigenvalues --  -19.19911 -19.19326 -19.19045 -19.18624 -19.18073
 Alpha  occ. eigenvalues --  -14.41158 -14.40788 -14.40750 -14.40547 -14.39519
 Alpha  occ. eigenvalues --  -14.39448 -14.38485 -14.38473 -10.35303 -10.35236
 Alpha  occ. eigenvalues --  -10.33954 -10.32882 -10.32196 -10.30807 -10.28599
 Alpha  occ. eigenvalues --  -10.28298 -10.28274 -10.28247 -10.28129 -10.28061
 Alpha  occ. eigenvalues --  -10.28048 -10.27908 -10.27812 -10.27800 -10.27552
 Alpha  occ. eigenvalues --  -10.27510 -10.27499 -10.26912 -10.26750 -10.26712
 Alpha  occ. eigenvalues --  -10.26677 -10.26528 -10.26523 -10.26275 -10.25936
 Alpha  occ. eigenvalues --  -10.25920 -10.25814 -10.25751 -10.25720 -10.25679
 Alpha  occ. eigenvalues --  -10.25472 -10.25400 -10.25393 -10.25298 -10.25258
 Alpha  occ. eigenvalues --  -10.25245 -10.25219 -10.25203 -10.25187 -10.25185
 Alpha  occ. eigenvalues --  -10.25134 -10.25112 -10.25017 -10.24993 -10.24833
 Alpha  occ. eigenvalues --  -10.24451 -10.24441 -10.24251 -10.24065 -10.23958
 Alpha  occ. eigenvalues --  -10.23928 -10.23637 -10.23596 -10.23504 -10.23475
 Alpha  occ. eigenvalues --  -10.23469 -10.23465 -10.23448 -10.23124 -10.23116
 Alpha  occ. eigenvalues --  -10.23032 -10.22918 -10.22711 -10.22630 -10.22001
 Alpha  occ. eigenvalues --  -10.21750  -3.14850  -3.13769  -1.87692  -1.87241
 Alpha  occ. eigenvalues --   -1.87058  -1.86577  -1.86159  -1.86026  -1.11310
 Alpha  occ. eigenvalues --   -1.09642  -1.07172  -1.06060  -1.04416  -1.03900
 Alpha  occ. eigenvalues --   -1.01475  -1.00765  -1.00454  -1.00124  -0.99774
 Alpha  occ. eigenvalues --   -0.99259  -0.99172  -0.98823  -0.98387  -0.97766
 Alpha  occ. eigenvalues --   -0.86813  -0.86802  -0.83776  -0.83232  -0.82974
 Alpha  occ. eigenvalues --   -0.82676  -0.82422  -0.82257  -0.82230  -0.81801
 Alpha  occ. eigenvalues --   -0.81737  -0.81259  -0.81000  -0.80186  -0.78619
 Alpha  occ. eigenvalues --   -0.78601  -0.77880  -0.77479  -0.76857  -0.76703
 Alpha  occ. eigenvalues --   -0.76636  -0.75910  -0.75386  -0.75092  -0.74810
 Alpha  occ. eigenvalues --   -0.74469  -0.73196  -0.72698  -0.71840  -0.71301
 Alpha  occ. eigenvalues --   -0.71160  -0.70992  -0.70122  -0.70014  -0.69601
 Alpha  occ. eigenvalues --   -0.69530  -0.67322  -0.67137  -0.66099  -0.66073
 Alpha  occ. eigenvalues --   -0.63981  -0.63981  -0.63417  -0.63170  -0.62616
 Alpha  occ. eigenvalues --   -0.62204  -0.61645  -0.61083  -0.59931  -0.59821
 Alpha  occ. eigenvalues --   -0.59547  -0.59462  -0.59239  -0.59145  -0.58324
 Alpha  occ. eigenvalues --   -0.58266  -0.56453  -0.56338  -0.55528  -0.55195
 Alpha  occ. eigenvalues --   -0.54013  -0.53904  -0.53849  -0.53795  -0.52976
 Alpha  occ. eigenvalues --   -0.52561  -0.52523  -0.52362  -0.52141  -0.52111
 Alpha  occ. eigenvalues --   -0.51013  -0.50824  -0.50028  -0.49856  -0.49821
 Alpha  occ. eigenvalues --   -0.49612  -0.49161  -0.49151  -0.48713  -0.48562
 Alpha  occ. eigenvalues --   -0.48228  -0.48200  -0.48044  -0.47800  -0.47571
 Alpha  occ. eigenvalues --   -0.47289  -0.47248  -0.47025  -0.46871  -0.46835
 Alpha  occ. eigenvalues --   -0.46816  -0.46135  -0.46087  -0.45943  -0.45810
 Alpha  occ. eigenvalues --   -0.45756  -0.45260  -0.45230  -0.45007  -0.44965
 Alpha  occ. eigenvalues --   -0.44829  -0.44759  -0.44289  -0.43986  -0.43915
 Alpha  occ. eigenvalues --   -0.43715  -0.43572  -0.43463  -0.43395  -0.43350
 Alpha  occ. eigenvalues --   -0.43314  -0.43138  -0.42887  -0.42709  -0.42662
 Alpha  occ. eigenvalues --   -0.42647  -0.42375  -0.42236  -0.42096  -0.41839
 Alpha  occ. eigenvalues --   -0.41740  -0.41478  -0.41465  -0.41330  -0.41228
 Alpha  occ. eigenvalues --   -0.40792  -0.40579  -0.40511  -0.40286  -0.40239
 Alpha  occ. eigenvalues --   -0.40035  -0.39846  -0.39654  -0.39445  -0.39261
 Alpha  occ. eigenvalues --   -0.39131  -0.38975  -0.38861  -0.38837  -0.38699
 Alpha  occ. eigenvalues --   -0.38682  -0.38603  -0.38424  -0.38098  -0.38081
 Alpha  occ. eigenvalues --   -0.38017  -0.37921  -0.37838  -0.37734  -0.37669
 Alpha  occ. eigenvalues --   -0.37571  -0.37409  -0.37197  -0.37165  -0.37072
 Alpha  occ. eigenvalues --   -0.37047  -0.36748  -0.36407  -0.36303  -0.36179
 Alpha  occ. eigenvalues --   -0.36074  -0.35906  -0.35621  -0.35400  -0.35359
 Alpha  occ. eigenvalues --   -0.34646  -0.34471  -0.34228  -0.34140  -0.33621
 Alpha  occ. eigenvalues --   -0.33452  -0.33185  -0.33170  -0.33002  -0.32443
 Alpha  occ. eigenvalues --   -0.32055  -0.31682  -0.31489  -0.31363  -0.30869
 Alpha  occ. eigenvalues --   -0.30709  -0.30101  -0.29564  -0.29430  -0.28714
 Alpha  occ. eigenvalues --   -0.28678  -0.27996  -0.27852  -0.27666  -0.26965
 Alpha  occ. eigenvalues --   -0.26583  -0.26339  -0.26168  -0.26120  -0.25538
 Alpha  occ. eigenvalues --   -0.25510  -0.25301  -0.25105  -0.20657  -0.20354
 Alpha  occ. eigenvalues --   -0.18892  -0.18259
 Alpha virt. eigenvalues --   -0.10778  -0.10428  -0.05211  -0.04651  -0.03914
 Alpha virt. eigenvalues --   -0.03629  -0.01851  -0.01837  -0.00450  -0.00042
 Alpha virt. eigenvalues --    0.00111   0.00962   0.01092   0.01679   0.02055

 Mulliken charges:
               1
     1  Mg  11.999762
     2  C    6.022418
     3  C    5.992627
     4  C    5.978638
     5  C    6.002826
     6  N    7.010346
     7  C    5.966370
     8  C    6.013374
     9  C    5.988607
    10  C    6.032345
    11  C    5.997510
    12  C    6.002992
    13  C    6.001585
    14  H    0.995882
    15  N    6.995702
    16  C    6.032175
    17  C    6.021559
    18  C    6.016675
    19  C    6.028382
    20  C    5.998513
    21  C    6.014225
    22  O    8.026723
    23  C    5.994328
    24  N    6.995926
    25  C    6.031578
    26  C    5.993118
    27  C    6.006163
    28  C    5.973157
    29  C    5.999790
    30  C    6.008729
    31  C    6.004849
    32  N    6.999483
    33  C    5.970121
    34  C    5.968335
    35  C    5.997506
    36  C    5.977735
    37  C    6.001975
    38  C    5.983415
    39  O    7.967505
    40  C    5.998788
    41  C    5.995880
    42  O    7.992383
    43  O    7.999680
    44  C    6.003249
    45  H    1.011676
    46  H    1.004391
    47  H    0.987693
    48  H    0.999248
    49  H    1.000958
    50  H    1.000705
    51  H    0.999967
    52  H    1.013153
    53  H    0.990559
    54  H    1.005266
    55  H    0.996932
    56  H    1.004553
    57  H    1.018472
    58  H    1.014660
    59  H    1.012528
    60  H    1.005887
    61  H    1.005510
    62  H    1.014188
    63  H    0.996465
    64  H    0.998477
    65  H    0.995955
    66  H    1.010039
    67  H    1.000694
    68  H    0.988952
    69  H    1.003543
    70  H    0.987247
    71  H    0.993980
    72  H    1.004363
    73  H    0.980624
    74  H    0.983374
    75  H    0.984780
    76  H    0.993371
    77  H    0.997126
    78  H    0.998588
    79  H    0.993143
    80  Mg  12.000022
    81  C    5.999920
    82  C    6.000004
    83  C    6.000044
    84  C    6.000035
    85  N    6.999952
    86  C    6.000069
    87  C    5.999996
    88  C    6.000031
    89  C    5.999983
    90  C    6.000010
    91  C    5.999997
    92  C    6.000004
    93  H    0.999979
    94  N    7.000009
    95  C    5.999950
    96  C    5.999969
    97  C    6.000033
    98  C    5.999958
    99  C    5.999990
   100  C    5.999962
   101  O    7.999981
   102  C    6.000000
   103  N    7.000008
   104  C    5.999894
   105  C    6.000011
   106  C    5.999990
   107  C    5.999992
   108  C    5.999991
   109  C    5.999998
   110  C    6.000000
   111  N    6.999996
   112  C    6.000035
   113  C    6.000065
   114  C    5.999987
   115  C    6.000032
   116  C    6.000001
   117  C    6.000026
   118  O    8.000047
   119  C    6.000000
   120  C    6.000006
   121  O    7.999996
   122  O    8.000009
   123  C    6.000010
   124  H    0.999963
   125  H    1.000008
   126  H    1.000021
   127  H    0.999982
   128  H    0.999996
   129  H    0.999987
   130  H    0.999966
   131  H    0.999985
   132  H    1.000017
   133  H    1.000001
   134  H    1.000008
   135  H    1.000009
   136  H    0.999986
   137  H    0.999962
   138  H    0.999982
   139  H    0.999999
   140  H    0.999980
   141  H    0.999981
   142  H    1.000020
   143  H    1.000013
   144  H    1.000009
   145  H    0.999991
   146  H    0.999992
   147  H    1.000014
   148  H    1.000003
   149  H    1.000009
   150  H    1.000004
   151  H    1.000023
   152  H    1.000029
   153  H    1.000017
   154  H    1.000031
   155  H    1.000027
   156  H    1.000012
   157  H    0.999989
   158  H    0.999990
 Sum of Mulliken charges = 624.00000

 Dipole moment (field-independent basis, Debye):
    X=             -2.8686    Y=             -3.1189    Z=              9.1033  Tot=             10.0413
 Quadrupole moment (field-independent basis, Debye-Ang):
   XX=           -156.2992   YY=              2.9107   ZZ=              5.4862
   XY=            -82.3818   XZ=            245.8762   YZ=             -8.0869

 Normal termination of Gaussian 16 at Wed Oct 13 22:01:36 2021.
