 Gaussian 16, Revision A.03,
 Gaussian 16:  ES64L-G16RevA.03 25-Dec-2016

 --------------------------------------------------------
 #p PBE1PBE/Def2SVP td=(nstates=5) density=(transition=1)
 --------------------------------------------------------

 --------------------------------
 TDDFT excited states in gaussian
 --------------------------------
 Symbolic Z-matrix:
 Charge =  0 Multiplicity = 1

                         Standard orientation:
 ---------------------------------------------------------------------
 Center     Atomic      Atomic             Coordinates (Angstroms)
 Number     Number       Type             X           Y           Z
 ---------------------------------------------------------------------
      1         12           0      -13.461612   -0.662274   -0.269350
      2          6           0      -12.092318    2.141311    1.271478
      3          6           0      -15.645462    1.295125   -1.927908
      4          6           0      -15.005391   -3.466307   -1.355457
      5          6           0      -11.535432   -2.615058    1.820209
      6          7           0      -13.817333    1.525104   -0.283340
      7          6           0      -12.996592    2.477762    0.264731
      8          6           0      -13.434445    3.832874   -0.143516
      9          6           0      -14.600041    3.637908   -1.120113
     10          6           0      -14.734822    2.055110   -1.170388
     11          6           0      -15.909378    4.366247   -0.859214
     12          6           0      -12.193906    4.702909   -0.751956
     13          6           0      -11.792701    5.998963   -0.009298
     14          1           0      -11.401292    7.239537   -0.773938
     15          7           0      -15.014060   -1.038741   -1.563342
     16          6           0      -15.827968   -0.083414   -2.153381
     17          6           0      -16.833419   -0.723939   -2.920607
     18          6           0      -16.675254   -2.128263   -2.769412
     19          6           0      -15.515132   -2.262708   -1.882468
     20          6           0      -17.772523    0.170885   -3.820504
     21          6           0      -17.601849   -3.188946   -3.361226
     22          8           0      -17.511497   -4.410587   -3.166692
     23          6           0      -18.650526   -2.789826   -4.303831
     24          7           0      -13.503226   -2.763841    0.314978
     25          6           0      -14.118591   -3.725201   -0.341954
     26          6           0      -13.871598   -5.097381    0.324560
     27          6           0      -12.449087   -4.779443    0.933003
     28          6           0      -12.465900   -3.256433    1.016737
     29          6           0      -14.842585   -5.635961    1.439632
     30          6           0      -11.174039   -5.315668    0.121743
     31          6           0      -10.986747   -4.852945   -1.264936
     32          7           0      -12.062365   -0.387366    1.337524
     33          6           0      -11.325603   -1.309066    2.106969
     34          6           0      -10.500853   -0.599881    3.032505
     35          6           0      -10.795832    0.730303    2.809282
     36          6           0      -11.680868    0.809474    1.684538
     37          6           0       -9.767891   -1.170367    4.146060
     38          6           0      -10.383313    2.021115    3.104325
     39          8           0       -9.564537    2.456184    3.920634
     40          6           0      -11.249819    3.025418    2.215783
     41          6           0      -12.159567    3.718885    3.175220
     42          8           0      -13.003084    3.297222    3.938382
     43          8           0      -11.845232    5.011591    3.074363
     44          6           0      -12.646178    5.951407    3.925317
     45          1           0      -16.135289    2.032284   -2.567493
     46          1           0      -15.430523   -4.340787   -1.851034
     47          1           0      -10.884216   -3.246100    2.428269
     48          1           0      -13.779192    4.301173    0.777574
     49          1           0      -14.275469    3.929985   -2.118590
     50          1           0      -16.394418    3.548321   -0.327758
     51          1           0      -16.425672    4.743742   -1.742025
     52          1           0      -15.923884    5.232928   -0.198899
     53          1           0      -12.410052    4.935214   -1.794329
     54          1           0      -11.237503    4.180240   -0.722891
     55          1           0      -10.881303    5.758425    0.538821
     56          1           0      -12.508026    6.263168    0.768416
     57          1           0      -18.808025   -0.085891   -3.597922
     58          1           0      -17.492838   -0.272258   -4.776354
     59          1           0      -17.744284    1.252110   -3.685025
     60          1           0      -19.321235   -2.057633   -3.856368
     61          1           0      -19.324735   -3.643670   -4.366539
     62          1           0      -18.302245   -2.517301   -5.300421
     63          1           0      -13.640503   -5.818628   -0.459466
     64          1           0      -12.464656   -5.292351    1.894365
     65          1           0      -15.203656   -4.894561    2.151399
     66          1           0      -14.239378   -6.409866    1.915664
     67          1           0      -15.730404   -6.085047    0.993650
     68          1           0      -11.150286   -6.401345    0.024565
     69          1           0      -10.249710   -4.897756    0.520469
     70          1           0      -10.527653   -3.873713   -1.136583
     71          1           0      -11.860032   -4.705721   -1.901118
     72          1           0      -10.305488   -5.406700   -1.910121
     73          1           0      -10.526314   -1.274985    4.922830
     74          1           0       -8.948686   -0.562691    4.529339
     75          1           0       -9.251226   -2.097613    3.895914
     76          1           0      -10.644752    3.691541    1.600647
     77          1           0      -13.313691    6.448020    3.220757
     78          1           0      -11.976872    6.635142    4.446971
     79          1           0      -13.301020    5.512057    4.678343
     80         12           0       13.874766   -0.624074    0.056653
     81          6           0       11.876749    2.256523   -0.561543
     82          6           0       16.662906    1.382420   -0.094479
     83          6           0       15.568403   -3.413929    0.573553
     84          6           0       10.938601   -2.664116   -0.312796
     85          7           0       14.259932    1.631347   -0.367108
     86          6           0       13.244991    2.564193   -0.476679
     87          6           0       13.947851    3.961527   -0.574226
     88          6           0       15.539625    3.676865   -0.463715
     89          6           0       15.485007    2.152832   -0.316645
     90          6           0       16.409949    4.228678   -1.611984
     91          6           0       13.402993    5.110143    0.371607
     92          6           0       12.910084    6.345964   -0.323402
     93          1           0       13.422333    6.812792   -1.660366
     94          7           0       15.926549   -0.962538    0.353495
     95          6           0       16.887305   -0.007887    0.237798
     96          6           0       18.113466   -0.629469    0.667584
     97          6           0       17.850888   -2.013105    0.763645
     98          6           0       16.385907   -2.238579    0.539298
     99          6           0       19.406127    0.199077    0.757028
    100          6           0       18.854274   -3.115254    0.920681
    101          8           0       18.516140   -4.321843    0.875324
    102          6           0       20.290100   -2.775173    1.076207
    103          7           0       13.271634   -2.762836    0.047374
    104          6           0       14.139077   -3.661691    0.359206
    105          6           0       13.599088   -5.182204    0.512905
    106          6           0       12.117382   -4.918511    0.204416
    107          6           0       12.078487   -3.427680   -0.026434
    108          6           0       14.345608   -6.112631   -0.511864
    109          6           0       11.076610   -5.368078    1.289295
    110          6           0       11.019964   -4.524896    2.585274
    111          7           0       11.922518   -0.303674   -0.460136
    112          6           0       10.876070   -1.247219   -0.587748
    113          6           0        9.630868   -0.506232   -0.830926
    114          6           0        9.977245    0.866265   -0.819196
    115          6           0       11.384724    0.943589   -0.545816
    116          6           0        8.220754   -1.143239   -1.013700
    117          6           0        9.427299    2.111242   -0.938045
    118          8           0        8.299823    2.485821   -1.188400
    119          6           0       10.590336    3.119667   -0.723330
    120          6           0       10.625015    4.024147   -1.849314
    121          8           0       11.246625    3.821511   -2.898463
    122          8           0        9.672783    5.034869   -1.671710
    123          6           0        9.487029    5.913427   -2.853114
    124          1           0       17.615064    1.845451   -0.363211
    125          1           0       16.159071   -4.332447    0.580999
    126          1           0       10.015874   -3.236115   -0.430054
    127          1           0       13.578864    4.247543   -1.558336
    128          1           0       15.927862    4.195790    0.411565
    129          1           0       17.198006    4.874199   -1.222102
    130          1           0       15.891297    4.759711   -2.409993
    131          1           0       16.849376    3.335524   -2.056152
    132          1           0       14.168734    5.392701    1.094302
    133          1           0       12.536824    4.679306    0.873893
    134          1           0       13.309196    7.191377    0.238161
    135          1           0       11.821724    6.303035   -0.345346
    136          1           0       19.206669    1.270770    0.774913
    137          1           0       20.050600   -0.034524   -0.089458
    138          1           0       19.864520   -0.116383    1.693740
    139          1           0       20.369118   -2.134983    1.954871
    140          1           0       20.656455   -2.197088    0.226987
    141          1           0       20.896492   -3.678950    1.120443
    142          1           0       13.724965   -5.547019    1.532598
    143          1           0       11.879225   -5.301257   -0.788263
    144          1           0       14.616573   -5.504669   -1.374989
    145          1           0       13.641610   -6.871787   -0.854523
    146          1           0       15.245386   -6.627770   -0.174525
    147          1           0       11.164749   -6.440054    1.463080
    148          1           0       10.090776   -5.332903    0.826675
    149          1           0       11.954306   -4.075637    2.920164
    150          1           0       10.548503   -5.129411    3.360947
    151          1           0       10.298404   -3.736036    2.373350
    152          1           0        7.457434   -0.681877   -0.387047
    153          1           0        8.211654   -2.221744   -0.860160
    154          1           0        7.808274   -0.818736   -1.969363
    155          1           0       10.266272    3.634497    0.180524
    156          1           0        9.007348    5.367374   -3.665014
    157          1           0       10.412854    6.296341   -3.280911
    158          1           0        9.005640    6.820221   -2.486528
 ---------------------------------------------------------------------

 SCF Done:  E(RPBE1PBE) =  -4067.35295026     A.U. after   16 cycles

 Excitation energies and oscillator strengths:

 Excited State   1:      Singlet-A      1.8583 eV  667.17 nm  f=0.4678  <S**2>=0.000
     309 -> 316       -0.16050
     311 -> 313        0.67893
     312 -> 314       -0.13595
     311 <- 313       -0.10545
 This state for optimization and/or second-order correction.
 Total Energy, E(TD-HF/TD-DFT) =  -4067.28465721
 Copying the excited state density for this state as the 1-particle RhoCI density.

 Excited State   2:      Singlet-A      1.8680 eV  663.72 nm  f=0.2524  <S**2>=0.000
     310 -> 315        0.18343
     311 -> 313        0.13658
     312 -> 314        0.67418

 Excited State   3:      Singlet-A      1.8841 eV  658.05 nm  f=0.0000  <S**2>=0.000
     312 -> 313        0.70710

 Excited State   4:      Singlet-A      2.0451 eV  606.26 nm  f=0.0000  <S**2>=0.000
     311 -> 314        0.70709

 Excited State   5:      Singlet-A      2.1769 eV  569.54 nm  f=0.1393  <S**2>=0.000
     309 -> 313        0.66018
     311 -> 316        0.23462

 The electronic state is 1-A.
 Alpha  occ. eigenvalues --  -46.93179 -46.92693 -19.25641 -19.24981 -19.19576
 Alpha  occ. eigenvalues --  -19.19262 -19.18871 -19.18676 -19.18426 -19.18108
 Alpha  occ. eigenvalues --  -14.42039 -14.41597 -14.41409 -14.41183 -14.39509
 Alpha  occ. eigenvalues --  -14.39345 -14.39275 -14.38572 -10.35658 -10.35563
 Alpha  occ. eigenvalues --  -10.32179 -10.31866 -10.31233 -10.30660 -10.29411
 Alpha  occ. eigenvalues --  -10.29171 -10.29147 -10.28996 -10.28890 -10.28871
 Alpha  occ. eigenvalues --  -10.28782 -10.28330 -10.28207 -10.28147 -10.28059
 Alpha  occ. eigenvalues --  -10.28049 -10.27974 -10.27796 -10.27475 -10.26758
 Alpha  occ. eigenvalues --  -10.26734 -10.26597 -10.26584 -10.26554 -10.26398
 Alpha  occ. eigenvalues --  -10.26327 -10.26311 -10.26145 -10.26104 -10.25976
 Alpha  occ. eigenvalues --  -10.25953 -10.25770 -10.25755 -10.25637 -10.25594
 Alpha  occ. eigenvalues --  -10.25494 -10.25481 -10.25450 -10.25308 -10.25287
 Alpha  occ. eigenvalues --  -10.25284 -10.25227 -10.25113 -10.25081 -10.24992
 Alpha  occ. eigenvalues --  -10.24986 -10.24915 -10.24870 -10.24864 -10.24538
 Alpha  occ. eigenvalues --  -10.24195 -10.23977 -10.23942 -10.23937 -10.23743
 Alpha  occ. eigenvalues --  -10.23708 -10.23651 -10.23392 -10.23368 -10.23362
 Alpha  occ. eigenvalues --  -10.23338 -10.23314 -10.22855 -10.22299 -10.22083
 Alpha  occ. eigenvalues --  -10.21992  -3.15103  -3.14687  -1.87957  -1.87530
 Alpha  occ. eigenvalues --   -1.87511  -1.87282  -1.87039  -1.86926  -1.11736
 Alpha  occ. eigenvalues --   -1.09142  -1.04292  -1.03823  -1.03252  -1.02847
 Alpha  occ. eigenvalues --   -1.02128  -1.01179  -1.00721  -0.99996  -0.98888
 Alpha  occ. eigenvalues --   -0.98166  -0.98020  -0.97575  -0.97277  -0.96579
 Alpha  occ. eigenvalues --   -0.86848  -0.86516  -0.84045  -0.83482  -0.82998
 Alpha  occ. eigenvalues --   -0.82655  -0.82364  -0.82230  -0.82023  -0.81906
 Alpha  occ. eigenvalues --   -0.81380  -0.81124  -0.81092  -0.79914  -0.78903
 Alpha  occ. eigenvalues --   -0.78537  -0.78505  -0.77677  -0.77327  -0.76821
 Alpha  occ. eigenvalues --   -0.76207  -0.76198  -0.75799  -0.75046  -0.75015
 Alpha  occ. eigenvalues --   -0.74376  -0.73044  -0.72421  -0.71937  -0.71868
 Alpha  occ. eigenvalues --   -0.71674  -0.70764  -0.70259  -0.70080  -0.69661
 Alpha  occ. eigenvalues --   -0.69302  -0.67884  -0.67056  -0.66105  -0.65974
 Alpha  occ. eigenvalues --   -0.64771  -0.63741  -0.63522  -0.63439  -0.62246
 Alpha  occ. eigenvalues --   -0.62126  -0.61533  -0.61205  -0.60235  -0.59873
 Alpha  occ. eigenvalues --   -0.59776  -0.59411  -0.59292  -0.59100  -0.58764
 Alpha  occ. eigenvalues --   -0.58451  -0.56580  -0.56073  -0.54976  -0.54579
 Alpha  occ. eigenvalues --   -0.54450  -0.54104  -0.53842  -0.53245  -0.53220
 Alpha  occ. eigenvalues --   -0.52786  -0.52693  -0.52435  -0.52335  -0.52110
 Alpha  occ. eigenvalues --   -0.51001  -0.50816  -0.50543  -0.50213  -0.50064
 Alpha  occ. eigenvalues --   -0.49850  -0.49582  -0.49419  -0.49312  -0.49156
 Alpha  occ. eigenvalues --   -0.48148  -0.47868  -0.47780  -0.47628  -0.47538
 Alpha  occ. eigenvalues --   -0.47416  -0.47291  -0.47245  -0.47186  -0.46696
 Alpha  occ. eigenvalues --   -0.46580  -0.46449  -0.46091  -0.45811  -0.45806
 Alpha  occ. eigenvalues --   -0.45642  -0.45488  -0.44956  -0.44813  -0.44443
 Alpha  occ. eigenvalues --   -0.44378  -0.44280  -0.44091  -0.44087  -0.43824
 Alpha  occ. eigenvalues --   -0.43797  -0.43748  -0.43556  -0.43505  -0.43329
 Alpha  occ. eigenvalues --   -0.43197  -0.43117  -0.42943  -0.42686  -0.42637
 Alpha  occ. eigenvalues --   -0.42476  -0.42168  -0.41994  -0.41943  -0.41735
 Alpha  occ. eigenvalues --   -0.41495  -0.41416  -0.41357  -0.41307  -0.41212
 Alpha  occ. eigenvalues --   -0.40944  -0.40877  -0.40716  -0.40587  -0.40485
 Alpha  occ. eigenvalues --   -0.40266  -0.40040  -0.39776  -0.39455  -0.39367
 Alpha  occ. eigenvalues --   -0.39097  -0.39097  -0.38970  -0.38813  -0.38637
 Alpha  occ. eigenvalues --   -0.38500  -0.38457  -0.38141  -0.38045  -0.38006
 Alpha  occ. eigenvalues --   -0.37972  -0.37719  -0.37625  -0.37372  -0.37257
 Alpha  occ. eigenvalues --   -0.37188  -0.36991  -0.36916  -0.36739  -0.36677
 Alpha  occ. eigenvalues --   -0.36665  -0.36492  -0.36398  -0.36174  -0.36048
 Alpha  occ. eigenvalues --   -0.35947  -0.35908  -0.35757  -0.35543  -0.35485
 Alpha  occ. eigenvalues --   -0.35057  -0.35010  -0.34644  -0.34336  -0.34043
 Alpha  occ. eigenvalues --   -0.33839  -0.33019  -0.33004  -0.32648  -0.31998
 Alpha  occ. eigenvalues --   -0.31916  -0.31688  -0.31479  -0.31331  -0.31136
 Alpha  occ. eigenvalues --   -0.31053  -0.30549  -0.29642  -0.29160  -0.29115
 Alpha  occ. eigenvalues --   -0.28943  -0.28654  -0.28438  -0.27070  -0.26840
 Alpha  occ. eigenvalues --   -0.26136  -0.25761  -0.25736  -0.25690  -0.25607
 Alpha  occ. eigenvalues --   -0.25484  -0.25193  -0.25162  -0.20931  -0.20694
 Alpha  occ. eigenvalues --   -0.19038  -0.18822
 Alpha virt. eigenvalues --   -0.11399  -0.11043  -0.05249  -0.05126  -0.04017
 Alpha virt. eigenvalues --   -0.03879  -0.02089  -0.02054  -0.00556  -0.00151
 Alpha virt. eigenvalues --    0.00386   0.01074   0.01496   0.01970   0.02414

 Mulliken charges:
               1
     1  Mg  12.002973
     2  C    6.029310
     3  C    6.002877
     4  C    5.970808
     5  C    5.983248
     6  N    7.020219
     7  C    5.968670
     8  C    6.010247
     9  C    5.995667
    10  C    6.021645
    11  C    5.997705
    12  C    6.001571
    13  C    6.000144
    14  H    0.997256
    15  N    6.993906
    16  C    6.031906
    17  C    6.018139
    18  C    6.012783
    19  C    6.033125
    20  C    6.000505
    21  C    6.011576
    22  O    8.027495
    23  C    5.992383
    24  N    6.977646
    25  C    6.036622
    26  C    5.991202
    27  C    6.008807
    28  C    5.981374
    29  C    6.001103
    30  C    6.008712
    31  C    5.999097
    32  N    7.003804
    33  C    5.974741
    34  C    5.971385
    35  C    5.995326
    36  C    5.972722
    37  C    6.002799
    38  C    5.988360
    39  O    7.967436
    40  C    5.998455
    41  C    5.996183
    42  O    7.997750
    43  O    7.998890
    44  C    6.001672
    45  H    1.014203
    46  H    1.000547
    47  H    0.985353
    48  H    1.001446
    49  H    1.003018
    50  H    0.999464
    51  H    1.001664
    52  H    1.012714
    53  H    0.993814
    54  H    1.004761
    55  H    1.005519
    56  H    1.000012
    57  H    1.015877
    58  H    1.013771
    59  H    1.013168
    60  H    1.004716
    61  H    1.012698
    62  H    1.008129
    63  H    0.997832
    64  H    0.995065
    65  H    1.003304
    66  H    1.005886
    67  H    0.993843
    68  H    0.989931
    69  H    1.002988
    70  H    1.005851
    71  H    0.985132
    72  H    0.995394
    73  H    0.981259
    74  H    0.985245
    75  H    0.985235
    76  H    0.993279
    77  H    0.993768
    78  H    0.998620
    79  H    0.998253
    80  Mg  11.999900
    81  C    5.998218
    82  C    6.003038
    83  C    6.000080
    84  C    5.997064
    85  N    6.999410
    86  C    6.004226
    87  C    5.998680
    88  C    6.003093
    89  C    5.993353
    90  C    5.999913
    91  C    5.999723
    92  C    5.999685
    93  H    1.000693
    94  N    7.002546
    95  C    5.992282
    96  C    5.996439
    97  C    5.997005
    98  C    5.994783
    99  C    6.000183
   100  C    5.997512
   101  O    7.994336
   102  C    6.000829
   103  N    6.998133
   104  C    5.994910
   105  C    6.001410
   106  C    5.998400
   107  C    6.007535
   108  C    6.000843
   109  C    5.999168
   110  C    5.999328
   111  N    6.999771
   112  C    6.008204
   113  C    6.005310
   114  C    6.000359
   115  C    6.005086
   116  C    5.999769
   117  C    6.002979
   118  O    8.005849
   119  C    6.000118
   120  C    6.000916
   121  O    8.001537
   122  O    8.000072
   123  C    5.999539
   124  H    0.998927
   125  H    0.998556
   126  H    1.001661
   127  H    0.999424
   128  H    0.999201
   129  H    0.999493
   130  H    0.997945
   131  H    1.000581
   132  H    1.001496
   133  H    0.999124
   134  H    1.000698
   135  H    0.999180
   136  H    0.996837
   137  H    0.996624
   138  H    0.997269
   139  H    0.998593
   140  H    0.998525
   141  H    0.997164
   142  H    0.999949
   143  H    1.000304
   144  H    0.999970
   145  H    0.997930
   146  H    1.000682
   147  H    1.001727
   148  H    0.999586
   149  H    1.001996
   150  H    1.001079
   151  H    0.998628
   152  H    1.003879
   153  H    1.003502
   154  H    1.003354
   155  H    1.001650
   156  H    1.000188
   157  H    1.001020
   158  H    1.001031
 Sum of Mulliken charges = 624.00000

 Dipole moment (field-independent basis, Debye):
    X=             -9.2225    Y=              0.5246    Z=             -6.8876  Tot=             11.5225
 Quadrupole moment (field-independent basis, Debye-Ang):
   XX=            142.5606   YY=             -1.4621   ZZ=             -1.1849
   XY=             10.2565   XZ=             85.8192   YZ=              3.1075

 Normal termination of Gaussian 16 at Thu Oct 14 03:32:10 2021.
