 Gaussian 16, Revision A.03,
 Gaussian 16:  ES64L-G16RevA.03 25-Dec-2016

 --------------------------------------------------------
 #p PBE1PBE/Def2SVP td=(nstates=5) density=(transition=1)
 --------------------------------------------------------

 --------------------------------
 TDDFT excited states in gaussian
 --------------------------------
 Symbolic Z-matrix:
 Charge =  0 Multiplicity = 1

                         Standard orientation:
 ---------------------------------------------------------------------
 Center     Atomic      Atomic             Coordinates (Angstroms)
 Number     Number       Type             X           Y           Z
 ---------------------------------------------------------------------
      1         12           0      -11.593758   -0.085857   -0.074050
      2          6           0       -8.400496   -1.360060    0.952446
      3          6           0      -10.279659    3.120110    0.794740
      4          6           0      -13.982658    1.463013   -1.858152
      5          6           0      -12.280787   -3.131793   -1.469248
      6          7           0       -9.578375    0.722937    0.727549
      7          6           0       -8.459581    0.031465    1.090381
      8          6           0       -7.336312    0.981560    1.634548
      9          6           0       -8.177797    2.316178    1.920014
     10          6           0       -9.384134    2.065410    1.029246
     11          6           0       -8.609805    2.496256    3.357234
     12          6           0       -6.122721    1.067100    0.723774
     13          6           0       -4.722789    1.003264    1.387956
     14          1           0       -3.871414    2.333482    1.640025
     15          7           0      -12.158575    2.060928   -0.417923
     16          6           0      -11.513282    3.191761    0.124628
     17          6           0      -12.268160    4.391831   -0.256285
     18          6           0      -13.402731    3.893803   -1.010254
     19          6           0      -13.186046    2.475672   -1.200200
     20          6           0      -11.913035    5.801733    0.032652
     21          6           0      -14.566141    4.731355   -1.478718
     22          8           0      -14.647060    5.870710   -1.078029
     23          6           0      -15.651847    4.241059   -2.408719
     24          7           0      -12.799160   -0.750783   -1.504846
     25          6           0      -13.817927    0.075025   -1.971689
     26          6           0      -14.676545   -0.755480   -2.928418
     27          6           0      -14.256913   -2.240483   -2.625740
     28          6           0      -13.053191   -2.031894   -1.770158
     29          6           0      -16.227975   -0.497824   -2.950158
     30          6           0      -14.038289   -3.202906   -3.833303
     31          6           0      -14.805791   -4.484469   -3.855842
     32          7           0      -10.668469   -1.912901   -0.154015
     33          6           0      -11.096647   -3.112194   -0.696009
     34          6           0      -10.222011   -4.221337   -0.268844
     35          6           0       -9.108569   -3.518412    0.335549
     36          6           0       -9.448956   -2.162327    0.350559
     37          6           0      -10.360320   -5.706343   -0.478074
     38          6           0       -7.786657   -3.737855    0.993122
     39          8           0       -7.139298   -4.736937    1.127342
     40          6           0       -7.269198   -2.334603    1.292284
     41          6           0       -6.934238   -2.272225    2.752639
     42          8           0       -7.830992   -2.367817    3.562780
     43          8           0       -5.569645   -2.001367    3.071328
     44          6           0       -5.261159   -1.731743    4.508486
     45          1           0       -9.935956    4.112199    1.095410
     46          1           0      -14.816037    1.802033   -2.475757
     47          1           0      -12.637008   -4.120638   -1.764462
     48          1           0       -7.012233    0.694277    2.634408
     49          1           0       -7.674148    3.197137    1.522259
     50          1           0       -9.496886    1.886659    3.527666
     51          1           0       -8.770164    3.563251    3.511234
     52          1           0       -7.934538    2.180748    4.153258
     53          1           0       -6.177857    2.043421    0.243247
     54          1           0       -6.273123    0.365798   -0.096947
     55          1           0       -4.165482    0.348323    0.717777
     56          1           0       -4.728939    0.516781    2.363429
     57          1           0      -12.498046    6.088414    0.906014
     58          1           0      -12.291419    6.436374   -0.768755
     59          1           0      -10.872447    6.085394    0.194680
     60          1           0      -16.358282    5.000785   -2.742610
     61          1           0      -16.207795    3.497339   -1.837709
     62          1           0      -15.376168    3.701872   -3.314262
     63          1           0      -14.354425   -0.369241   -3.895889
     64          1           0      -14.962233   -2.649107   -1.902718
     65          1           0      -16.548519   -0.003904   -2.032489
     66          1           0      -16.766423   -1.427604   -3.132790
     67          1           0      -16.492571    0.127345   -3.802669
     68          1           0      -12.976843   -3.440460   -3.903247
     69          1           0      -14.210198   -2.620823   -4.738594
     70          1           0      -14.128736   -5.308689   -3.632416
     71          1           0      -15.211540   -4.649302   -4.853897
     72          1           0      -15.639908   -4.585686   -3.161842
     73          1           0       -9.771220   -6.261039    0.251963
     74          1           0      -10.024177   -5.905753   -1.495979
     75          1           0      -11.424264   -5.943942   -0.477474
     76          1           0       -6.451906   -2.134810    0.599142
     77          1           0       -5.213333   -2.678618    5.046568
     78          1           0       -6.061133   -1.158993    4.977155
     79          1           0       -4.332072   -1.170507    4.606167
     80         12           0       11.168875    0.192339   -0.533757
     81          6           0        8.485743    0.804954    1.667997
     82          6           0       10.837053   -3.153046    0.268063
     83          6           0       13.832789   -0.538604   -2.539717
     84          6           0       11.597783    3.494752   -0.957290
     85          7           0        9.773041   -1.050551    0.806292
     86          6           0        8.657832   -0.617311    1.513265
     87          6           0        7.836974   -1.801111    1.983985
     88          6           0        8.819486   -3.017790    1.824264
     89          6           0        9.841713   -2.376627    0.912837
     90          6           0        9.383895   -3.624227    3.168486
     91          6           0        6.575362   -2.036960    1.140262
     92          6           0        5.345029   -2.518070    1.916910
     93          1           0        5.358100   -3.954298    2.510334
     94          7           0       12.137633   -1.587671   -1.136014
     95          6           0       11.837131   -2.807543   -0.633913
     96          6           0       12.775655   -3.753068   -1.144847
     97          6           0       13.618553   -3.093913   -2.105093
     98          6           0       13.252763   -1.701591   -1.913480
     99          6           0       12.762328   -5.198053   -0.729604
    100          6           0       14.746025   -3.611470   -2.998491
    101          8           0       15.251999   -2.902440   -3.896163
    102          6           0       15.380000   -4.984688   -2.807666
    103          7           0       12.445979    1.301439   -1.652648
    104          6           0       13.537884    0.814611   -2.364928
    105          6           0       14.298660    1.966775   -2.936382
    106          6           0       13.595845    3.310709   -2.526314
    107          6           0       12.447193    2.713196   -1.697600
    108          6           0       15.837113    1.916227   -2.693239
    109          6           0       13.081549    4.177801   -3.695846
    110          6           0       14.056938    5.297965   -4.106093
    111          7           0       10.318077    1.822960    0.192994
    112          6           0       10.524082    3.171485   -0.094685
    113          6           0        9.534594    4.072948    0.603930
    114          6           0        8.770882    3.131401    1.312711
    115          6           0        9.229194    1.810840    1.002051
    116          6           0        9.458332    5.586137    0.513176
    117          6           0        7.647107    3.047390    2.233276
    118          8           0        6.968042    3.928520    2.761983
    119          6           0        7.362087    1.493218    2.387287
    120          6           0        7.316166    1.239147    3.906868
    121          8           0        8.046135    1.730389    4.742934
    122          8           0        6.185414    0.477253    4.194878
    123          6           0        6.042994    0.183138    5.620942
    124          1           0       10.653663   -4.208046    0.481175
    125          1           0       14.688434   -0.657273   -3.207393
    126          1           0       11.881005    4.544958   -1.050099
    127          1           0        7.534624   -1.756875    3.029990
    128          1           0        8.386052   -3.891957    1.338322
    129          1           0        8.957430   -3.214779    4.084678
    130          1           0       10.453414   -3.510421    3.343718
    131          1           0        9.153992   -4.687475    3.237609
    132          1           0        6.759626   -2.758641    0.344778
    133          1           0        6.242744   -1.108115    0.676458
    134          1           0        4.427132   -2.393426    1.342595
    135          1           0        5.133324   -1.866389    2.764354
    136          1           0       12.718405   -5.115058    0.356448
    137          1           0       13.643969   -5.798591   -0.953109
    138          1           0       11.891276   -5.761912   -1.062635
    139          1           0       15.660309   -5.141628   -1.765951
    140          1           0       16.239645   -4.929365   -3.475377
    141          1           0       14.682807   -5.779571   -3.072561
    142          1           0       14.320955    1.817414   -4.016299
    143          1           0       14.169197    3.946227   -1.850187
    144          1           0       16.045395    1.043878   -2.073400
    145          1           0       16.134940    2.809031   -2.144072
    146          1           0       16.257416    1.814930   -3.694390
    147          1           0       12.074832    4.504966   -3.436821
    148          1           0       13.027160    3.595173   -4.615718
    149          1           0       15.071230    5.030776   -3.808926
    150          1           0       13.918142    6.266802   -3.625951
    151          1           0       14.047461    5.368125   -5.194197
    152          1           0        9.069049    5.829194   -0.475658
    153          1           0       10.408126    6.112463    0.605806
    154          1           0        8.759450    5.891549    1.291724
    155          1           0        6.433217    1.137152    1.942131
    156          1           0        6.531164   -0.734712    5.949958
    157          1           0        4.963922    0.144104    5.769220
    158          1           0        6.434393    0.890882    6.351681
 ---------------------------------------------------------------------

 SCF Done:  E(RPBE1PBE) =  -4067.40734465     A.U. after   16 cycles

 Excitation energies and oscillator strengths:

 Excited State   1:      Singlet-A      1.8220 eV  680.50 nm  f=0.0000  <S**2>=0.000
     312 -> 313        0.70710
 This state for optimization and/or second-order correction.
 Total Energy, E(TD-HF/TD-DFT) =  -4067.34038895
 Copying the excited state density for this state as the 1-particle RhoCI density.

 Excited State   2:      Singlet-A      1.8359 eV  675.33 nm  f=0.3028  <S**2>=0.000
     309 -> 316        0.16315
     311 -> 313        0.69262
     311 <- 313       -0.11883

 Excited State   3:      Singlet-A      1.8492 eV  670.48 nm  f=0.4398  <S**2>=0.000
     310 -> 315        0.17994
     312 -> 314        0.68731
     312 <- 314       -0.10388

 Excited State   4:      Singlet-A      1.9415 eV  638.60 nm  f=0.0000  <S**2>=0.000
     311 -> 314        0.70709

 Excited State   5:      Singlet-A      2.2263 eV  556.90 nm  f=0.1064  <S**2>=0.000
     310 -> 314        0.64517
     312 -> 315       -0.27160

 The electronic state is 1-A.
 Alpha  occ. eigenvalues --  -46.92725 -46.91058 -19.26409 -19.25865 -19.20863
 Alpha  occ. eigenvalues --  -19.20616 -19.19835 -19.19362 -19.19318 -19.18220
 Alpha  occ. eigenvalues --  -14.42113 -14.42015 -14.41346 -14.40951 -14.39582
 Alpha  occ. eigenvalues --  -14.39052 -14.38993 -14.38810 -10.37183 -10.36707
 Alpha  occ. eigenvalues --  -10.32880 -10.32477 -10.32270 -10.31672 -10.29464
 Alpha  occ. eigenvalues --  -10.29283 -10.29117 -10.29006 -10.28720 -10.28471
 Alpha  occ. eigenvalues --  -10.28442 -10.28355 -10.28211 -10.28181 -10.28174
 Alpha  occ. eigenvalues --  -10.28148 -10.27933 -10.27909 -10.27268 -10.27063
 Alpha  occ. eigenvalues --  -10.27060 -10.26778 -10.26661 -10.26615 -10.26551
 Alpha  occ. eigenvalues --  -10.26446 -10.26381 -10.26372 -10.26364 -10.26343
 Alpha  occ. eigenvalues --  -10.26231 -10.26152 -10.26146 -10.26119 -10.25915
 Alpha  occ. eigenvalues --  -10.25749 -10.25742 -10.25545 -10.25452 -10.25100
 Alpha  occ. eigenvalues --  -10.25028 -10.24940 -10.24771 -10.24702 -10.24485
 Alpha  occ. eigenvalues --  -10.24437 -10.24318 -10.24293 -10.24221 -10.24059
 Alpha  occ. eigenvalues --  -10.24030 -10.24022 -10.24013 -10.23937 -10.23931
 Alpha  occ. eigenvalues --  -10.23769 -10.23726 -10.23591 -10.23495 -10.23475
 Alpha  occ. eigenvalues --  -10.23214 -10.23209 -10.23180 -10.23158 -10.23025
 Alpha  occ. eigenvalues --  -10.22806  -3.14871  -3.13414  -1.87657  -1.87252
 Alpha  occ. eigenvalues --   -1.87100  -1.86255  -1.85766  -1.85683  -1.11051
 Alpha  occ. eigenvalues --   -1.10019  -1.06409  -1.04984  -1.04000  -1.03526
 Alpha  occ. eigenvalues --   -1.02998  -1.02643  -0.99240  -0.99228  -0.98226
 Alpha  occ. eigenvalues --   -0.98183  -0.97797  -0.97361  -0.96185  -0.96084
 Alpha  occ. eigenvalues --   -0.87027  -0.86926  -0.83719  -0.83649  -0.83306
 Alpha  occ. eigenvalues --   -0.83120  -0.82774  -0.82572  -0.81886  -0.81807
 Alpha  occ. eigenvalues --   -0.81205  -0.80542  -0.80487  -0.79947  -0.78743
 Alpha  occ. eigenvalues --   -0.78620  -0.78270  -0.77884  -0.76754  -0.76563
 Alpha  occ. eigenvalues --   -0.76012  -0.75826  -0.75247  -0.74842  -0.74506
 Alpha  occ. eigenvalues --   -0.74379  -0.72685  -0.72491  -0.71784  -0.71781
 Alpha  occ. eigenvalues --   -0.71544  -0.71088  -0.70577  -0.70451  -0.69586
 Alpha  occ. eigenvalues --   -0.69398  -0.67146  -0.67096  -0.66216  -0.66061
 Alpha  occ. eigenvalues --   -0.63909  -0.63690  -0.63291  -0.63252  -0.62623
 Alpha  occ. eigenvalues --   -0.62332  -0.61653  -0.61120  -0.60394  -0.60158
 Alpha  occ. eigenvalues --   -0.59911  -0.59501  -0.59129  -0.58992  -0.58827
 Alpha  occ. eigenvalues --   -0.58765  -0.57145  -0.56874  -0.54878  -0.54610
 Alpha  occ. eigenvalues --   -0.54344  -0.53978  -0.53782  -0.53500  -0.53470
 Alpha  occ. eigenvalues --   -0.53148  -0.52987  -0.52272  -0.52234  -0.52027
 Alpha  occ. eigenvalues --   -0.51098  -0.50609  -0.50193  -0.50042  -0.49999
 Alpha  occ. eigenvalues --   -0.49721  -0.49060  -0.48797  -0.48436  -0.48366
 Alpha  occ. eigenvalues --   -0.48076  -0.47887  -0.47725  -0.47683  -0.47486
 Alpha  occ. eigenvalues --   -0.47471  -0.47142  -0.46881  -0.46680  -0.46396
 Alpha  occ. eigenvalues --   -0.46324  -0.46241  -0.46188  -0.45870  -0.45800
 Alpha  occ. eigenvalues --   -0.45565  -0.45457  -0.45124  -0.45076  -0.44613
 Alpha  occ. eigenvalues --   -0.44557  -0.44486  -0.44429  -0.44387  -0.44298
 Alpha  occ. eigenvalues --   -0.43987  -0.43923  -0.43780  -0.43682  -0.43505
 Alpha  occ. eigenvalues --   -0.43312  -0.43256  -0.43135  -0.42804  -0.42782
 Alpha  occ. eigenvalues --   -0.42692  -0.42374  -0.42178  -0.42094  -0.41834
 Alpha  occ. eigenvalues --   -0.41663  -0.41475  -0.41368  -0.41236  -0.41096
 Alpha  occ. eigenvalues --   -0.41019  -0.40978  -0.40864  -0.40814  -0.40679
 Alpha  occ. eigenvalues --   -0.40621  -0.40595  -0.40242  -0.39947  -0.39717
 Alpha  occ. eigenvalues --   -0.39639  -0.39389  -0.39364  -0.39274  -0.39182
 Alpha  occ. eigenvalues --   -0.39011  -0.38593  -0.38431  -0.38392  -0.38295
 Alpha  occ. eigenvalues --   -0.38259  -0.38107  -0.37960  -0.37910  -0.37784
 Alpha  occ. eigenvalues --   -0.37493  -0.37465  -0.37423  -0.37184  -0.37154
 Alpha  occ. eigenvalues --   -0.36800  -0.36747  -0.36539  -0.36391  -0.36380
 Alpha  occ. eigenvalues --   -0.36051  -0.36019  -0.35868  -0.35631  -0.35519
 Alpha  occ. eigenvalues --   -0.35438  -0.35196  -0.35150  -0.34653  -0.34226
 Alpha  occ. eigenvalues --   -0.33688  -0.33414  -0.33314  -0.32917  -0.32673
 Alpha  occ. eigenvalues --   -0.32332  -0.32211  -0.32040  -0.31840  -0.31660
 Alpha  occ. eigenvalues --   -0.31557  -0.30829  -0.30336  -0.29856  -0.29787
 Alpha  occ. eigenvalues --   -0.29547  -0.28822  -0.28428  -0.26840  -0.26689
 Alpha  occ. eigenvalues --   -0.26350  -0.26310  -0.26047  -0.25788  -0.25516
 Alpha  occ. eigenvalues --   -0.25314  -0.25225  -0.24390  -0.21195  -0.20844
 Alpha  occ. eigenvalues --   -0.18771  -0.18685
 Alpha virt. eigenvalues --   -0.11390  -0.11048  -0.05232  -0.05015  -0.04217
 Alpha virt. eigenvalues --   -0.03540  -0.02622  -0.01953  -0.01539  -0.00214
 Alpha virt. eigenvalues --    0.00294   0.00303   0.00536   0.01261   0.01354

 Mulliken charges:
               1
     1  Mg  12.000000
     2  C    6.000000
     3  C    6.000000
     4  C    6.000000
     5  C    6.000000
     6  N    7.000000
     7  C    6.000000
     8  C    6.000000
     9  C    6.000000
    10  C    6.000000
    11  C    6.000000
    12  C    6.000000
    13  C    6.000000
    14  H    1.000000
    15  N    7.000000
    16  C    6.000000
    17  C    6.000000
    18  C    6.000000
    19  C    6.000000
    20  C    6.000000
    21  C    6.000000
    22  O    8.000000
    23  C    6.000000
    24  N    7.000000
    25  C    6.000000
    26  C    6.000000
    27  C    6.000000
    28  C    6.000000
    29  C    6.000000
    30  C    6.000000
    31  C    6.000000
    32  N    7.000000
    33  C    6.000000
    34  C    6.000000
    35  C    6.000000
    36  C    6.000000
    37  C    6.000000
    38  C    6.000000
    39  O    8.000000
    40  C    6.000000
    41  C    6.000000
    42  O    8.000000
    43  O    8.000000
    44  C    6.000000
    45  H    1.000000
    46  H    1.000000
    47  H    1.000000
    48  H    1.000000
    49  H    1.000000
    50  H    1.000000
    51  H    1.000000
    52  H    1.000000
    53  H    1.000000
    54  H    1.000000
    55  H    1.000000
    56  H    1.000000
    57  H    1.000000
    58  H    1.000000
    59  H    1.000000
    60  H    1.000000
    61  H    1.000000
    62  H    1.000000
    63  H    1.000000
    64  H    1.000000
    65  H    1.000000
    66  H    1.000000
    67  H    1.000000
    68  H    1.000000
    69  H    1.000000
    70  H    1.000000
    71  H    1.000000
    72  H    1.000000
    73  H    1.000000
    74  H    1.000000
    75  H    1.000000
    76  H    1.000000
    77  H    1.000000
    78  H    1.000000
    79  H    1.000000
    80  Mg  12.000000
    81  C    6.000000
    82  C    6.000000
    83  C    6.000000
    84  C    6.000000
    85  N    7.000000
    86  C    6.000000
    87  C    6.000000
    88  C    6.000000
    89  C    6.000000
    90  C    6.000000
    91  C    6.000000
    92  C    6.000000
    93  H    1.000000
    94  N    7.000000
    95  C    6.000000
    96  C    6.000000
    97  C    6.000000
    98  C    6.000000
    99  C    6.000000
   100  C    6.000000
   101  O    8.000000
   102  C    6.000000
   103  N    7.000000
   104  C    6.000000
   105  C    6.000000
   106  C    6.000000
   107  C    6.000000
   108  C    6.000000
   109  C    6.000000
   110  C    6.000000
   111  N    7.000000
   112  C    6.000000
   113  C    6.000000
   114  C    6.000000
   115  C    6.000000
   116  C    6.000000
   117  C    6.000000
   118  O    8.000000
   119  C    6.000000
   120  C    6.000000
   121  O    8.000000
   122  O    8.000000
   123  C    6.000000
   124  H    1.000000
   125  H    1.000000
   126  H    1.000000
   127  H    1.000000
   128  H    1.000000
   129  H    1.000000
   130  H    1.000000
   131  H    1.000000
   132  H    1.000000
   133  H    1.000000
   134  H    1.000000
   135  H    1.000000
   136  H    1.000000
   137  H    1.000000
   138  H    1.000000
   139  H    1.000000
   140  H    1.000000
   141  H    1.000000
   142  H    1.000000
   143  H    1.000000
   144  H    1.000000
   145  H    1.000000
   146  H    1.000000
   147  H    1.000000
   148  H    1.000000
   149  H    1.000000
   150  H    1.000000
   151  H    1.000000
   152  H    1.000000
   153  H    1.000000
   154  H    1.000000
   155  H    1.000000
   156  H    1.000000
   157  H    1.000000
   158  H    1.000000
 Sum of Mulliken charges = 624.00000

 Dipole moment (field-independent basis, Debye):
    X=              0.0000    Y=              0.0000    Z=              0.0000  Tot=              0.0000
 Quadrupole moment (field-independent basis, Debye-Ang):
   XX=             -0.0000   YY=              0.0000   ZZ=             -0.0000
   XY=              0.0000   XZ=             -0.0000   YZ=             -0.0000

 Normal termination of Gaussian 16 at Thu Oct 14 20:28:11 2021.
