 Gaussian 16, Revision A.03,
 Gaussian 16:  ES64L-G16RevA.03 25-Dec-2016

 --------------------------------------------------------
 #p PBE1PBE/Def2SVP td=(nstates=5) density=(transition=1)
 --------------------------------------------------------

 --------------------------------
 TDDFT excited states in gaussian
 --------------------------------
 Symbolic Z-matrix:
 Charge =  0 Multiplicity = 1

                         Standard orientation:
 ---------------------------------------------------------------------
 Center     Atomic      Atomic             Coordinates (Angstroms)
 Number     Number       Type             X           Y           Z
 ---------------------------------------------------------------------
      1         12           0      -21.657956    0.108494   -0.400866
      2          6           0      -18.316757   -0.359428    0.367883
      3          6           0      -22.240197   -3.246634    0.205658
      4          6           0      -24.965770    0.781568   -0.413874
      5          6           0      -20.910182    3.547079   -0.634556
      6          7           0      -20.454381   -1.553198    0.498284
      7          6           0      -19.119316   -1.510603    0.522893
      8          6           0      -18.551272   -2.862385    1.055526
      9          6           0      -19.768969   -3.851402    0.733806
     10          6           0      -20.918262   -2.833231    0.375892
     11          6           0      -19.414137   -4.918768   -0.329365
     12          6           0      -18.318415   -2.785683    2.547273
     13          6           0      -17.045968   -3.451831    3.047006
     14          1           0      -16.972284   -4.235115    4.411618
     15          7           0      -23.370797   -1.162537   -0.303864
     16          6           0      -23.434061   -2.466562    0.015942
     17          6           0      -24.804528   -2.858756   -0.048585
     18          6           0      -25.615932   -1.738956   -0.404330
     19          6           0      -24.666026   -0.619794   -0.428816
     20          6           0      -25.211159   -4.283233    0.039919
     21          6           0      -27.101378   -1.772332   -0.473288
     22          8           0      -27.698857   -2.824759   -0.320522
     23          6           0      -27.913860   -0.525620   -0.802175
     24          7           0      -22.803998    1.993310   -0.602240
     25          6           0      -24.161385    1.938938   -0.498299
     26          6           0      -24.734717    3.311217   -0.354266
     27          6           0      -23.401919    4.197008   -0.420486
     28          6           0      -22.259733    3.234682   -0.632901
     29          6           0      -25.824763    3.667247   -1.382440
     30          6           0      -23.155634    5.179607    0.808653
     31          6           0      -22.862084    6.679362    0.569527
     32          7           0      -20.010709    1.346498   -0.214687
     33          6           0      -19.849211    2.682740   -0.406067
     34          6           0      -18.494044    2.987163   -0.541642
     35          6           0      -17.797042    1.817997   -0.270237
     36          6           0      -18.756029    0.872510   -0.006089
     37          6           0      -17.931688    4.415694   -0.800176
     38          6           0      -16.546733    1.225170   -0.166588
     39          8           0      -15.447752    1.766928   -0.210107
     40          6           0      -16.752042   -0.290917    0.316554
     41          6           0      -16.312963   -1.222774   -0.658515
     42          8           0      -16.829348   -1.587641   -1.717437
     43          8           0      -15.103080   -1.725474   -0.189754
     44          6           0      -14.363483   -2.716400   -0.952586
     45          1           0      -22.404595   -4.325376    0.241456
     46          1           0      -25.993659    1.150560   -0.439714
     47          1           0      -20.784223    4.616961   -0.813880
     48          1           0      -17.617897   -3.061700    0.529772
     49          1           0      -20.187008   -4.341476    1.612510
     50          1           0      -18.426451   -4.750244   -0.758071
     51          1           0      -20.166996   -4.910493   -1.118195
     52          1           0      -19.483499   -5.894262    0.151438
     53          1           0      -19.119931   -3.127954    3.202205
     54          1           0      -18.353347   -1.719342    2.770353
     55          1           0      -16.266052   -2.691529    3.008490
     56          1           0      -16.843480   -4.149390    2.234305
     57          1           0      -25.324838   -4.563584   -1.007092
     58          1           0      -26.136757   -4.401348    0.603644
     59          1           0      -24.464343   -4.914047    0.522162
     60          1           0      -27.971449    0.040493    0.127626
     61          1           0      -28.931548   -0.876432   -0.971723
     62          1           0      -27.459686    0.026501   -1.624867
     63          1           0      -25.139733    3.239392    0.654625
     64          1           0      -23.441629    4.920002   -1.235247
     65          1           0      -26.767774    3.644151   -0.835274
     66          1           0      -25.837319    2.993215   -2.239582
     67          1           0      -25.679642    4.692919   -1.720738
     68          1           0      -22.304870    4.805134    1.377744
     69          1           0      -24.012503    5.241195    1.479897
     70          1           0      -21.775018    6.639492    0.501481
     71          1           0      -23.136815    7.263797    1.446671
     72          1           0      -23.118549    7.143359   -0.382764
     73          1           0      -18.021968    4.992305    0.119520
     74          1           0      -18.470175    5.018637   -1.531592
     75          1           0      -16.878496    4.374720   -1.079417
     76          1           0      -16.239955   -0.365894    1.275973
     77          1           0      -13.306569   -2.552071   -0.745021
     78          1           0      -14.606660   -2.761989   -2.014469
     79          1           0      -14.567467   -3.690097   -0.506935
     80         12           0       20.872648    0.823865   -0.319675
     81          6           0       21.676398   -2.668723   -0.146395
     82          6           0       18.061810   -0.008920    1.721289
     83          6           0       20.448507    4.042757    0.545021
     84          6           0       23.980862    1.401392   -1.624198
     85          7           0       20.046011   -1.100652    0.665912
     86          6           0       20.513690   -2.379260    0.576915
     87          6           0       19.608951   -3.388614    1.366336
     88          6           0       18.283519   -2.510896    1.575223
     89          6           0       18.855741   -1.115488    1.382867
     90          6           0       17.185092   -2.775222    0.571108
     91          6           0       20.289108   -3.982122    2.588941
     92          6           0       20.128059   -5.505711    2.829280
     93          1           0       19.074182   -6.062523    3.895658
     94          7           0       19.357139    1.936768    0.909400
     95          6           0       18.244862    1.376779    1.571819
     96          6           0       17.451296    2.463252    2.159129
     97          6           0       18.138384    3.679191    1.767778
     98          6           0       19.377002    3.273377    1.139077
     99          6           0       16.240746    2.331374    3.004468
    100          6           0       17.618006    5.077351    1.988752
    101          8           0       16.481635    5.207386    2.384962
    102          6           0       18.416177    6.335628    1.736336
    103          7           0       22.099950    2.381177   -0.423625
    104          6           0       21.608708    3.652190   -0.139033
    105          6           0       22.717847    4.654381   -0.467241
    106          6           0       23.729948    3.829414   -1.343608
    107          6           0       23.211679    2.443533   -1.155977
    108          6           0       22.307000    6.048911   -1.067480
    109          6           0       25.254290    3.998162   -1.060464
    110          6           0       26.139808    4.386233   -2.199423
    111          7           0       22.459984   -0.329294   -0.912328
    112          6           0       23.656177    0.029636   -1.508724
    113          6           0       24.368584   -1.161199   -2.010765
    114          6           0       23.614518   -2.244272   -1.412865
    115          6           0       22.514639   -1.664123   -0.773531
    116          6           0       25.618701   -1.268662   -2.843717
    117          6           0       23.565621   -3.731913   -1.300876
    118          8           0       24.343206   -4.566910   -1.666109
    119          6           0       22.377510   -4.009003   -0.385457
    120          6           0       21.467032   -4.966427   -1.094750
    121          8           0       20.903695   -4.599193   -2.103426
    122          8           0       21.259599   -6.224873   -0.454183
    123          6           0       20.200673   -7.103559   -1.037168
    124          1           0       17.162934   -0.227649    2.301766
    125          1           0       20.452059    5.119530    0.722328
    126          1           0       24.872015    1.628989   -2.212337
    127          1           0       19.252682   -4.197214    0.728752
    128          1           0       17.929254   -2.563530    2.604633
    129          1           0       17.416962   -2.228634   -0.342702
    130          1           0       16.246631   -2.477373    1.038534
    131          1           0       17.029026   -3.795112    0.218046
    132          1           0       19.831679   -3.496810    3.450556
    133          1           0       21.317663   -3.621768    2.604704
    134          1           0       21.130463   -5.811637    3.129736
    135          1           0       19.891646   -6.063633    1.923143
    136          1           0       15.390103    2.485488    2.341262
    137          1           0       16.198616    3.169239    3.700458
    138          1           0       16.073936    1.426500    3.590060
    139          1           0       17.938296    7.262550    2.052820
    140          1           0       18.549328    6.381787    0.655415
    141          1           0       19.435507    6.406329    2.114088
    142          1           0       23.072364    4.916194    0.530112
    143          1           0       23.489208    4.005309   -2.391613
    144          1           0       21.308288    6.001062   -1.502343
    145          1           0       23.055923    6.392638   -1.780737
    146          1           0       22.320663    6.811245   -0.288839
    147          1           0       25.635349    3.070441   -0.633708
    148          1           0       25.347508    4.696482   -0.228849
    149          1           0       26.731846    3.522156   -2.500293
    150          1           0       26.830013    5.165291   -1.875999
    151          1           0       25.662434    4.753038   -3.107829
    152          1           0       25.674809   -2.236038   -3.342432
    153          1           0       26.456226   -1.122962   -2.160922
    154          1           0       25.645235   -0.409948   -3.514791
    155          1           0       22.776234   -4.340305    0.573493
    156          1           0       20.598510   -7.603159   -1.920638
    157          1           0       19.351677   -6.513397   -1.381500
    158          1           0       19.844703   -7.822285   -0.299301
 ---------------------------------------------------------------------

 SCF Done:  E(RPBE1PBE) =  -4067.35515442     A.U. after   15 cycles

 Excitation energies and oscillator strengths:

 Excited State   1:      Singlet-A      1.8362 eV  675.21 nm  f=0.3942  <S**2>=0.000
     310 -> 316        0.16413
     312 -> 314        0.69641
     312 <- 314       -0.11948
 This state for optimization and/or second-order correction.
 Total Energy, E(TD-HF/TD-DFT) =  -4067.28767464
 Copying the excited state density for this state as the 1-particle RhoCI density.

 Excited State   2:      Singlet-A      1.8519 eV  669.50 nm  f=0.0000  <S**2>=0.000
     312 -> 313        0.70710

 Excited State   3:      Singlet-A      1.8606 eV  666.38 nm  f=0.3780  <S**2>=0.000
     309 -> 315       -0.17796
     311 -> 313        0.69202
     311 <- 313       -0.11021

 Excited State   4:      Singlet-A      2.0454 eV  606.17 nm  f=0.0000  <S**2>=0.000
     311 -> 314        0.70711

 Excited State   5:      Singlet-A      2.2361 eV  554.48 nm  f=0.1241  <S**2>=0.000
     308 -> 314        0.10032
     310 -> 314        0.64753
     312 -> 316       -0.25649

 The electronic state is 1-A.
 Alpha  occ. eigenvalues --  -46.93064 -46.92720 -19.25845 -19.25263 -19.20845
 Alpha  occ. eigenvalues --  -19.20340 -19.19816 -19.19512 -19.18604 -19.18219
 Alpha  occ. eigenvalues --  -14.42110 -14.41878 -14.41503 -14.41341 -14.39468
 Alpha  occ. eigenvalues --  -14.38986 -14.38879 -14.38807 -10.37165 -10.36516
 Alpha  occ. eigenvalues --  -10.32459 -10.32358 -10.31786 -10.31671 -10.29441
 Alpha  occ. eigenvalues --  -10.29273 -10.29149 -10.29111 -10.29043 -10.29005
 Alpha  occ. eigenvalues --  -10.28870 -10.28774 -10.28625 -10.28469 -10.28169
 Alpha  occ. eigenvalues --  -10.27928 -10.27904 -10.27483 -10.27264 -10.27118
 Alpha  occ. eigenvalues --  -10.26772 -10.26689 -10.26374 -10.26351 -10.26336
 Alpha  occ. eigenvalues --  -10.26330 -10.26311 -10.26228 -10.26204 -10.26148
 Alpha  occ. eigenvalues --  -10.26120 -10.26003 -10.25987 -10.25956 -10.25908
 Alpha  occ. eigenvalues --  -10.25751 -10.25662 -10.25556 -10.25475 -10.25458
 Alpha  occ. eigenvalues --  -10.25443 -10.25073 -10.24767 -10.24701 -10.24623
 Alpha  occ. eigenvalues --  -10.24462 -10.24454 -10.24371 -10.24358 -10.24314
 Alpha  occ. eigenvalues --  -10.24210 -10.24053 -10.24023 -10.23952 -10.23918
 Alpha  occ. eigenvalues --  -10.23638 -10.23490 -10.23355 -10.23352 -10.23310
 Alpha  occ. eigenvalues --  -10.23212 -10.23200 -10.23166 -10.22812 -10.22534
 Alpha  occ. eigenvalues --  -10.22394  -3.14973  -3.14866  -1.87826  -1.87652
 Alpha  occ. eigenvalues --   -1.87341  -1.87247  -1.87188  -1.87095  -1.10431
 Alpha  occ. eigenvalues --   -1.10001  -1.06389  -1.04983  -1.04792  -1.04754
 Alpha  occ. eigenvalues --   -1.02624  -1.02265  -1.00196  -0.99222  -0.98710
 Alpha  occ. eigenvalues --   -0.98483  -0.98178  -0.97359  -0.97311  -0.96181
 Alpha  occ. eigenvalues --   -0.88278  -0.87018  -0.83812  -0.83711  -0.83388
 Alpha  occ. eigenvalues --   -0.83126  -0.82770  -0.82691  -0.82246  -0.81886
 Alpha  occ. eigenvalues --   -0.81241  -0.80557  -0.80534  -0.79944  -0.79718
 Alpha  occ. eigenvalues --   -0.78903  -0.78745  -0.78261  -0.77330  -0.76752
 Alpha  occ. eigenvalues --   -0.76475  -0.76010  -0.75830  -0.75091  -0.74832
 Alpha  occ. eigenvalues --   -0.74500  -0.72525  -0.72481  -0.71933  -0.71778
 Alpha  occ. eigenvalues --   -0.71080  -0.70872  -0.70788  -0.70582  -0.69586
 Alpha  occ. eigenvalues --   -0.69538  -0.67937  -0.67090  -0.66875  -0.66212
 Alpha  occ. eigenvalues --   -0.64329  -0.63899  -0.63664  -0.63293  -0.62549
 Alpha  occ. eigenvalues --   -0.62332  -0.61773  -0.61122  -0.60558  -0.60386
 Alpha  occ. eigenvalues --   -0.60331  -0.60062  -0.59502  -0.59425  -0.59124
 Alpha  occ. eigenvalues --   -0.58825  -0.57238  -0.56858  -0.55056  -0.54512
 Alpha  occ. eigenvalues --   -0.54338  -0.53973  -0.53776  -0.53707  -0.53510
 Alpha  occ. eigenvalues --   -0.53458  -0.52984  -0.52827  -0.52621  -0.52228
 Alpha  occ. eigenvalues --   -0.51095  -0.50943  -0.50658  -0.50183  -0.50097
 Alpha  occ. eigenvalues --   -0.50038  -0.49369  -0.48920  -0.48785  -0.48427
 Alpha  occ. eigenvalues --   -0.48231  -0.47992  -0.47887  -0.47713  -0.47474
 Alpha  occ. eigenvalues --   -0.47168  -0.46907  -0.46873  -0.46723  -0.46518
 Alpha  occ. eigenvalues --   -0.46354  -0.46317  -0.46236  -0.46104  -0.45878
 Alpha  occ. eigenvalues --   -0.45853  -0.45554  -0.45455  -0.45066  -0.45009
 Alpha  occ. eigenvalues --   -0.44725  -0.44539  -0.44475  -0.44422  -0.44294
 Alpha  occ. eigenvalues --   -0.44248  -0.44079  -0.43918  -0.43772  -0.43713
 Alpha  occ. eigenvalues --   -0.43673  -0.43306  -0.43257  -0.43038  -0.42950
 Alpha  occ. eigenvalues --   -0.42807  -0.42370  -0.42207  -0.41825  -0.41651
 Alpha  occ. eigenvalues --   -0.41599  -0.41517  -0.41421  -0.41333  -0.41095
 Alpha  occ. eigenvalues --   -0.41013  -0.40859  -0.40836  -0.40803  -0.40683
 Alpha  occ. eigenvalues --   -0.40677  -0.40595  -0.40529  -0.40233  -0.40092
 Alpha  occ. eigenvalues --   -0.39940  -0.39793  -0.39643  -0.39492  -0.39368
 Alpha  occ. eigenvalues --   -0.39302  -0.38704  -0.38591  -0.38453  -0.38426
 Alpha  occ. eigenvalues --   -0.38266  -0.38247  -0.38108  -0.37971  -0.37790
 Alpha  occ. eigenvalues --   -0.37780  -0.37486  -0.37415  -0.37165  -0.37036
 Alpha  occ. eigenvalues --   -0.36881  -0.36799  -0.36795  -0.36680  -0.36380
 Alpha  occ. eigenvalues --   -0.36380  -0.36013  -0.35879  -0.35639  -0.35514
 Alpha  occ. eigenvalues --   -0.35207  -0.35196  -0.34650  -0.34220  -0.33432
 Alpha  occ. eigenvalues --   -0.33264  -0.33173  -0.32966  -0.32672  -0.32423
 Alpha  occ. eigenvalues --   -0.32332  -0.32245  -0.32027  -0.31550  -0.31150
 Alpha  occ. eigenvalues --   -0.30840  -0.30691  -0.29810  -0.29773  -0.29555
 Alpha  occ. eigenvalues --   -0.29543  -0.29042  -0.28816  -0.27440  -0.26835
 Alpha  occ. eigenvalues --   -0.26417  -0.26332  -0.25921  -0.25500  -0.25306
 Alpha  occ. eigenvalues --   -0.25221  -0.25091  -0.24388  -0.21507  -0.21190
 Alpha  occ. eigenvalues --   -0.19212  -0.18767
 Alpha virt. eigenvalues --   -0.11649  -0.11384  -0.05765  -0.05010  -0.04403
 Alpha virt. eigenvalues --   -0.03532  -0.02101  -0.01946  -0.01533  -0.00424
 Alpha virt. eigenvalues --   -0.00212  -0.00197   0.00253   0.00482   0.01261

 Mulliken charges:
               1
     1  Mg  11.999878
     2  C    6.000062
     3  C    6.000724
     4  C    6.000141
     5  C    5.999340
     6  N    7.000467
     7  C    6.000405
     8  C    5.999810
     9  C    6.000238
    10  C    5.998876
    11  C    6.000027
    12  C    5.999932
    13  C    5.999912
    14  H    1.000304
    15  N    7.000074
    16  C    5.998756
    17  C    5.999336
    18  C    5.999701
    19  C    5.999036
    20  C    6.000183
    21  C    5.999733
    22  O    7.999443
    23  C    6.000133
    24  N    6.999744
    25  C    5.999249
    26  C    6.000258
    27  C    5.999778
    28  C    6.000947
    29  C    6.000119
    30  C    5.999929
    31  C    6.000058
    32  N    7.000149
    33  C    6.000958
    34  C    6.000783
    35  C    6.000200
    36  C    6.000534
    37  C    6.000010
    38  C    6.000489
    39  O    8.001028
    40  C    6.000103
    41  C    6.000028
    42  O    8.000291
    43  O    8.000066
    44  C    5.999854
    45  H    0.999837
    46  H    0.999630
    47  H    1.000161
    48  H    0.999983
    49  H    1.000015
    50  H    0.999702
    51  H    1.000097
    52  H    0.999945
    53  H    1.000299
    54  H    0.999850
    55  H    0.999943
    56  H    1.000097
    57  H    0.999343
    58  H    0.999478
    59  H    0.999353
    60  H    0.999704
    61  H    0.999570
    62  H    0.999765
    63  H    1.000001
    64  H    0.999995
    65  H    0.999977
    66  H    1.000003
    67  H    0.999659
    68  H    0.999880
    69  H    1.000235
    70  H    0.999830
    71  H    1.000063
    72  H    1.000048
    73  H    1.000592
    74  H    1.000553
    75  H    1.000384
    76  H    1.000348
    77  H    1.000247
    78  H    1.000110
    79  H    1.000217
    80  Mg  11.999804
    81  C    5.977669
    82  C    5.999427
    83  C    6.032508
    84  C    5.999598
    85  N    6.985169
    86  C    6.028660
    87  C    5.991191
    88  C    6.008042
    89  C    5.974261
    90  C    6.005804
    91  C    5.995868
    92  C    5.999611
    93  H    1.007228
    94  N    7.003499
    95  C    5.962531
    96  C    5.976232
    97  C    5.993053
    98  C    5.960835
    99  C    6.004828
   100  C    5.988957
   101  O    7.982458
   102  C    6.002255
   103  N    7.009694
   104  C    5.962900
   105  C    6.008555
   106  C    5.989052
   107  C    6.029270
   108  C    6.000512
   109  C    5.995838
   110  C    5.998789
   111  N    6.999845
   112  C    6.031278
   113  C    6.032451
   114  C    6.001899
   115  C    6.030328
   116  C    6.000266
   117  C    6.017810
   118  O    8.024730
   119  C    6.000294
   120  C    6.005014
   121  O    8.002666
   122  O    8.001958
   123  C    5.998354
   124  H    0.987345
   125  H    0.996457
   126  H    1.013181
   127  H    1.000873
   128  H    0.999037
   129  H    0.994857
   130  H    1.001208
   131  H    0.984505
   132  H    1.010068
   133  H    0.994217
   134  H    0.997037
   135  H    0.997542
   136  H    0.980860
   137  H    0.985075
   138  H    0.981794
   139  H    0.988701
   140  H    0.989841
   141  H    0.988817
   142  H    1.000145
   143  H    1.004013
   144  H    1.003213
   145  H    0.992211
   146  H    1.003365
   147  H    0.996591
   148  H    1.011469
   149  H    0.996289
   150  H    1.006298
   151  H    1.004234
   152  H    1.015027
   153  H    1.020238
   154  H    1.015774
   155  H    1.007786
   156  H    1.000704
   157  H    1.005498
   158  H    1.004738
 Sum of Mulliken charges = 624.00000

 Dipole moment (field-independent basis, Debye):
    X=              8.4410    Y=             -4.5805    Z=             -4.5816  Tot=             10.6406
 Quadrupole moment (field-independent basis, Debye-Ang):
   XX=            328.2576   YY=             -4.4573   ZZ=             -0.2975
   XY=            -95.1353   XZ=            -95.7742   YZ=             -4.6492

 Normal termination of Gaussian 16 at Thu Oct 14 10:32:59 2021.
