 Gaussian 16, Revision A.03,
 Gaussian 16:  ES64L-G16RevA.03 25-Dec-2016

 --------------------------------------------------------
 #p PBE1PBE/Def2SVP td=(nstates=5) density=(transition=1)
 --------------------------------------------------------

 --------------------------------
 TDDFT excited states in gaussian
 --------------------------------
 Symbolic Z-matrix:
 Charge =  0 Multiplicity = 1

                         Standard orientation:
 ---------------------------------------------------------------------
 Center     Atomic      Atomic             Coordinates (Angstroms)
 Number     Number       Type             X           Y           Z
 ---------------------------------------------------------------------
      1         12           0       25.514952   -0.694531    0.444621
      2          6           0       26.721459    1.889963   -1.655080
      3          6           0       24.671675    1.850210    2.687783
      4          6           0       24.248265   -2.950984    2.465378
      5          6           0       27.154422   -3.034196   -1.537305
      6          7           0       25.666586    1.585383    0.449785
      7          6           0       26.048835    2.420846   -0.555708
      8          6           0       25.971368    3.925908   -0.247181
      9          6           0       25.399710    3.812936    1.255887
     10          6           0       25.264317    2.331926    1.452014
     11          6           0       26.354095    4.414135    2.362175
     12          6           0       25.010069    4.698745   -1.208041
     13          6           0       25.460536    5.728847   -2.236513
     14          1           0       24.610691    6.951894   -2.554973
     15          7           0       24.510729   -0.594125    2.294081
     16          6           0       24.321083    0.539283    3.097815
     17          6           0       23.740303    0.091900    4.344052
     18          6           0       23.457725   -1.268299    4.245900
     19          6           0       24.026581   -1.653103    2.939505
     20          6           0       23.345101    1.116793    5.351711
     21          6           0       22.837911   -2.247955    5.241786
     22          8           0       22.674598   -3.453713    5.031681
     23          6           0       22.271356   -1.676176    6.481361
     24          7           0       25.742354   -2.708239    0.552218
     25          6           0       24.951610   -3.488477    1.349528
     26          6           0       24.949190   -4.975813    0.858371
     27          6           0       25.931160   -4.952906   -0.305789
     28          6           0       26.378739   -3.468667   -0.413654
     29          6           0       25.253971   -6.009282    1.991614
     30          6           0       25.242184   -5.481344   -1.573152
     31          6           0       25.985612   -6.434541   -2.436491
     32          7           0       26.786685   -0.646249   -1.192400
     33          6           0       27.354379   -1.666178   -1.913352
     34          6           0       28.099883   -1.165530   -3.029267
     35          6           0       27.826381    0.288496   -3.080801
     36          6           0       27.000062    0.523252   -1.912097
     37          6           0       28.948711   -2.008483   -3.996356
     38          6           0       28.049089    1.575693   -3.786312
     39          8           0       28.579461    1.806160   -4.886292
     40          6           0       27.325860    2.648755   -2.872521
     41          6           0       28.484380    3.543079   -2.558866
     42          8           0       29.305810    3.439063   -1.655980
     43          8           0       28.474949    4.599477   -3.324894
     44          6           0       29.622588    5.538503   -3.297482
     45          1           0       24.327275    2.743169    3.212962
     46          1           0       23.913130   -3.801560    3.062041
     47          1           0       27.602111   -3.788689   -2.186950
     48          1           0       26.990939    4.313272   -0.237453
     49          1           0       24.406483    4.212867    1.462322
     50          1           0       27.388853    4.601990    2.076975
     51          1           0       26.405901    3.736174    3.213385
     52          1           0       25.926123    5.355247    2.707981
     53          1           0       24.312988    5.241616   -0.569500
     54          1           0       24.446804    3.996814   -1.821645
     55          1           0       25.397377    5.133600   -3.147559
     56          1           0       26.462296    5.969303   -1.880337
     57          1           0       22.272117    1.111103    5.538459
     58          1           0       23.616488    2.119237    5.019755
     59          1           0       23.812318    0.967077    6.324580
     60          1           0       21.619426   -0.839345    6.230431
     61          1           0       23.024116   -1.178138    7.092604
     62          1           0       21.658883   -2.368691    7.057888
     63          1           0       23.912156   -5.098578    0.546406
     64          1           0       26.758182   -5.642327   -0.136799
     65          1           0       25.267149   -5.583227    2.994704
     66          1           0       26.214215   -6.511908    1.881940
     67          1           0       24.577304   -6.859310    1.905252
     68          1           0       25.045554   -4.565686   -2.129373
     69          1           0       24.311070   -6.018708   -1.394940
     70          1           0       25.976748   -5.972061   -3.423194
     71          1           0       25.546894   -7.429713   -2.364621
     72          1           0       27.049165   -6.522957   -2.213771
     73          1           0       29.968833   -2.061228   -3.617792
     74          1           0       28.901023   -1.546447   -4.982317
     75          1           0       28.600629   -3.039791   -4.058162
     76          1           0       26.600495    3.158885   -3.506069
     77          1           0       29.794287    6.000857   -2.326065
     78          1           0       29.567675    6.331595   -4.042938
     79          1           0       30.597813    5.130396   -3.561207
     80         12           0      -25.833113   -0.670555   -0.490472
     81          6           0      -26.366924    2.431695    1.060707
     82          6           0      -26.048071    0.724398   -3.511963
     83          6           0      -25.409600   -3.627149   -1.736590
     84          6           0      -26.648386   -2.125609    2.719952
     85          7           0      -26.277163    1.348632   -1.097091
     86          6           0      -26.292858    2.470227   -0.365935
     87          6           0      -26.561927    3.689561   -1.209535
     88          6           0      -26.867499    3.060001   -2.627648
     89          6           0      -26.362517    1.644497   -2.425320
     90          6           0      -28.334592    3.110652   -3.164886
     91          6           0      -25.246145    4.619484   -1.295504
     92          6           0      -25.535165    6.132755   -1.026752
     93          1           0      -24.162798    6.974145   -0.814477
     94          7           0      -25.499567   -1.298408   -2.299819
     95          6           0      -25.585276   -0.566330   -3.471772
     96          6           0      -25.039378   -1.354780   -4.542007
     97          6           0      -24.780895   -2.707536   -4.073112
     98          6           0      -25.118286   -2.593592   -2.602556
     99          6           0      -24.985876   -0.745705   -5.972568
    100          6           0      -24.271147   -4.001938   -4.696486
    101          8           0      -24.026360   -5.064177   -4.096496
    102          6           0      -23.964540   -3.855703   -6.144909
    103          7           0      -26.175479   -2.549738    0.394761
    104          6           0      -25.904453   -3.617765   -0.424449
    105          6           0      -26.234624   -4.938654    0.271550
    106          6           0      -26.316606   -4.489232    1.754014
    107          6           0      -26.451949   -2.969424    1.641893
    108          6           0      -27.508129   -5.596537   -0.393673
    109          6           0      -25.100381   -4.916056    2.680937
    110          6           0      -25.379351   -5.008637    4.189647
    111          7           0      -26.361236   -0.027581    1.518985
    112          6           0      -26.642381   -0.732563    2.649895
    113          6           0      -26.805689    0.145797    3.786607
    114          6           0      -26.627303    1.404764    3.184443
    115          6           0      -26.424746    1.259423    1.804568
    116          6           0      -27.095092   -0.132901    5.279511
    117          6           0      -26.576003    2.808842    3.482611
    118          8           0      -26.531198    3.435601    4.508649
    119          6           0      -26.568098    3.541556    2.042223
    120          6           0      -25.553532    4.574393    2.268008
    121          8           0      -24.301681    4.482579    2.201023
    122          8           0      -26.249266    5.678956    2.588556
    123          6           0      -25.505074    6.896076    2.915436
    124          1           0      -26.026021    1.186717   -4.501167
    125          1           0      -25.193683   -4.620443   -2.136087
    126          1           0      -26.794060   -2.618894    3.683229
    127          1           0      -27.361637    4.336824   -0.848445
    128          1           0      -26.268296    3.435391   -3.457404
    129          1           0      -28.724482    2.092806   -3.158136
    130          1           0      -28.246886    3.470261   -4.189964
    131          1           0      -29.068083    3.709933   -2.626622
    132          1           0      -24.663370    4.536145   -2.213613
    133          1           0      -24.530405    4.194561   -0.591670
    134          1           0      -26.149030    6.252206   -0.134241
    135          1           0      -26.013146    6.666963   -1.847530
    136          1           0      -24.025506   -0.244824   -6.086639
    137          1           0      -25.630567    0.124408   -6.102523
    138          1           0      -25.328338   -1.375656   -6.793200
    139          1           0      -23.190131   -3.124448   -6.373831
    140          1           0      -24.943195   -3.607828   -6.557683
    141          1           0      -23.675643   -4.789450   -6.628185
    142          1           0      -25.376613   -5.583420    0.080841
    143          1           0      -27.191734   -4.944053    2.218025
    144          1           0      -28.367753   -5.509221    0.270679
    145          1           0      -27.477147   -6.655434   -0.649030
    146          1           0      -27.897540   -5.113848   -1.290281
    147          1           0      -24.424001   -4.065620    2.590912
    148          1           0      -24.568232   -5.832725    2.425789
    149          1           0      -24.829992   -4.255480    4.755991
    150          1           0      -25.181556   -5.945735    4.710457
    151          1           0      -26.420263   -4.710366    4.306565
    152          1           0      -27.598265   -1.099448    5.306090
    153          1           0      -27.724170    0.647329    5.710041
    154          1           0      -26.124258   -0.208017    5.769234
    155          1           0      -27.525385    4.037007    1.879306
    156          1           0      -25.658433    7.619335    2.114703
    157          1           0      -24.466092    6.688954    3.169573
    158          1           0      -25.976435    7.358857    3.782384
 ---------------------------------------------------------------------

 SCF Done:  E(RPBE1PBE) =  -4067.36421954     A.U. after   16 cycles

 Excitation energies and oscillator strengths:

 Excited State   1:      Singlet-A      1.8639 eV  665.19 nm  f=0.3568  <S**2>=0.000
     310 -> 316        0.18323
     312 -> 313        0.68966
 This state for optimization and/or second-order correction.
 Total Energy, E(TD-HF/TD-DFT) =  -4067.29572330
 Copying the excited state density for this state as the 1-particle RhoCI density.

 Excited State   2:      Singlet-A      1.8754 eV  661.09 nm  f=0.3795  <S**2>=0.000
     309 -> 315        0.18973
     311 -> 314        0.68793

 Excited State   3:      Singlet-A      2.0357 eV  609.04 nm  f=0.0000  <S**2>=0.000
     311 -> 313        0.70711

 Excited State   4:      Singlet-A      2.0436 eV  606.68 nm  f=0.0000  <S**2>=0.000
     312 -> 314        0.70711

 Excited State   5:      Singlet-A      2.2119 eV  560.54 nm  f=0.1054  <S**2>=0.000
     310 -> 313        0.65041
     312 -> 316       -0.26771

 The electronic state is 1-A.
 Alpha  occ. eigenvalues --  -46.91960 -46.91000 -19.25957 -19.25528 -19.19826
 Alpha  occ. eigenvalues --  -19.19508 -19.19371 -19.19304 -19.18696 -19.18494
 Alpha  occ. eigenvalues --  -14.42077 -14.41951 -14.41556 -14.41297 -14.39356
 Alpha  occ. eigenvalues --  -14.39131 -14.38857 -14.38105 -10.35712 -10.35569
 Alpha  occ. eigenvalues --  -10.33041 -10.32855 -10.32808 -10.31853 -10.29455
 Alpha  occ. eigenvalues --  -10.29210 -10.29149 -10.28997 -10.28942 -10.28852
 Alpha  occ. eigenvalues --  -10.28500 -10.28485 -10.28411 -10.28239 -10.28233
 Alpha  occ. eigenvalues --  -10.28083 -10.28041 -10.27735 -10.27617 -10.27037
 Alpha  occ. eigenvalues --  -10.26991 -10.26973 -10.26895 -10.26838 -10.26611
 Alpha  occ. eigenvalues --  -10.26584 -10.26477 -10.26391 -10.26230 -10.26191
 Alpha  occ. eigenvalues --  -10.25920 -10.25914 -10.25878 -10.25730 -10.25680
 Alpha  occ. eigenvalues --  -10.25617 -10.25590 -10.25557 -10.25520 -10.25346
 Alpha  occ. eigenvalues --  -10.25340 -10.25210 -10.25065 -10.24943 -10.24931
 Alpha  occ. eigenvalues --  -10.24891 -10.24652 -10.24460 -10.24144 -10.24126
 Alpha  occ. eigenvalues --  -10.24117 -10.23990 -10.23952 -10.23932 -10.23853
 Alpha  occ. eigenvalues --  -10.23528 -10.23508 -10.23449 -10.23387 -10.23363
 Alpha  occ. eigenvalues --  -10.23303 -10.23270 -10.22935 -10.22849 -10.22358
 Alpha  occ. eigenvalues --  -10.22245  -3.14134  -3.13414  -1.86977  -1.86511
 Alpha  occ. eigenvalues --   -1.86362  -1.86241  -1.85801  -1.85653  -1.12646
 Alpha  occ. eigenvalues --   -1.10720  -1.05577  -1.04524  -1.04038  -1.03356
 Alpha  occ. eigenvalues --   -1.01350  -1.00327  -1.00038  -0.99861  -0.99000
 Alpha  occ. eigenvalues --   -0.98446  -0.98285  -0.97437  -0.97049  -0.96294
 Alpha  occ. eigenvalues --   -0.87116  -0.86314  -0.83838  -0.83438  -0.83218
 Alpha  occ. eigenvalues --   -0.82946  -0.82544  -0.82367  -0.81866  -0.81806
 Alpha  occ. eigenvalues --   -0.81184  -0.81085  -0.80633  -0.79518  -0.78827
 Alpha  occ. eigenvalues --   -0.78686  -0.78131  -0.77889  -0.77175  -0.76704
 Alpha  occ. eigenvalues --   -0.76674  -0.76472  -0.75643  -0.75197  -0.74844
 Alpha  occ. eigenvalues --   -0.74638  -0.72873  -0.72473  -0.71868  -0.71648
 Alpha  occ. eigenvalues --   -0.71222  -0.71202  -0.70597  -0.70250  -0.69749
 Alpha  occ. eigenvalues --   -0.69490  -0.67260  -0.66794  -0.66610  -0.66229
 Alpha  occ. eigenvalues --   -0.63608  -0.63492  -0.63218  -0.62652  -0.62318
 Alpha  occ. eigenvalues --   -0.62242  -0.61634  -0.61263  -0.60492  -0.60209
 Alpha  occ. eigenvalues --   -0.60018  -0.59721  -0.59445  -0.59393  -0.59025
 Alpha  occ. eigenvalues --   -0.58780  -0.57091  -0.56367  -0.55264  -0.54790
 Alpha  occ. eigenvalues --   -0.54389  -0.54004  -0.53774  -0.53626  -0.53277
 Alpha  occ. eigenvalues --   -0.53115  -0.52640  -0.52427  -0.52284  -0.51574
 Alpha  occ. eigenvalues --   -0.51134  -0.50920  -0.50407  -0.50208  -0.50057
 Alpha  occ. eigenvalues --   -0.49622  -0.48900  -0.48892  -0.48812  -0.48504
 Alpha  occ. eigenvalues --   -0.48430  -0.47947  -0.47910  -0.47678  -0.47470
 Alpha  occ. eigenvalues --   -0.47417  -0.47240  -0.47108  -0.46895  -0.46781
 Alpha  occ. eigenvalues --   -0.46742  -0.46239  -0.46101  -0.45965  -0.45603
 Alpha  occ. eigenvalues --   -0.45333  -0.45236  -0.45050  -0.44981  -0.44775
 Alpha  occ. eigenvalues --   -0.44618  -0.44584  -0.44384  -0.44221  -0.44039
 Alpha  occ. eigenvalues --   -0.43924  -0.43732  -0.43559  -0.43530  -0.43482
 Alpha  occ. eigenvalues --   -0.43141  -0.43091  -0.42868  -0.42720  -0.42650
 Alpha  occ. eigenvalues --   -0.42613  -0.42378  -0.42207  -0.42133  -0.41978
 Alpha  occ. eigenvalues --   -0.41606  -0.41271  -0.41213  -0.41113  -0.40984
 Alpha  occ. eigenvalues --   -0.40810  -0.40650  -0.40613  -0.40490  -0.40341
 Alpha  occ. eigenvalues --   -0.40283  -0.40214  -0.40014  -0.39956  -0.39811
 Alpha  occ. eigenvalues --   -0.39661  -0.39526  -0.39153  -0.38926  -0.38870
 Alpha  occ. eigenvalues --   -0.38802  -0.38592  -0.38405  -0.38293  -0.38076
 Alpha  occ. eigenvalues --   -0.37946  -0.37892  -0.37719  -0.37705  -0.37667
 Alpha  occ. eigenvalues --   -0.37437  -0.37381  -0.37054  -0.36876  -0.36702
 Alpha  occ. eigenvalues --   -0.36696  -0.36416  -0.36314  -0.36242  -0.36106
 Alpha  occ. eigenvalues --   -0.36027  -0.35725  -0.35704  -0.35531  -0.35352
 Alpha  occ. eigenvalues --   -0.35211  -0.35028  -0.34821  -0.34528  -0.34421
 Alpha  occ. eigenvalues --   -0.33690  -0.33422  -0.32911  -0.32841  -0.32450
 Alpha  occ. eigenvalues --   -0.32249  -0.32028  -0.31738  -0.31349  -0.30872
 Alpha  occ. eigenvalues --   -0.30486  -0.30368  -0.29689  -0.29467  -0.29192
 Alpha  occ. eigenvalues --   -0.28861  -0.28085  -0.27881  -0.27264  -0.26993
 Alpha  occ. eigenvalues --   -0.26416  -0.26328  -0.25981  -0.25949  -0.25705
 Alpha  occ. eigenvalues --   -0.25583  -0.25221  -0.24691  -0.21120  -0.20819
 Alpha  occ. eigenvalues --   -0.18801  -0.18781
 Alpha virt. eigenvalues --   -0.11064  -0.11017  -0.05754  -0.05391  -0.04478
 Alpha virt. eigenvalues --   -0.04391  -0.02280  -0.01960  -0.00170   0.00160
 Alpha virt. eigenvalues --    0.00831   0.00946   0.01066   0.01480   0.01617

 Mulliken charges:
               1
     1  Mg  12.004676
     2  C    5.980280
     3  C    6.000906
     4  C    6.025923
     5  C    5.993863
     6  N    6.988637
     7  C    6.032545
     8  C    5.984724
     9  C    6.010895
    10  C    5.969521
    11  C    6.004216
    12  C    5.997279
    13  C    5.997922
    14  H    1.005778
    15  N    7.007040
    16  C    5.967229
    17  C    5.981830
    18  C    5.980963
    19  C    5.973840
    20  C    6.005730
    21  C    5.987002
    22  O    7.971017
    23  C    6.004608
    24  N    7.010079
    25  C    5.958935
    26  C    6.005891
    27  C    5.992670
    28  C    6.027308
    29  C    6.002776
    30  C    5.997909
    31  C    5.999858
    32  N    6.999688
    33  C    6.028485
    34  C    6.030918
    35  C    6.000705
    36  C    6.030498
    37  C    5.999949
    38  C    6.018182
    39  O    8.026810
    40  C    6.001363
    41  C    6.000887
    42  O    8.007792
    43  O    8.000828
    44  C    5.997408
    45  H    0.987435
    46  H    0.997022
    47  H    1.009749
    48  H    1.000907
    49  H    1.000821
    50  H    0.987284
    51  H    1.004471
    52  H    0.993470
    53  H    1.008637
    54  H    0.998821
    55  H    0.995369
    56  H    0.999998
    57  H    0.982540
    58  H    0.985005
    59  H    0.981993
    60  H    0.994659
    61  H    0.992902
    62  H    0.986325
    63  H    1.000280
    64  H    1.002500
    65  H    1.006097
    66  H    0.992595
    67  H    0.996856
    68  H    0.996197
    69  H    1.010570
    70  H    0.996825
    71  H    1.006014
    72  H    0.999050
    73  H    1.019479
    74  H    1.014271
    75  H    1.017551
    76  H    1.007995
    77  H    1.006046
    78  H    1.004061
    79  H    1.000840
    80  Mg  12.000029
    81  C    5.999797
    82  C    6.000153
    83  C    6.000133
    84  C    5.999787
    85  N    6.999963
    86  C    6.000486
    87  C    5.999834
    88  C    6.000090
    89  C    5.999519
    90  C    6.000044
    91  C    5.999973
    92  C    5.999977
    93  H    1.000067
    94  N    7.000031
    95  C    5.999627
    96  C    5.999692
    97  C    5.999713
    98  C    5.999750
    99  C    6.000085
   100  C    5.999803
   101  O    7.999575
   102  C    6.000089
   103  N    6.999915
   104  C    5.999677
   105  C    6.000086
   106  C    5.999904
   107  C    6.000441
   108  C    6.000069
   109  C    5.999965
   110  C    5.999978
   111  N    7.000005
   112  C    6.000456
   113  C    6.000388
   114  C    5.999983
   115  C    6.000399
   116  C    6.000003
   117  C    6.000262
   118  O    8.000392
   119  C    5.999990
   120  C    6.000051
   121  O    8.000128
   122  O    7.999998
   123  C    5.999958
   124  H    0.999876
   125  H    0.999920
   126  H    1.000131
   127  H    1.000008
   128  H    1.000026
   129  H    0.999996
   130  H    0.999962
   131  H    0.999810
   132  H    1.000161
   133  H    0.999976
   134  H    0.999936
   135  H    1.000051
   136  H    0.999744
   137  H    0.999748
   138  H    0.999761
   139  H    0.999884
   140  H    0.999900
   141  H    0.999779
   142  H    1.000040
   143  H    1.000039
   144  H    0.999832
   145  H    0.999966
   146  H    1.000059
   147  H    1.000031
   148  H    1.000167
   149  H    0.999986
   150  H    1.000087
   151  H    0.999948
   152  H    1.000196
   153  H    1.000182
   154  H    1.000269
   155  H    1.000087
   156  H    1.000077
   157  H    1.000062
   158  H    1.000041
 Sum of Mulliken charges = 624.00000

 Dipole moment (field-independent basis, Debye):
    X=              5.1005    Y=             -0.2714    Z=             -8.6534  Tot=             10.0484
 Quadrupole moment (field-independent basis, Debye-Ang):
   XX=            265.6012   YY=              2.5134   ZZ=            -11.6266
   XY=            -12.9151   XZ=           -226.5579   YZ=              3.1060

 Normal termination of Gaussian 16 at Fri Oct 15 13:28:55 2021.
