 Gaussian 16, Revision A.03,
 Gaussian 16:  ES64L-G16RevA.03 25-Dec-2016

 --------------------------------------------------------
 #p PBE1PBE/Def2SVP td=(nstates=5) density=(transition=1)
 --------------------------------------------------------

 --------------------------------
 TDDFT excited states in gaussian
 --------------------------------
 Symbolic Z-matrix:
 Charge =  0 Multiplicity = 1

                         Standard orientation:
 ---------------------------------------------------------------------
 Center     Atomic      Atomic             Coordinates (Angstroms)
 Number     Number       Type             X           Y           Z
 ---------------------------------------------------------------------
      1         12           0       28.654156    0.660360    0.529852
      2          6           0       28.869214   -2.433300   -1.287167
      3          6           0       27.107242    1.996540   -2.367140
      4          6           0       28.464743    3.794758    2.058246
      5          6           0       30.466390   -0.590810    3.041960
      6          7           0       28.250075   -0.158200   -1.712260
      7          6           0       28.321965   -1.445082   -2.114843
      8          6           0       27.880081   -1.561089   -3.617995
      9          6           0       27.540780   -0.060135   -3.932095
     10          6           0       27.551262    0.660993   -2.564687
     11          6           0       28.523630    0.566404   -4.981869
     12          6           0       26.688457   -2.494592   -3.829825
     13          6           0       26.781470   -3.431229   -4.989421
     14          1           0       25.663160   -4.462632   -5.197962
     15          7           0       27.738611    2.536562    0.054675
     16          6           0       27.179254    2.857846   -1.177612
     17          6           0       26.674486    4.214508   -1.102351
     18          6           0       26.944483    4.724391    0.156812
     19          6           0       27.825012    3.696311    0.807281
     20          6           0       26.097893    4.978018   -2.259806
     21          6           0       26.649610    6.144537    0.792145
     22          8           0       26.918255    6.524191    1.905611
     23          6           0       25.792677    7.120037    0.014772
     24          7           0       29.454926    1.538167    2.169454
     25          6           0       29.283058    2.808207    2.655096
     26          6           0       30.197578    3.098971    3.867928
     27          6           0       30.638222    1.643510    4.324915
     28          6           0       30.119837    0.796611    3.100704
     29          6           0       31.365282    4.080645    3.531265
     30          6           0       30.028218    1.178683    5.682287
     31          6           0       28.520561    0.936239    5.682065
     32          7           0       29.530769   -1.076223    0.865660
     33          6           0       30.228427   -1.520706    2.023245
     34          6           0       30.663596   -2.906076    1.860155
     35          6           0       30.110842   -3.295437    0.626882
     36          6           0       29.428663   -2.186514    0.059920
     37          6           0       31.432410   -3.684940    2.823644
     38          6           0       30.024463   -4.445943   -0.266747
     39          8           0       30.428232   -5.585458   -0.105629
     40          6           0       29.283087   -3.916986   -1.609550
     41          6           0       28.160389   -4.952843   -1.705686
     42          8           0       27.146831   -5.062654   -0.992408
     43          8           0       28.454681   -5.810364   -2.667376
     44          6           0       27.383297   -6.765941   -3.164297
     45          1           0       26.565999    2.375311   -3.236298
     46          1           0       28.461301    4.737882    2.610253
     47          1           0       30.988528   -0.955950    3.928474
     48          1           0       28.735740   -2.020434   -4.111777
     49          1           0       26.523012    0.052528   -4.308068
     50          1           0       28.061468    1.008574   -5.864473
     51          1           0       29.367726   -0.074220   -5.237914
     52          1           0       29.044630    1.472108   -4.670637
     53          1           0       25.965789   -1.808482   -4.271884
     54          1           0       26.310974   -2.927331   -2.902698
     55          1           0       27.693211   -4.008312   -5.152002
     56          1           0       26.718230   -2.761377   -5.847046
     57          1           0       25.936856    4.331089   -3.121775
     58          1           0       26.694774    5.825517   -2.600398
     59          1           0       25.111694    5.411846   -2.093755
     60          1           0       24.798552    6.724865   -0.193883
     61          1           0       26.410977    7.294955   -0.865745
     62          1           0       25.856734    8.031962    0.608425
     63          1           0       29.553330    3.660746    4.545198
     64          1           0       31.691863    1.382943    4.222285
     65          1           0       31.254308    5.048850    4.019421
     66          1           0       31.620008    4.237724    2.483737
     67          1           0       32.215741    3.533142    3.937945
     68          1           0       30.465793    1.798558    6.464962
     69          1           0       30.454267    0.201500    5.909024
     70          1           0       27.993302    1.215397    4.770557
     71          1           0       28.126068    1.563829    6.480808
     72          1           0       28.208001   -0.105566    5.743115
     73          1           0       31.665962   -4.703250    2.512185
     74          1           0       30.821591   -3.696739    3.726255
     75          1           0       32.343873   -3.126900    3.042599
     76          1           0       29.879615   -4.086093   -2.506001
     77          1           0       27.735738   -7.124472   -4.131679
     78          1           0       26.433869   -6.270947   -3.366148
     79          1           0       27.162095   -7.572996   -2.464880
     80         12           0      -29.175594   -0.363469   -0.047767
     81          6           0      -25.943291    0.044782   -1.024167
     82          6           0      -28.096016   -2.875980    2.195064
     83          6           0      -32.052601    0.009602    1.606875
     84          6           0      -30.096629    2.563241   -1.952677
     85          7           0      -27.265772   -1.274683    0.456057
     86          6           0      -26.088664   -1.003538   -0.001784
     87          6           0      -25.001743   -2.056832    0.415717
     88          6           0      -25.798610   -3.153497    1.219771
     89          6           0      -27.193574   -2.442994    1.300522
     90          6           0      -25.707853   -4.585281    0.690060
     91          6           0      -23.741707   -1.365968    1.210655
     92          6           0      -23.960825   -0.032265    1.906344
     93          1           0      -23.004898    0.439356    3.002085
     94          7           0      -29.949927   -1.306322    1.672626
     95          6           0      -29.410372   -2.338038    2.402579
     96          6           0      -30.262092   -2.659373    3.464044
     97          6           0      -31.429882   -1.808696    3.363721
     98          6           0      -31.169849   -0.936971    2.187826
     99          6           0      -29.975471   -3.850983    4.359211
    100          6           0      -32.623917   -1.861240    4.333946
    101          8           0      -32.578402   -2.691437    5.269414
    102          6           0      -33.795053   -1.035891    4.265503
    103          7           0      -30.828242    1.227794   -0.054503
    104          6           0      -31.919870    0.955053    0.602164
    105          6           0      -33.099167    1.903053    0.242538
    106          6           0      -32.497188    2.694426   -0.939125
    107          6           0      -31.015191    2.154489   -1.063222
    108          6           0      -34.353228    1.208125   -0.148760
    109          6           0      -32.590130    4.279977   -0.737012
    110          6           0      -33.584208    5.049202   -1.700967
    111          7           0      -28.311927    0.988315   -1.342566
    112          6           0      -28.769675    2.091665   -2.073649
    113          6           0      -27.637849    2.621296   -2.896351
    114          6           0      -26.539899    1.864787   -2.462644
    115          6           0      -26.975621    0.908325   -1.498167
    116          6           0      -27.633090    3.704504   -3.861108
    117          6           0      -25.162862    1.778240   -2.637403
    118          8           0      -24.349960    2.375580   -3.358107
    119          6           0      -24.721292    0.546787   -1.796554
    120          6           0      -24.015422   -0.453474   -2.742655
    121          8           0      -22.905923   -0.941989   -2.612613
    122          8           0      -24.797219   -0.782816   -3.828762
    123          6           0      -24.226359   -1.696506   -4.825526
    124          1           0      -27.659180   -3.601374    2.884351
    125          1           0      -33.068932    0.071754    2.000897
    126          1           0      -30.427658    3.335444   -2.650070
    127          1           0      -24.710490   -2.569961   -0.501171
    128          1           0      -25.491724   -3.200697    2.265074
    129          1           0      -26.687625   -4.908642    0.339053
    130          1           0      -25.400548   -5.291860    1.461910
    131          1           0      -24.968435   -4.754181   -0.092829
    132          1           0      -22.987693   -1.337974    0.423675
    133          1           0      -23.352847   -1.938846    2.052773
    134          1           0      -24.962794   -0.137379    2.321591
    135          1           0      -24.032266    0.699025    1.101027
    136          1           0      -30.717198   -4.643451    4.462229
    137          1           0      -29.675361   -3.482987    5.340619
    138          1           0      -29.082818   -4.358752    3.994423
    139          1           0      -34.419313   -1.110513    3.375269
    140          1           0      -33.514447    0.015246    4.206663
    141          1           0      -34.416402   -1.082623    5.159299
    142          1           0      -33.466048    2.592371    1.002912
    143          1           0      -32.923086    2.418107   -1.903752
    144          1           0      -35.138808    1.213462    0.606682
    145          1           0      -34.188264    0.132932   -0.227039
    146          1           0      -34.744834    1.631511   -1.073544
    147          1           0      -31.615214    4.706029   -0.977765
    148          1           0      -32.950144    4.588801    0.243442
    149          1           0      -34.186435    5.748236   -1.122003
    150          1           0      -34.305056    4.325906   -2.082395
    151          1           0      -32.938350    5.618608   -2.369613
    152          1           0      -28.636114    3.688138   -4.288103
    153          1           0      -26.900550    3.516597   -4.646896
    154          1           0      -27.321874    4.595235   -3.316161
    155          1           0      -23.851133    0.743744   -1.170774
    156          1           0      -24.731603   -1.524422   -5.776092
    157          1           0      -24.341508   -2.768607   -4.666853
    158          1           0      -23.143664   -1.616504   -4.927189
 ---------------------------------------------------------------------

 SCF Done:  E(RPBE1PBE) =  -4067.32954704     A.U. after   19 cycles

 Excitation energies and oscillator strengths:

 Excited State   1:      Singlet-A      1.7549 eV  706.52 nm  f=0.0000  <S**2>=0.000
     312 -> 313        0.70711
 This state for optimization and/or second-order correction.
 Total Energy, E(TD-HF/TD-DFT) =  -4067.26505729
 Copying the excited state density for this state as the 1-particle RhoCI density.

 Excited State   2:      Singlet-A      1.8203 eV  681.13 nm  f=0.3562  <S**2>=0.000
     310 -> 315       -0.17698
     312 -> 314        0.69234
     312 <- 314       -0.10909

 Excited State   3:      Singlet-A      1.8537 eV  668.86 nm  f=0.4192  <S**2>=0.000
     309 -> 316       -0.15880
     311 -> 313        0.69708
     311 <- 313       -0.12237

 Excited State   4:      Singlet-A      2.1644 eV  572.82 nm  f=0.0000  <S**2>=0.000
     311 -> 314        0.70711

 Excited State   5:      Singlet-A      2.2320 eV  555.49 nm  f=0.0925  <S**2>=0.000
     310 -> 314        0.63929
     312 -> 315        0.29195

 The electronic state is 1-A.
 Alpha  occ. eigenvalues --  -46.93714 -46.91695 -19.25561 -19.25483 -19.20312
 Alpha  occ. eigenvalues --  -19.19636 -19.19612 -19.19020 -19.18255 -19.17864
 Alpha  occ. eigenvalues --  -14.42700 -14.41945 -14.41406 -14.41096 -14.40113
 Alpha  occ. eigenvalues --  -14.39714 -14.39605 -14.39398 -10.36735 -10.35497
 Alpha  occ. eigenvalues --  -10.32668 -10.32590 -10.31650 -10.31593 -10.30551
 Alpha  occ. eigenvalues --  -10.29410 -10.29259 -10.29218 -10.29070 -10.28967
 Alpha  occ. eigenvalues --  -10.28867 -10.28804 -10.28687 -10.28686 -10.28664
 Alpha  occ. eigenvalues --  -10.28595 -10.28573 -10.28271 -10.27838 -10.27817
 Alpha  occ. eigenvalues --  -10.27660 -10.27132 -10.27071 -10.27046 -10.26971
 Alpha  occ. eigenvalues --  -10.26651 -10.26535 -10.26396 -10.26330 -10.26305
 Alpha  occ. eigenvalues --  -10.26284 -10.26220 -10.26197 -10.26185 -10.26162
 Alpha  occ. eigenvalues --  -10.25970 -10.25932 -10.25852 -10.25827 -10.25551
 Alpha  occ. eigenvalues --  -10.25155 -10.25063 -10.25046 -10.24902 -10.24812
 Alpha  occ. eigenvalues --  -10.24811 -10.24798 -10.24764 -10.24474 -10.24395
 Alpha  occ. eigenvalues --  -10.24248 -10.24196 -10.24128 -10.23932 -10.23678
 Alpha  occ. eigenvalues --  -10.23639 -10.23585 -10.23555 -10.23527 -10.23453
 Alpha  occ. eigenvalues --  -10.23197 -10.23085 -10.23079 -10.22944 -10.22802
 Alpha  occ. eigenvalues --  -10.22565  -3.15703  -3.13962  -1.88519  -1.88110
 Alpha  occ. eigenvalues --   -1.87891  -1.86789  -1.86354  -1.86192  -1.10853
 Alpha  occ. eigenvalues --   -1.10719  -1.06127  -1.04807  -1.03599  -1.02529
 Alpha  occ. eigenvalues --   -1.02144  -1.00083  -0.99600  -0.99118  -0.98369
 Alpha  occ. eigenvalues --   -0.98203  -0.97720  -0.97127  -0.96845  -0.96359
 Alpha  occ. eigenvalues --   -0.87239  -0.85198  -0.84032  -0.83735  -0.83466
 Alpha  occ. eigenvalues --   -0.83330  -0.83002  -0.82456  -0.82269  -0.82096
 Alpha  occ. eigenvalues --   -0.81690  -0.81219  -0.80737  -0.79758  -0.79009
 Alpha  occ. eigenvalues --   -0.78429  -0.78370  -0.77842  -0.77225  -0.76823
 Alpha  occ. eigenvalues --   -0.76618  -0.75688  -0.75636  -0.75312  -0.74562
 Alpha  occ. eigenvalues --   -0.74478  -0.72852  -0.72404  -0.71711  -0.71593
 Alpha  occ. eigenvalues --   -0.71259  -0.71229  -0.70652  -0.70257  -0.69716
 Alpha  occ. eigenvalues --   -0.69463  -0.67846  -0.67036  -0.66436  -0.66066
 Alpha  occ. eigenvalues --   -0.64389  -0.63980  -0.63276  -0.63145  -0.62759
 Alpha  occ. eigenvalues --   -0.61946  -0.61381  -0.60636  -0.60420  -0.60151
 Alpha  occ. eigenvalues --   -0.59869  -0.59603  -0.59368  -0.59118  -0.59114
 Alpha  occ. eigenvalues --   -0.58632  -0.57838  -0.56380  -0.55407  -0.54586
 Alpha  occ. eigenvalues --   -0.54092  -0.53904  -0.53587  -0.53463  -0.53169
 Alpha  occ. eigenvalues --   -0.52669  -0.52371  -0.51946  -0.51696  -0.51024
 Alpha  occ. eigenvalues --   -0.50625  -0.50263  -0.50257  -0.49987  -0.49977
 Alpha  occ. eigenvalues --   -0.49615  -0.49292  -0.49134  -0.48967  -0.48486
 Alpha  occ. eigenvalues --   -0.48423  -0.48050  -0.47790  -0.47773  -0.47716
 Alpha  occ. eigenvalues --   -0.47511  -0.47497  -0.47242  -0.47125  -0.46941
 Alpha  occ. eigenvalues --   -0.46735  -0.46621  -0.46183  -0.46104  -0.45719
 Alpha  occ. eigenvalues --   -0.45554  -0.45553  -0.45443  -0.45311  -0.44850
 Alpha  occ. eigenvalues --   -0.44698  -0.44511  -0.44369  -0.44191  -0.44186
 Alpha  occ. eigenvalues --   -0.43879  -0.43860  -0.43827  -0.43670  -0.43543
 Alpha  occ. eigenvalues --   -0.43433  -0.43281  -0.43200  -0.43054  -0.43020
 Alpha  occ. eigenvalues --   -0.42725  -0.42394  -0.42221  -0.42134  -0.42107
 Alpha  occ. eigenvalues --   -0.41905  -0.41556  -0.41483  -0.41377  -0.41332
 Alpha  occ. eigenvalues --   -0.41045  -0.41007  -0.40898  -0.40679  -0.40550
 Alpha  occ. eigenvalues --   -0.40497  -0.40279  -0.40072  -0.39884  -0.39839
 Alpha  occ. eigenvalues --   -0.39683  -0.39590  -0.39328  -0.39205  -0.39154
 Alpha  occ. eigenvalues --   -0.38983  -0.38801  -0.38566  -0.38503  -0.38398
 Alpha  occ. eigenvalues --   -0.38232  -0.37920  -0.37856  -0.37752  -0.37613
 Alpha  occ. eigenvalues --   -0.37480  -0.37209  -0.37199  -0.36954  -0.36854
 Alpha  occ. eigenvalues --   -0.36750  -0.36713  -0.36360  -0.36215  -0.35830
 Alpha  occ. eigenvalues --   -0.35714  -0.35710  -0.35575  -0.35249  -0.35124
 Alpha  occ. eigenvalues --   -0.34996  -0.34752  -0.34526  -0.34023  -0.34008
 Alpha  occ. eigenvalues --   -0.33599  -0.33547  -0.33044  -0.33041  -0.32889
 Alpha  occ. eigenvalues --   -0.32512  -0.31845  -0.31706  -0.31583  -0.31308
 Alpha  occ. eigenvalues --   -0.31064  -0.30644  -0.29786  -0.29636  -0.29299
 Alpha  occ. eigenvalues --   -0.29094  -0.28656  -0.27613  -0.27152  -0.26901
 Alpha  occ. eigenvalues --   -0.26391  -0.26065  -0.25863  -0.25828  -0.25665
 Alpha  occ. eigenvalues --   -0.25506  -0.25055  -0.24843  -0.21810  -0.21025
 Alpha  occ. eigenvalues --   -0.19324  -0.18622
 Alpha virt. eigenvalues --   -0.11944  -0.11142  -0.05481  -0.05436  -0.04197
 Alpha virt. eigenvalues --   -0.03578  -0.02368  -0.02046  -0.02041   0.00478
 Alpha virt. eigenvalues --    0.00618   0.00835   0.00877   0.01375   0.01414

 Mulliken charges:
               1
     1  Mg  12.000000
     2  C    6.000000
     3  C    6.000000
     4  C    6.000000
     5  C    6.000000
     6  N    7.000000
     7  C    6.000000
     8  C    6.000000
     9  C    6.000000
    10  C    6.000000
    11  C    6.000000
    12  C    6.000000
    13  C    6.000000
    14  H    1.000000
    15  N    7.000000
    16  C    6.000000
    17  C    6.000000
    18  C    6.000000
    19  C    6.000000
    20  C    6.000000
    21  C    6.000000
    22  O    8.000000
    23  C    6.000000
    24  N    7.000000
    25  C    6.000000
    26  C    6.000000
    27  C    6.000000
    28  C    6.000000
    29  C    6.000000
    30  C    6.000000
    31  C    6.000000
    32  N    7.000000
    33  C    6.000000
    34  C    6.000000
    35  C    6.000000
    36  C    6.000000
    37  C    6.000000
    38  C    6.000000
    39  O    8.000000
    40  C    6.000000
    41  C    6.000000
    42  O    8.000000
    43  O    8.000000
    44  C    6.000000
    45  H    1.000000
    46  H    1.000000
    47  H    1.000000
    48  H    1.000000
    49  H    1.000000
    50  H    1.000000
    51  H    1.000000
    52  H    1.000000
    53  H    1.000000
    54  H    1.000000
    55  H    1.000000
    56  H    1.000000
    57  H    1.000000
    58  H    1.000000
    59  H    1.000000
    60  H    1.000000
    61  H    1.000000
    62  H    1.000000
    63  H    1.000000
    64  H    1.000000
    65  H    1.000000
    66  H    1.000000
    67  H    1.000000
    68  H    1.000000
    69  H    1.000000
    70  H    1.000000
    71  H    1.000000
    72  H    1.000000
    73  H    1.000000
    74  H    1.000000
    75  H    1.000000
    76  H    1.000000
    77  H    1.000000
    78  H    1.000000
    79  H    1.000000
    80  Mg  12.000000
    81  C    6.000000
    82  C    6.000000
    83  C    6.000000
    84  C    6.000000
    85  N    7.000000
    86  C    6.000000
    87  C    6.000000
    88  C    6.000000
    89  C    6.000000
    90  C    6.000000
    91  C    6.000000
    92  C    6.000000
    93  H    1.000000
    94  N    7.000000
    95  C    6.000000
    96  C    6.000000
    97  C    6.000000
    98  C    6.000000
    99  C    6.000000
   100  C    6.000000
   101  O    8.000000
   102  C    6.000000
   103  N    7.000000
   104  C    6.000000
   105  C    6.000000
   106  C    6.000000
   107  C    6.000000
   108  C    6.000000
   109  C    6.000000
   110  C    6.000000
   111  N    7.000000
   112  C    6.000000
   113  C    6.000000
   114  C    6.000000
   115  C    6.000000
   116  C    6.000000
   117  C    6.000000
   118  O    8.000000
   119  C    6.000000
   120  C    6.000000
   121  O    8.000000
   122  O    8.000000
   123  C    6.000000
   124  H    1.000000
   125  H    1.000000
   126  H    1.000000
   127  H    1.000000
   128  H    1.000000
   129  H    1.000000
   130  H    1.000000
   131  H    1.000000
   132  H    1.000000
   133  H    1.000000
   134  H    1.000000
   135  H    1.000000
   136  H    1.000000
   137  H    1.000000
   138  H    1.000000
   139  H    1.000000
   140  H    1.000000
   141  H    1.000000
   142  H    1.000000
   143  H    1.000000
   144  H    1.000000
   145  H    1.000000
   146  H    1.000000
   147  H    1.000000
   148  H    1.000000
   149  H    1.000000
   150  H    1.000000
   151  H    1.000000
   152  H    1.000000
   153  H    1.000000
   154  H    1.000000
   155  H    1.000000
   156  H    1.000000
   157  H    1.000000
   158  H    1.000000
 Sum of Mulliken charges = 624.00000

 Dipole moment (field-independent basis, Debye):
    X=             -0.0000    Y=              0.0000    Z=             -0.0000  Tot=              0.0000
 Quadrupole moment (field-independent basis, Debye-Ang):
   XX=             -0.0000   YY=              0.0000   ZZ=             -0.0000
   XY=              0.0000   XZ=             -0.0000   YZ=              0.0000

 Normal termination of Gaussian 16 at Thu Oct 14 14:13:45 2021.
