 Gaussian 16, Revision A.03,
 Gaussian 16:  ES64L-G16RevA.03 25-Dec-2016

 --------------------------------------------------------
 #p PBE1PBE/Def2SVP td=(nstates=5) density=(transition=1)
 --------------------------------------------------------

 --------------------------------
 TDDFT excited states in gaussian
 --------------------------------
 Symbolic Z-matrix:
 Charge =  0 Multiplicity = 1

                         Standard orientation:
 ---------------------------------------------------------------------
 Center     Atomic      Atomic             Coordinates (Angstroms)
 Number     Number       Type             X           Y           Z
 ---------------------------------------------------------------------
      1         12           0       12.549999   -0.776966   -0.440525
      2          6           0       14.569004    2.180213   -0.065138
      3          6           0        9.861139    1.153578    0.394266
      4          6           0       10.728850   -3.593337   -0.494705
      5          6           0       15.416078   -2.573998   -0.768290
      6          7           0       12.261685    1.527822    0.071804
      7          6           0       13.250812    2.467640    0.100121
      8          6           0       12.595193    3.787356    0.254559
      9          6           0       11.101301    3.471981    0.542993
     10          6           0       10.995940    1.930274    0.386421
     11          6           0       10.680439    3.912437    1.981162
     12          6           0       12.785747    4.755151   -0.886413
     13          6           0       12.352738    6.201905   -0.712208
     14          1           0       13.329860    7.236877   -1.083685
     15          7           0       10.579722   -1.139751   -0.210909
     16          6           0        9.609017   -0.203825    0.241374
     17          6           0        8.305145   -0.890683    0.180067
     18          6           0        8.593633   -2.242951    0.015606
     19          6           0       10.047638   -2.384167   -0.182084
     20          6           0        7.014449   -0.151898    0.466069
     21          6           0        7.636242   -3.451749   -0.062713
     22          8           0        8.003399   -4.639193    0.014061
     23          6           0        6.206888   -3.156561   -0.270448
     24          7           0       12.994096   -2.846069   -0.544940
     25          6           0       12.125903   -3.836413   -0.568784
     26          6           0       12.789277   -5.237128   -0.673663
     27          6           0       14.230118   -4.843186   -1.006062
     28          6           0       14.209140   -3.344807   -0.808221
     29          6           0       12.669022   -6.033373    0.669432
     30          6           0       14.748157   -5.234121   -2.371780
     31          6           0       16.179063   -5.797597   -2.431904
     32          7           0       14.547510   -0.286644   -0.512674
     33          6           0       15.604947   -1.156410   -0.666298
     34          6           0       16.905846   -0.424423   -0.730468
     35          6           0       16.460538    0.856117   -0.471248
     36          6           0       15.072424    0.905670   -0.295239
     37          6           0       18.250649   -0.943535   -1.126732
     38          6           0       16.950153    2.217091   -0.308457
     39          8           0       18.103188    2.616181   -0.426531
     40          6           0       15.749527    3.152639   -0.038092
     41          6           0       16.086204    3.922828    1.131944
     42          8           0       16.068510    3.531092    2.323729
     43          8           0       16.276440    5.229156    0.797600
     44          6           0       16.352892    6.212829    1.855543
     45          1           0        8.980735    1.773326    0.575215
     46          1           0       10.170493   -4.520379   -0.349868
     47          1           0       16.263132   -3.251789   -0.645114
     48          1           0       13.064750    4.183125    1.154153
     49          1           0       10.428535    3.972589   -0.153555
     50          1           0        9.804624    4.527622    2.189952
     51          1           0       11.539560    4.475125    2.346051
     52          1           0       10.643458    3.109680    2.718072
     53          1           0       12.198824    4.459639   -1.756229
     54          1           0       13.765097    4.648321   -1.352025
     55          1           0       12.099898    6.405242    0.327304
     56          1           0       11.604169    6.369347   -1.486181
     57          1           0        6.340879   -0.673526    1.145683
     58          1           0        6.439811    0.098745   -0.425370
     59          1           0        7.135363    0.798275    0.986895
     60          1           0        6.115253   -2.482659   -1.122364
     61          1           0        5.941159   -2.645126    0.654058
     62          1           0        5.739840   -4.096591   -0.561919
     63          1           0       12.293592   -5.743883   -1.502376
     64          1           0       14.995249   -5.196402   -0.315339
     65          1           0       13.639531   -6.162355    1.147661
     66          1           0       12.296515   -7.043450    0.498810
     67          1           0       12.021770   -5.428195    1.304378
     68          1           0       14.681432   -4.409905   -3.081221
     69          1           0       13.944884   -5.838637   -2.791737
     70          1           0       16.217055   -6.460443   -3.295817
     71          1           0       16.508735   -6.230140   -1.486771
     72          1           0       16.755316   -4.883577   -2.573886
     73          1           0       18.533898   -0.716192   -2.154611
     74          1           0       18.247957   -1.993471   -0.835328
     75          1           0       18.994526   -0.587950   -0.412694
     76          1           0       15.788305    3.879804   -0.849108
     77          1           0       16.135953    5.826984    2.851972
     78          1           0       15.748266    7.086186    1.612584
     79          1           0       17.350839    6.643570    1.941271
     80         12           0      -12.921051   -0.696564    0.344930
     81          6           0      -13.582531    2.615257   -0.921599
     82          6           0      -11.179851    0.851013    2.966104
     83          6           0      -12.409182   -3.695343    1.579925
     84          6           0      -14.428814   -2.039724   -2.508787
     85          7           0      -12.437399    1.547118    0.900688
     86          6           0      -12.978696    2.678230    0.376442
     87          6           0      -12.750491    3.886021    1.270650
     88          6           0      -11.659383    3.365094    2.363010
     89          6           0      -11.732693    1.841341    2.056187
     90          6           0      -10.262559    4.027247    2.259910
     91          6           0      -14.073876    4.419204    1.916364
     92          6           0      -14.367651    5.910918    1.611144
     93          1           0      -14.358914    6.868450    2.937626
     94          7           0      -11.966592   -1.312462    1.990811
     95          6           0      -11.252644   -0.567345    2.989428
     96          6           0      -10.681844   -1.416481    4.061657
     97          6           0      -11.110228   -2.721716    3.652554
     98          6           0      -11.850642   -2.610015    2.384605
     99          6           0       -9.848564   -0.903964    5.238069
    100          6           0      -10.807998   -4.028753    4.280678
    101          8           0      -11.378559   -5.086784    4.038216
    102          6           0       -9.787825   -4.054245    5.435800
    103          7           0      -13.507896   -2.540790   -0.283152
    104          6           0      -13.148196   -3.658893    0.387661
    105          6           0      -13.408450   -4.919261   -0.389557
    106          6           0      -14.099671   -4.433992   -1.687532
    107          6           0      -14.078687   -2.901657   -1.488562
    108          6           0      -12.196616   -5.806415   -0.583330
    109          6           0      -15.638512   -4.996579   -1.768334
    110          6           0      -16.024592   -5.798938   -3.126801
    111          7           0      -13.595609    0.086103   -1.513451
    112          6           0      -14.263528   -0.621069   -2.542060
    113          6           0      -14.741535    0.362290   -3.520660
    114          6           0      -14.605516    1.598363   -2.835602
    115          6           0      -13.811987    1.389683   -1.706558
    116          6           0      -15.325742    0.153022   -4.914483
    117          6           0      -14.739091    3.064538   -3.066385
    118          8           0      -15.152438    3.792263   -4.011375
    119          6           0      -14.180823    3.734613   -1.751765
    120          6           0      -13.162701    4.765889   -2.140015
    121          8           0      -12.310692    4.596797   -2.965774
    122          8           0      -13.436792    5.942389   -1.499573
    123          6           0      -12.696454    7.091226   -2.079768
    124          1           0      -10.539301    1.372123    3.680375
    125          1           0      -12.269481   -4.718558    1.935679
    126          1           0      -14.937425   -2.435399   -3.390112
    127          1           0      -12.264858    4.634501    0.644467
    128          1           0      -12.011628    3.473134    3.389203
    129          1           0       -9.507159    3.297042    1.968135
    130          1           0       -9.987308    4.486064    3.210446
    131          1           0      -10.189753    4.882410    1.587933
    132          1           0      -14.057817    4.328673    3.002790
    133          1           0      -14.945149    3.869538    1.559204
    134          1           0      -15.392718    6.087045    1.284041
    135          1           0      -13.764241    6.350372    0.817487
    136          1           0       -9.912510    0.160739    5.464827
    137          1           0       -8.789951   -1.162051    5.211056
    138          1           0      -10.249514   -1.423541    6.108929
    139          1           0       -8.811739   -3.716650    5.087501
    140          1           0       -9.720505   -5.034772    5.908322
    141          1           0      -10.138786   -3.365287    6.204069
    142          1           0      -14.062479   -5.553224    0.210667
    143          1           0      -13.514278   -4.694608   -2.568797
    144          1           0      -12.222509   -6.715444    0.018210
    145          1           0      -11.247180   -5.365211   -0.280212
    146          1           0      -12.122355   -6.042930   -1.644968
    147          1           0      -16.398779   -4.223137   -1.664316
    148          1           0      -15.869007   -5.696730   -0.965796
    149          1           0      -15.074565   -6.127467   -3.548707
    150          1           0      -16.572946   -5.169205   -3.828614
    151          1           0      -16.538489   -6.733551   -2.903575
    152          1           0      -16.059778    0.916286   -5.172047
    153          1           0      -15.921523   -0.759894   -4.881526
    154          1           0      -14.443312    0.010309   -5.538389
    155          1           0      -15.017112    4.292131   -1.330753
    156          1           0      -11.639024    6.827458   -2.081476
    157          1           0      -12.821635    7.874374   -1.332193
    158          1           0      -12.925205    7.414439   -3.095264
 ---------------------------------------------------------------------

 SCF Done:  E(RPBE1PBE) =  -4067.37847134     A.U. after   16 cycles

 Excitation energies and oscillator strengths:

 Excited State   1:      Singlet-A      1.8116 eV  684.39 nm  f=0.0000  <S**2>=0.000
     312 -> 313        0.70710
 This state for optimization and/or second-order correction.
 Total Energy, E(TD-HF/TD-DFT) =  -4067.31189610
 Copying the excited state density for this state as the 1-particle RhoCI density.

 Excited State   2:      Singlet-A      1.8270 eV  678.62 nm  f=0.3610  <S**2>=0.000
     310 -> 315       -0.18279
     311 -> 313        0.69127
     311 <- 313       -0.10664

 Excited State   3:      Singlet-A      1.9171 eV  646.73 nm  f=0.3680  <S**2>=0.000
     309 -> 316        0.19058
     312 -> 314        0.68774

 Excited State   4:      Singlet-A      2.1057 eV  588.81 nm  f=0.0000  <S**2>=0.000
     311 -> 314        0.70709

 Excited State   5:      Singlet-A      2.1728 eV  570.62 nm  f=0.1298  <S**2>=0.000
     310 -> 313        0.65738
     311 -> 315        0.25562

 The electronic state is 1-A.
 Alpha  occ. eigenvalues --  -46.92037 -46.91938 -19.26369 -19.25855 -19.20035
 Alpha  occ. eigenvalues --  -19.19255 -19.19128 -19.19124 -19.19101 -19.18892
 Alpha  occ. eigenvalues --  -14.42025 -14.41659 -14.41444 -14.40655 -14.40377
 Alpha  occ. eigenvalues --  -14.39461 -14.39297 -14.39083 -10.36157 -10.35919
 Alpha  occ. eigenvalues --  -10.32499 -10.32373 -10.32178 -10.31680 -10.29520
 Alpha  occ. eigenvalues --  -10.29225 -10.29162 -10.29152 -10.29111 -10.28759
 Alpha  occ. eigenvalues --  -10.28550 -10.28492 -10.28475 -10.28441 -10.28296
 Alpha  occ. eigenvalues --  -10.28253 -10.28187 -10.28156 -10.28078 -10.28010
 Alpha  occ. eigenvalues --  -10.27856 -10.26943 -10.26917 -10.26874 -10.26677
 Alpha  occ. eigenvalues --  -10.26520 -10.26492 -10.26460 -10.26162 -10.26115
 Alpha  occ. eigenvalues --  -10.25986 -10.25949 -10.25869 -10.25860 -10.25811
 Alpha  occ. eigenvalues --  -10.25747 -10.25680 -10.25621 -10.25535 -10.25420
 Alpha  occ. eigenvalues --  -10.25061 -10.25052 -10.25031 -10.25007 -10.25003
 Alpha  occ. eigenvalues --  -10.24979 -10.24970 -10.24730 -10.24619 -10.24537
 Alpha  occ. eigenvalues --  -10.24085 -10.23981 -10.23908 -10.23748 -10.23711
 Alpha  occ. eigenvalues --  -10.23624 -10.23523 -10.23518 -10.23488 -10.23440
 Alpha  occ. eigenvalues --  -10.23367 -10.23281 -10.23221 -10.23156 -10.23056
 Alpha  occ. eigenvalues --  -10.22387  -3.14256  -3.14121  -1.87095  -1.86971
 Alpha  occ. eigenvalues --   -1.86630  -1.86501  -1.86487  -1.86357  -1.11802
 Alpha  occ. eigenvalues --   -1.10926  -1.04629  -1.04264  -1.03761  -1.03585
 Alpha  occ. eigenvalues --   -1.01964  -1.00778  -1.00471  -0.99352  -0.98726
 Alpha  occ. eigenvalues --   -0.97924  -0.97718  -0.97322  -0.96850  -0.96699
 Alpha  occ. eigenvalues --   -0.87591  -0.86017  -0.84461  -0.83622  -0.82964
 Alpha  occ. eigenvalues --   -0.82836  -0.82819  -0.82405  -0.81905  -0.81782
 Alpha  occ. eigenvalues --   -0.81432  -0.81312  -0.81014  -0.80151  -0.79021
 Alpha  occ. eigenvalues --   -0.78377  -0.78316  -0.77550  -0.77252  -0.76791
 Alpha  occ. eigenvalues --   -0.76144  -0.75630  -0.75561  -0.75314  -0.75076
 Alpha  occ. eigenvalues --   -0.74043  -0.73331  -0.72980  -0.72075  -0.71800
 Alpha  occ. eigenvalues --   -0.71541  -0.71184  -0.70912  -0.70401  -0.69658
 Alpha  occ. eigenvalues --   -0.69645  -0.67506  -0.67110  -0.66451  -0.65923
 Alpha  occ. eigenvalues --   -0.63963  -0.63693  -0.63558  -0.63223  -0.62537
 Alpha  occ. eigenvalues --   -0.62037  -0.61588  -0.60977  -0.60890  -0.60442
 Alpha  occ. eigenvalues --   -0.60094  -0.59892  -0.59696  -0.59160  -0.59066
 Alpha  occ. eigenvalues --   -0.58633  -0.57181  -0.57026  -0.55354  -0.54966
 Alpha  occ. eigenvalues --   -0.54542  -0.54103  -0.53933  -0.53444  -0.53392
 Alpha  occ. eigenvalues --   -0.53026  -0.52894  -0.52547  -0.52271  -0.51806
 Alpha  occ. eigenvalues --   -0.51102  -0.50764  -0.50293  -0.50135  -0.49948
 Alpha  occ. eigenvalues --   -0.49553  -0.49139  -0.49007  -0.48613  -0.48481
 Alpha  occ. eigenvalues --   -0.48466  -0.48038  -0.47982  -0.47791  -0.47509
 Alpha  occ. eigenvalues --   -0.47348  -0.46968  -0.46729  -0.46686  -0.46528
 Alpha  occ. eigenvalues --   -0.46349  -0.46270  -0.46115  -0.46064  -0.45835
 Alpha  occ. eigenvalues --   -0.45532  -0.45461  -0.45154  -0.45074  -0.44914
 Alpha  occ. eigenvalues --   -0.44773  -0.44633  -0.44609  -0.44434  -0.44279
 Alpha  occ. eigenvalues --   -0.43971  -0.43795  -0.43679  -0.43345  -0.43321
 Alpha  occ. eigenvalues --   -0.43068  -0.43032  -0.43024  -0.42869  -0.42712
 Alpha  occ. eigenvalues --   -0.42613  -0.42436  -0.42342  -0.42139  -0.42060
 Alpha  occ. eigenvalues --   -0.41944  -0.41768  -0.41747  -0.41647  -0.41320
 Alpha  occ. eigenvalues --   -0.41286  -0.41005  -0.41001  -0.40887  -0.40791
 Alpha  occ. eigenvalues --   -0.40432  -0.40404  -0.39993  -0.39917  -0.39815
 Alpha  occ. eigenvalues --   -0.39712  -0.39591  -0.39370  -0.39312  -0.38968
 Alpha  occ. eigenvalues --   -0.38814  -0.38805  -0.38600  -0.38549  -0.38529
 Alpha  occ. eigenvalues --   -0.38176  -0.38167  -0.38070  -0.37762  -0.37525
 Alpha  occ. eigenvalues --   -0.37386  -0.37247  -0.37165  -0.36961  -0.36834
 Alpha  occ. eigenvalues --   -0.36629  -0.36505  -0.36469  -0.36413  -0.36220
 Alpha  occ. eigenvalues --   -0.36119  -0.36023  -0.35780  -0.35750  -0.35657
 Alpha  occ. eigenvalues --   -0.35435  -0.35200  -0.35082  -0.34936  -0.34528
 Alpha  occ. eigenvalues --   -0.33777  -0.33641  -0.33318  -0.32954  -0.32579
 Alpha  occ. eigenvalues --   -0.32326  -0.32164  -0.31522  -0.31105  -0.31028
 Alpha  occ. eigenvalues --   -0.30711  -0.30630  -0.29824  -0.29439  -0.29112
 Alpha  occ. eigenvalues --   -0.28655  -0.28619  -0.28224  -0.27209  -0.27206
 Alpha  occ. eigenvalues --   -0.26237  -0.26066  -0.25916  -0.25783  -0.25763
 Alpha  occ. eigenvalues --   -0.25630  -0.25440  -0.25083  -0.21048  -0.20915
 Alpha  occ. eigenvalues --   -0.18992  -0.18645
 Alpha virt. eigenvalues --   -0.11469  -0.10734  -0.05386  -0.05278  -0.04140
 Alpha virt. eigenvalues --   -0.03546  -0.02445  -0.01956  -0.00168  -0.00073
 Alpha virt. eigenvalues --    0.00343   0.00629   0.00935   0.01217   0.01408

 Mulliken charges:
               1
     1  Mg  12.000000
     2  C    6.000000
     3  C    6.000000
     4  C    6.000000
     5  C    6.000000
     6  N    7.000000
     7  C    6.000000
     8  C    6.000000
     9  C    6.000000
    10  C    6.000000
    11  C    6.000000
    12  C    6.000000
    13  C    6.000000
    14  H    1.000000
    15  N    7.000000
    16  C    6.000000
    17  C    6.000000
    18  C    6.000000
    19  C    6.000000
    20  C    6.000000
    21  C    6.000000
    22  O    8.000000
    23  C    6.000000
    24  N    7.000000
    25  C    6.000000
    26  C    6.000000
    27  C    6.000000
    28  C    6.000000
    29  C    6.000000
    30  C    6.000000
    31  C    6.000000
    32  N    7.000000
    33  C    6.000000
    34  C    6.000000
    35  C    6.000000
    36  C    6.000000
    37  C    6.000000
    38  C    6.000000
    39  O    8.000000
    40  C    6.000000
    41  C    6.000000
    42  O    8.000000
    43  O    8.000000
    44  C    6.000000
    45  H    1.000000
    46  H    1.000000
    47  H    1.000000
    48  H    1.000000
    49  H    1.000000
    50  H    1.000000
    51  H    1.000000
    52  H    1.000000
    53  H    1.000000
    54  H    1.000000
    55  H    1.000000
    56  H    1.000000
    57  H    1.000000
    58  H    1.000000
    59  H    1.000000
    60  H    1.000000
    61  H    1.000000
    62  H    1.000000
    63  H    1.000000
    64  H    1.000000
    65  H    1.000000
    66  H    1.000000
    67  H    1.000000
    68  H    1.000000
    69  H    1.000000
    70  H    1.000000
    71  H    1.000000
    72  H    1.000000
    73  H    1.000000
    74  H    1.000000
    75  H    1.000000
    76  H    1.000000
    77  H    1.000000
    78  H    1.000000
    79  H    1.000000
    80  Mg  12.000000
    81  C    6.000000
    82  C    6.000000
    83  C    6.000000
    84  C    6.000000
    85  N    7.000000
    86  C    6.000000
    87  C    6.000000
    88  C    6.000000
    89  C    6.000000
    90  C    6.000000
    91  C    6.000000
    92  C    6.000000
    93  H    1.000000
    94  N    7.000000
    95  C    6.000000
    96  C    6.000000
    97  C    6.000000
    98  C    6.000000
    99  C    6.000000
   100  C    6.000000
   101  O    8.000000
   102  C    6.000000
   103  N    7.000000
   104  C    6.000000
   105  C    6.000000
   106  C    6.000000
   107  C    6.000000
   108  C    6.000000
   109  C    6.000000
   110  C    6.000000
   111  N    7.000000
   112  C    6.000000
   113  C    6.000000
   114  C    6.000000
   115  C    6.000000
   116  C    6.000000
   117  C    6.000000
   118  O    8.000000
   119  C    6.000000
   120  C    6.000000
   121  O    8.000000
   122  O    8.000000
   123  C    6.000000
   124  H    1.000000
   125  H    1.000000
   126  H    1.000000
   127  H    1.000000
   128  H    1.000000
   129  H    1.000000
   130  H    1.000000
   131  H    1.000000
   132  H    1.000000
   133  H    1.000000
   134  H    1.000000
   135  H    1.000000
   136  H    1.000000
   137  H    1.000000
   138  H    1.000000
   139  H    1.000000
   140  H    1.000000
   141  H    1.000000
   142  H    1.000000
   143  H    1.000000
   144  H    1.000000
   145  H    1.000000
   146  H    1.000000
   147  H    1.000000
   148  H    1.000000
   149  H    1.000000
   150  H    1.000000
   151  H    1.000000
   152  H    1.000000
   153  H    1.000000
   154  H    1.000000
   155  H    1.000000
   156  H    1.000000
   157  H    1.000000
   158  H    1.000000
 Sum of Mulliken charges = 624.00000

 Dipole moment (field-independent basis, Debye):
    X=             -0.0000    Y=              0.0000    Z=             -0.0000  Tot=              0.0000
 Quadrupole moment (field-independent basis, Debye-Ang):
   XX=              0.0000   YY=             -0.0000   ZZ=             -0.0000
   XY=             -0.0000   XZ=              0.0000   YZ=              0.0000

 Normal termination of Gaussian 16 at Fri Oct 15 05:57:05 2021.
