 Gaussian 16, Revision A.03,
 Gaussian 16:  ES64L-G16RevA.03 25-Dec-2016

 ---------------------------------------------------------
 #p PBE1PBE/Def2SVP td=(nstates=5, root=1) density=current
 ---------------------------------------------------------

 --------------------------------
 TDDFT excited states in gaussian
 --------------------------------
 Symbolic Z-matrix:
 Charge =  0 Multiplicity = 1

                         Standard orientation:
 ---------------------------------------------------------------------
 Center     Atomic      Atomic             Coordinates (Angstroms)
 Number     Number       Type             X           Y           Z
 ---------------------------------------------------------------------
      1         12           0       -0.810149    0.229305    0.233322
      2          6           0        2.736179    0.095914    0.374675
      3          6           0       -0.697267   -3.305936    0.196711
      4          6           0       -4.034848    0.196991   -0.261258
      5          6           0       -0.616819    3.693352   -0.010796
      6          7           0        0.867800   -1.451927    0.271994
      7          6           0        2.205400   -1.185983    0.433835
      8          6           0        3.044072   -2.437039    0.633372
      9          6           0        1.905229   -3.527651    0.438830
     10          6           0        0.595789   -2.730948    0.332500
     11          6           0        2.246245   -4.476033   -0.706811
     12          6           0        3.677537   -2.452345    2.041922
     13          6           0        5.122041   -3.059714    2.212311
     14          1           0        5.642791   -4.019395    1.116572
     15          7           0       -2.205483   -1.336481    0.074777
     16          6           0       -1.939095   -2.704125    0.003411
     17          6           0       -3.222129   -3.412225   -0.129758
     18          6           0       -4.221159   -2.385360   -0.164240
     19          6           0       -3.471837   -1.117819   -0.070030
     20          6           0       -3.325258   -4.835557   -0.278006
     21          6           0       -5.733650   -2.535721   -0.292759
     22          8           0       -6.467972   -1.541544   -0.407362
     23          6           0       -6.380630   -3.852023   -0.108145
     24          7           0       -2.129118    1.731442   -0.194738
     25          6           0       -3.437748    1.471310   -0.255663
     26          6           0       -4.255959    2.770509   -0.549761
     27          6           0       -3.188834    3.876627   -0.272848
     28          6           0       -1.906858    3.111515   -0.168698
     29          6           0       -4.933132    2.801875   -1.967122
     30          6           0       -3.595954    4.503881    1.114963
     31          6           0       -2.962330    3.964488    2.443475
     32          7           0        0.689957    1.647058    0.289617
     33          6           0        0.600252    3.044808    0.159415
     34          6           0        1.976140    3.600932    0.164967
     35          6           0        2.800493    2.482048    0.188659
     36          6           0        2.050427    1.330005    0.295402
     37          6           0        2.203530    4.999461   -0.155708
     38          6           0        4.205128    2.105081    0.051026
     39          8           0        5.168828    2.841580   -0.126601
     40          6           0        4.235440    0.507303    0.140524
     41          6           0        4.844402   -0.086976   -1.074270
     42          8           0        4.241432   -0.484302   -2.067085
     43          8           0        6.240723   -0.145004   -0.905144
     44          6           0        7.109969   -0.626513   -1.954850
     45          1           0       -0.773901   -4.371234    0.425870
     46          1           0       -5.115399    0.258827   -0.408889
     47          1           0       -0.689170    4.781991   -0.049535
     48          1           0        3.831604   -2.538612   -0.113787
     49          1           0        1.960065   -4.172860    1.315216
     50          1           0        2.253661   -5.532785   -0.442064
     51          1           0        3.188939   -4.289133   -1.221161
     52          1           0        1.427080   -4.398513   -1.422931
     53          1           0        3.031634   -2.969154    2.751622
     54          1           0        3.652539   -1.388082    2.278620
     55          1           0        5.166285   -3.685340    3.103165
     56          1           0        5.749020   -2.217110    2.503848
     57          1           0       -4.030998   -5.169782    0.482747
     58          1           0       -2.339366   -5.291474   -0.363598
     59          1           0       -3.704749   -4.892780   -1.298696
     60          1           0       -6.218915   -4.537588   -0.940529
     61          1           0       -7.460145   -3.717339   -0.042999
     62          1           0       -5.893972   -4.342240    0.734543
     63          1           0       -5.019947    2.644554    0.217450
     64          1           0       -3.219174    4.667465   -1.022773
     65          1           0       -5.971751    2.479693   -1.891323
     66          1           0       -4.301526    2.208563   -2.627509
     67          1           0       -4.892315    3.841311   -2.292282
     68          1           0       -4.678967    4.623573    1.150495
     69          1           0       -3.087250    5.468260    1.101577
     70          1           0       -3.815341    3.902581    3.118606
     71          1           0       -2.235934    4.651348    2.879749
     72          1           0       -2.520949    2.969566    2.396118
     73          1           0        1.644105    5.242616   -1.058146
     74          1           0        3.266499    5.094765   -0.379636
     75          1           0        2.065595    5.629839    0.722337
     76          1           0        4.884611    0.319261    0.996257
     77          1           0        7.538160    0.170777   -2.561883
     78          1           0        6.677195   -1.486339   -2.466450
     79          1           0        7.876998   -1.128159   -1.364143
 ---------------------------------------------------------------------

 SCF Done:  E(RPBE1PBE) =  -2033.68768820     A.U. after   15 cycles

 Excitation energies and oscillator strengths:

 Excited State   1:      Singlet-A      1.8853 eV  657.63 nm  f=0.3629  <S**2>=0.000
     155 ->158         0.18506
     156 ->157         0.68869
     156 <-157        -0.10057
 This state for optimization and/or second-order correction.
 Total Energy, E(TD-HF/TD-DFT) =  -2033.61840364
 Copying the excited state density for this state as the 1-particle RhoCI density.

 Excited State   2:      Singlet-A      2.2635 eV  547.75 nm  f=0.0752  <S**2>=0.000
     155 ->157         0.63957
     156 ->158        -0.29072

 Excited State   3:      Singlet-A      3.1552 eV  392.95 nm  f=0.0011  <S**2>=0.000
     152 ->157         0.14927
     154 ->157         0.67266

 Excited State   4:      Singlet-A      3.1836 eV  389.45 nm  f=0.0010  <S**2>=0.000
     152 ->157         0.64731
     152 ->159        -0.16254
     152 ->160        -0.13611
     154 ->157        -0.15203

 Excited State   5:      Singlet-A      3.2283 eV  384.06 nm  f=0.0022  <S**2>=0.000
     151 ->157         0.65108
     151 ->159         0.19851
     153 ->157        -0.12265

 The electronic state is 1-A.
 Alpha  occ. eigenvalues --  -46.91913 -19.24652 -19.20080 -19.19655 -19.18813
 Alpha  occ. eigenvalues --  -14.41440 -14.40981 -14.39204 -14.38717 -10.36454
 Alpha  occ. eigenvalues --  -10.32636 -10.32255 -10.28687 -10.28549 -10.28401
 Alpha  occ. eigenvalues --  -10.28109 -10.28027 -10.27863 -10.27772 -10.27137
 Alpha  occ. eigenvalues --  -10.26750 -10.26538 -10.26353 -10.26170 -10.25802
 Alpha  occ. eigenvalues --  -10.25477 -10.25124 -10.25109 -10.25021 -10.25013
 Alpha  occ. eigenvalues --  -10.24978 -10.24773 -10.24664 -10.24435 -10.24255
 Alpha  occ. eigenvalues --  -10.24128 -10.23650 -10.23253 -10.23136 -10.22773
 Alpha  occ. eigenvalues --  -10.22730 -10.22697 -10.22568  -3.14037  -1.86886
 Alpha  occ. eigenvalues --   -1.86425  -1.86247  -1.09389  -1.04506  -1.03769
 Alpha  occ. eigenvalues --   -1.02055  -0.99281  -0.98596  -0.97767  -0.96186
 Alpha  occ. eigenvalues --   -0.86378  -0.83957  -0.82917  -0.82734  -0.81593
 Alpha  occ. eigenvalues --   -0.81119  -0.80635  -0.78336  -0.77618  -0.76682
 Alpha  occ. eigenvalues --   -0.76255  -0.75192  -0.74817  -0.73089  -0.71468
 Alpha  occ. eigenvalues --   -0.71201  -0.70090  -0.69133  -0.66633  -0.65764
 Alpha  occ. eigenvalues --   -0.63654  -0.63206  -0.62358  -0.61042  -0.59347
 Alpha  occ. eigenvalues --   -0.59194  -0.59002  -0.58772  -0.56121  -0.54766
 Alpha  occ. eigenvalues --   -0.53929  -0.53578  -0.52579  -0.52456  -0.51755
 Alpha  occ. eigenvalues --   -0.50824  -0.50072  -0.49790  -0.48811  -0.48428
 Alpha  occ. eigenvalues --   -0.48191  -0.47809  -0.47709  -0.47355  -0.46898
 Alpha  occ. eigenvalues --   -0.46327  -0.46165  -0.45975  -0.45331  -0.45150
 Alpha  occ. eigenvalues --   -0.44463  -0.44313  -0.44085  -0.43663  -0.43457
 Alpha  occ. eigenvalues --   -0.43115  -0.42979  -0.42687  -0.42230  -0.42062
 Alpha  occ. eigenvalues --   -0.41636  -0.41277  -0.40908  -0.40751  -0.40200
 Alpha  occ. eigenvalues --   -0.39728  -0.39400  -0.39064  -0.38971  -0.38807
 Alpha  occ. eigenvalues --   -0.38758  -0.38480  -0.38229  -0.38157  -0.37753
 Alpha  occ. eigenvalues --   -0.37510  -0.36809  -0.36656  -0.36054  -0.35914
 Alpha  occ. eigenvalues --   -0.35415  -0.35208  -0.34814  -0.34221  -0.33452
 Alpha  occ. eigenvalues --   -0.32712  -0.32420  -0.32147  -0.31708  -0.31038
 Alpha  occ. eigenvalues --   -0.30735  -0.29287  -0.29072  -0.28690  -0.26608
 Alpha  occ. eigenvalues --   -0.25853  -0.25775  -0.25673  -0.25113  -0.20772
 Alpha  occ. eigenvalues --   -0.18444
 Alpha virt. eigenvalues --   -0.10681  -0.05167  -0.03983  -0.02188   0.00256
 Alpha virt. eigenvalues --    0.00536   0.01081   0.01617   0.02900   0.04280
 Alpha virt. eigenvalues --    0.04844   0.05367   0.05821   0.06087   0.07137

 Mulliken charges:
               1
     1  Mg   0.960526
     2  C   -0.002606
     3  C   -0.108829
     4  C   -0.054501
     5  C   -0.076888
     6  N   -0.321107
     7  C   -0.007076
     8  C   -0.109663
     9  C   -0.107581
    10  C    0.091947
    11  C    0.007658
    12  C   -0.015961
    13  C   -0.118951
    14  H    0.050907
    15  N   -0.455030
    16  C    0.173989
    17  C   -0.211071
    18  C   -0.089794
    19  C    0.156445
    20  C    0.075802
    21  C    0.058226
    22  O   -0.265314
    23  C   -0.013732
    24  N   -0.449934
    25  C    0.060751
    26  C   -0.132220
    27  C   -0.086463
    28  C    0.077338
    29  C    0.031475
    30  C   -0.069722
    31  C   -0.061427
    32  N   -0.517471
    33  C    0.177409
    34  C   -0.192321
    35  C   -0.031763
    36  C    0.194116
    37  C    0.066958
    38  C    0.135018
    39  O   -0.211190
    40  C   -0.136242
    41  C    0.316458
    42  O   -0.253051
    43  O   -0.394236
    44  C    0.134850
    45  H    0.015498
    46  H    0.021785
    47  H    0.000854
    48  H    0.068221
    49  H    0.043010
    50  H    0.031712
    51  H    0.050150
    52  H    0.037028
    53  H    0.039421
    54  H    0.049293
    55  H    0.050681
    56  H    0.058738
    57  H    0.064886
    58  H    0.038051
    59  H    0.064335
    60  H    0.052606
    61  H    0.060736
    62  H    0.055082
    63  H    0.054779
    64  H    0.046725
    65  H    0.063229
    66  H    0.057835
    67  H    0.036483
    68  H    0.054847
    69  H    0.039017
    70  H    0.041030
    71  H    0.049598
    72  H    0.060647
    73  H    0.063383
    74  H    0.051384
    75  H    0.052010
    76  H    0.081742
    77  H    0.074866
    78  H    0.050598
    79  H    0.044012
 Sum of Mulliken charges =  -0.00000

 Dipole moment (field-independent basis, Debye):
    X=             -1.0218    Y=             -2.7330    Z=              1.9894  Tot=              3.5314
 Quadrupole moment (field-independent basis, Debye-Ang):
   XX=           -270.3543   YY=           -221.7087   ZZ=           -255.2125
   XY=            -21.9969   XZ=              0.9041   YZ=             -2.2133

 Normal termination of Gaussian 16 at Wed Oct 13 13:24:27 2021.
