 Gaussian 16, Revision A.03,
 Gaussian 16:  ES64L-G16RevA.03 25-Dec-2016

 --------------------------------------------------------
 #p PBE1PBE/Def2SVP td=(nstates=5) density=(transition=1)
 --------------------------------------------------------

 --------------------------------
 TDDFT excited states in gaussian
 --------------------------------
 Symbolic Z-matrix:
 Charge =  0 Multiplicity = 1

                         Standard orientation:
 ---------------------------------------------------------------------
 Center     Atomic      Atomic             Coordinates (Angstroms)
 Number     Number       Type             X           Y           Z
 ---------------------------------------------------------------------
      1         12           0       18.643546   -0.223748   -0.048084
      2          6           0       15.233358   -0.699705   -0.028816
      3          6           0       18.277603    1.783246   -2.787127
      4          6           0       21.547749    1.137743    0.742272
      5          6           0       18.829907   -2.278742    2.792647
      6          7           0       16.846911    0.795790   -0.941228
      7          6           0       15.597126    0.264727   -0.936595
      8          6           0       14.699276    0.884623   -1.966163
      9          6           0       15.763130    1.297979   -3.034056
     10          6           0       17.059547    1.221379   -2.241259
     11          6           0       15.713686    0.418318   -4.316149
     12          6           0       13.909418    2.166138   -1.393637
     13          6           0       12.427816    2.368157   -1.959798
     14          1           0       12.375388    3.705217   -2.656619
     15          7           0       19.835157    1.120316   -1.031346
     16          6           0       19.530177    1.919170   -2.077470
     17          6           0       20.647872    2.798149   -2.397381
     18          6           0       21.619293    2.594941   -1.395744
     19          6           0       21.004209    1.578136   -0.497047
     20          6           0       20.584714    3.769192   -3.601274
     21          6           0       22.839614    3.461405   -1.254521
     22          8           0       23.055217    4.319430   -2.070335
     23          6           0       23.845409    3.374907   -0.090696
     24          7           0       20.111115   -0.596789    1.485490
     25          6           0       21.162694    0.087318    1.585458
     26          6           0       21.938686   -0.197610    2.817918
     27          6           0       21.078423   -1.328646    3.506870
     28          6           0       19.949329   -1.424254    2.575338
     29          6           0       23.433182   -0.538356    2.496682
     30          6           0       20.623841   -0.921874    4.984559
     31          6           0       20.166512   -2.076620    5.945149
     32          7           0       17.371752   -1.352830    1.121143
     33          6           0       17.615270   -2.214870    2.174944
     34          6           0       16.422124   -2.933978    2.526011
     35          6           0       15.435634   -2.395364    1.627642
     36          6           0       16.036493   -1.390349    0.894486
     37          6           0       16.260679   -3.987561    3.573984
     38          6           0       14.075156   -2.508711    1.229004
     39          8           0       13.111806   -3.197957    1.588098
     40          6           0       13.837603   -1.287895    0.279690
     41          6           0       13.057428   -1.799380   -0.885167
     42          8           0       11.822607   -1.763018   -0.980590
     43          8           0       13.905435   -2.362415   -1.798505
     44          6           0       13.104591   -2.909612   -2.929474
     45          1           0       18.297028    2.326566   -3.734563
     46          1           0       22.475410    1.647266    1.009052
     47          1           0       18.863458   -2.806483    3.748856
     48          1           0       14.094898    0.051055   -2.321687
     49          1           0       15.542778    2.307334   -3.381937
     50          1           0       15.432706    1.038356   -5.166955
     51          1           0       14.900108   -0.295422   -4.182591
     52          1           0       16.675049   -0.087001   -4.403073
     53          1           0       14.435502    3.119305   -1.444446
     54          1           0       13.791937    2.085001   -0.313507
     55          1           0       11.810572    2.438389   -1.064030
     56          1           0       11.963959    1.582378   -2.556137
     57          1           0       20.704099    4.822680   -3.348541
     58          1           0       19.688666    3.660835   -4.213393
     59          1           0       21.376111    3.468531   -4.287047
     60          1           0       24.380313    2.426470   -0.053599
     61          1           0       23.405556    3.581823    0.885239
     62          1           0       24.484146    4.249392   -0.218448
     63          1           0       21.852981    0.729435    3.384634
     64          1           0       21.477880   -2.342236    3.531240
     65          1           0       24.043272    0.192783    3.026633
     66          1           0       23.634862   -0.516057    1.425583
     67          1           0       23.796941   -1.446268    2.977551
     68          1           0       19.800095   -0.209216    4.938634
     69          1           0       21.482040   -0.407188    5.414156
     70          1           0       20.685104   -2.266246    6.884539
     71          1           0       20.249188   -3.041945    5.447609
     72          1           0       19.119966   -1.944751    6.219884
     73          1           0       17.173884   -4.360876    4.037029
     74          1           0       15.744430   -4.742108    2.981849
     75          1           0       15.540049   -3.491925    4.224602
     76          1           0       13.318043   -0.450594    0.746838
     77          1           0       12.542153   -3.777350   -2.586282
     78          1           0       13.723367   -3.366317   -3.701928
     79          1           0       12.493805   -2.096889   -3.323120
     80         12           0      -18.290596    0.336723    0.431042
     81          6           0      -15.460462   -1.124136   -1.075323
     82          6           0      -19.948656   -2.603708    0.063069
     83          6           0      -21.014942    1.823345    1.775600
     84          6           0      -16.667564    3.405630    0.352854
     85          7           0      -17.813265   -1.576962   -0.482354
     86          6           0      -16.557321   -1.990788   -0.934591
     87          6           0      -16.590166   -3.463195   -1.214791
     88          6           0      -18.107515   -3.751017   -1.307434
     89          6           0      -18.675181   -2.548371   -0.510324
     90          6           0      -18.749383   -3.787160   -2.730279
     91          6           0      -15.852436   -4.379176   -0.167085
     92          6           0      -14.950301   -5.407893   -0.770990
     93          1           0      -15.041357   -6.830357   -0.187644
     94          7           0      -20.126787   -0.334047    0.936238
     95          6           0      -20.624922   -1.639577    0.791321
     96          6           0      -21.923281   -1.723559    1.330918
     97          6           0      -22.290759   -0.402308    1.870900
     98          6           0      -21.148007    0.407795    1.558815
     99          6           0      -22.837282   -2.910256    1.237767
    100          6           0      -23.619993    0.153832    2.543755
    101          8           0      -23.685974    1.294347    2.936909
    102          6           0      -24.808199   -0.760877    2.804610
    103          7           0      -18.805302    2.360712    0.882712
    104          6           0      -20.009541    2.695510    1.413955
    105          6           0      -20.095145    4.281395    1.633052
    106          6           0      -18.583340    4.745727    1.457110
    107          6           0      -17.953489    3.420992    0.848861
    108          6           0      -21.052222    5.057007    0.686191
    109          6           0      -17.885142    5.189838    2.791626
    110          6           0      -17.283495    6.525985    2.663471
    111          7           0      -16.470899    1.037559   -0.261862
    112          6           0      -15.900017    2.301935   -0.124650
    113          6           0      -14.558556    2.290601   -0.641380
    114          6           0      -14.360031    0.986129   -1.045501
    115          6           0      -15.484945    0.268549   -0.786239
    116          6           0      -13.633474    3.534363   -0.588126
    117          6           0      -13.416029    0.075460   -1.666844
    118          8           0      -12.342970    0.338086   -2.163681
    119          6           0      -14.122937   -1.368244   -1.733640
    120          6           0      -14.204960   -1.795659   -3.142345
    121          8           0      -14.786760   -1.147577   -4.051520
    122          8           0      -13.518212   -2.966600   -3.276858
    123          6           0      -13.185799   -3.323837   -4.681458
    124          1           0      -20.430579   -3.564983   -0.126875
    125          1           0      -21.852519    2.384257    2.195079
    126          1           0      -16.199231    4.388099    0.269992
    127          1           0      -16.221886   -3.734874   -2.204805
    128          1           0      -18.398347   -4.701401   -0.859566
    129          1           0      -18.087155   -4.176887   -3.504475
    130          1           0      -19.064580   -2.769098   -2.960434
    131          1           0      -19.698418   -4.316929   -2.808553
    132          1           0      -16.650007   -4.820539    0.430257
    133          1           0      -15.290472   -3.788267    0.556777
    134          1           0      -13.975204   -4.948023   -0.609578
    135          1           0      -15.207191   -5.547451   -1.820971
    136          1           0      -22.983694   -3.467831    2.163109
    137          1           0      -22.391524   -3.651996    0.576254
    138          1           0      -23.847368   -2.757257    0.858691
    139          1           0      -25.508003   -0.169345    3.393647
    140          1           0      -24.495950   -1.713669    3.233148
    141          1           0      -25.185976   -1.151137    1.859126
    142          1           0      -20.521746    4.497458    2.612692
    143          1           0      -18.556716    5.550065    0.720460
    144          1           0      -21.532058    4.476119   -0.102166
    145          1           0      -20.563570    5.880739    0.165222
    146          1           0      -21.831334    5.487277    1.316002
    147          1           0      -17.065066    4.501342    2.998846
    148          1           0      -18.549601    5.251456    3.653239
    149          1           0      -17.957660    7.253872    3.115661
    150          1           0      -16.963780    6.872260    1.681266
    151          1           0      -16.321416    6.538222    3.175796
    152          1           0      -14.041640    4.247213    0.128752
    153          1           0      -13.427157    3.923075   -1.586391
    154          1           0      -12.708802    3.156651   -0.153350
    155          1           0      -13.575894   -2.110874   -1.152271
    156          1           0      -12.525845   -4.190869   -4.704742
    157          1           0      -12.568572   -2.500045   -5.040584
    158          1           0      -14.133172   -3.424541   -5.211766
 ---------------------------------------------------------------------

 SCF Done:  E(RPBE1PBE) =  -4067.38582239     A.U. after   17 cycles

 Excitation energies and oscillator strengths:

 Excited State   1:      Singlet-A      1.7986 eV  689.32 nm  f=0.3508  <S**2>=0.000
     309 -> 315        0.16136
     312 -> 314        0.69481
     312 <- 314       -0.10914
 This state for optimization and/or second-order correction.
 Total Energy, E(TD-HF/TD-DFT) =  -4067.31972360
 Copying the excited state density for this state as the 1-particle RhoCI density.

 Excited State   2:      Singlet-A      1.8994 eV  652.74 nm  f=0.3771  <S**2>=0.000
     310 -> 316       -0.17465
     311 -> 313        0.69185
     311 <- 313       -0.10896

 Excited State   3:      Singlet-A      1.9071 eV  650.12 nm  f=0.0000  <S**2>=0.000
     312 -> 313        0.70710

 Excited State   4:      Singlet-A      2.0157 eV  615.11 nm  f=0.0000  <S**2>=0.000
     311 -> 314        0.70710

 Excited State   5:      Singlet-A      2.1989 eV  563.86 nm  f=0.1039  <S**2>=0.000
     309 -> 314        0.65382
     312 -> 315       -0.25100

 The electronic state is 1-A.
 Alpha  occ. eigenvalues --  -46.92556 -46.90561 -19.26264 -19.26253 -19.19936
 Alpha  occ. eigenvalues --  -19.19722 -19.19407 -19.19388 -19.19312 -19.18434
 Alpha  occ. eigenvalues --  -14.41480 -14.41443 -14.41436 -14.41014 -14.39712
 Alpha  occ. eigenvalues --  -14.38903 -14.38417 -14.38267 -10.36393 -10.35799
 Alpha  occ. eigenvalues --  -10.33341 -10.32584 -10.32240 -10.31453 -10.29736
 Alpha  occ. eigenvalues --  -10.29326 -10.28983 -10.28979 -10.28825 -10.28280
 Alpha  occ. eigenvalues --  -10.28251 -10.28221 -10.28161 -10.28136 -10.28116
 Alpha  occ. eigenvalues --  -10.28082 -10.27851 -10.27367 -10.26965 -10.26597
 Alpha  occ. eigenvalues --  -10.26488 -10.26371 -10.26316 -10.26130 -10.26117
 Alpha  occ. eigenvalues --  -10.26083 -10.26070 -10.25896 -10.25793 -10.25718
 Alpha  occ. eigenvalues --  -10.25673 -10.25625 -10.25527 -10.25473 -10.25470
 Alpha  occ. eigenvalues --  -10.25427 -10.25395 -10.25386 -10.25329 -10.25309
 Alpha  occ. eigenvalues --  -10.25273 -10.25194 -10.25101 -10.25050 -10.24594
 Alpha  occ. eigenvalues --  -10.24592 -10.24473 -10.24400 -10.24397 -10.24320
 Alpha  occ. eigenvalues --  -10.24036 -10.24035 -10.23888 -10.23886 -10.23811
 Alpha  occ. eigenvalues --  -10.23738 -10.23736 -10.23631 -10.23586 -10.23470
 Alpha  occ. eigenvalues --  -10.23400 -10.23308 -10.22763 -10.22524 -10.22139
 Alpha  occ. eigenvalues --  -10.22051  -3.14708  -3.12863  -1.87535  -1.87096
 Alpha  occ. eigenvalues --   -1.86923  -1.85710  -1.85225  -1.85113  -1.10782
 Alpha  occ. eigenvalues --   -1.10472  -1.06388  -1.06303  -1.05123  -1.03089
 Alpha  occ. eigenvalues --   -1.01651  -1.01339  -1.01074  -0.99466  -0.99043
 Alpha  occ. eigenvalues --   -0.98507  -0.98063  -0.97666  -0.97153  -0.95933
 Alpha  occ. eigenvalues --   -0.87041  -0.86938  -0.84072  -0.83403  -0.82909
 Alpha  occ. eigenvalues --   -0.82888  -0.82494  -0.82252  -0.81611  -0.81322
 Alpha  occ. eigenvalues --   -0.81172  -0.80772  -0.80604  -0.80172  -0.78501
 Alpha  occ. eigenvalues --   -0.78484  -0.78171  -0.78071  -0.77134  -0.76510
 Alpha  occ. eigenvalues --   -0.76175  -0.75841  -0.75453  -0.75146  -0.74955
 Alpha  occ. eigenvalues --   -0.74673  -0.72799  -0.72431  -0.71934  -0.71589
 Alpha  occ. eigenvalues --   -0.71072  -0.71052  -0.70323  -0.69997  -0.69759
 Alpha  occ. eigenvalues --   -0.69161  -0.67308  -0.67189  -0.66597  -0.65345
 Alpha  occ. eigenvalues --   -0.64877  -0.63617  -0.63000  -0.62557  -0.62437
 Alpha  occ. eigenvalues --   -0.62004  -0.61912  -0.61321  -0.60848  -0.59896
 Alpha  occ. eigenvalues --   -0.59763  -0.59554  -0.59410  -0.59037  -0.59026
 Alpha  occ. eigenvalues --   -0.58548  -0.57042  -0.56488  -0.54906  -0.54783
 Alpha  occ. eigenvalues --   -0.54558  -0.54192  -0.53798  -0.53708  -0.53362
 Alpha  occ. eigenvalues --   -0.52673  -0.52555  -0.52359  -0.52045  -0.51413
 Alpha  occ. eigenvalues --   -0.51257  -0.50752  -0.50637  -0.50273  -0.50220
 Alpha  occ. eigenvalues --   -0.49984  -0.49512  -0.49429  -0.48799  -0.48363
 Alpha  occ. eigenvalues --   -0.48247  -0.48006  -0.47931  -0.47516  -0.47252
 Alpha  occ. eigenvalues --   -0.47125  -0.47123  -0.46775  -0.46434  -0.46395
 Alpha  occ. eigenvalues --   -0.46389  -0.46264  -0.45901  -0.45812  -0.45761
 Alpha  occ. eigenvalues --   -0.45716  -0.45412  -0.45343  -0.44954  -0.44777
 Alpha  occ. eigenvalues --   -0.44735  -0.44619  -0.44480  -0.44304  -0.44111
 Alpha  occ. eigenvalues --   -0.43991  -0.43951  -0.43853  -0.43618  -0.43512
 Alpha  occ. eigenvalues --   -0.43304  -0.43289  -0.42945  -0.42607  -0.42401
 Alpha  occ. eigenvalues --   -0.42357  -0.42342  -0.41994  -0.41891  -0.41558
 Alpha  occ. eigenvalues --   -0.41407  -0.41379  -0.41280  -0.41117  -0.41018
 Alpha  occ. eigenvalues --   -0.40997  -0.40750  -0.40634  -0.40520  -0.40506
 Alpha  occ. eigenvalues --   -0.40454  -0.40049  -0.40036  -0.39794  -0.39757
 Alpha  occ. eigenvalues --   -0.39449  -0.39446  -0.39398  -0.39189  -0.39170
 Alpha  occ. eigenvalues --   -0.39096  -0.39088  -0.38891  -0.38682  -0.38294
 Alpha  occ. eigenvalues --   -0.38216  -0.38118  -0.38010  -0.37804  -0.37586
 Alpha  occ. eigenvalues --   -0.37538  -0.37436  -0.37405  -0.37015  -0.36980
 Alpha  occ. eigenvalues --   -0.36882  -0.36775  -0.36712  -0.36670  -0.36219
 Alpha  occ. eigenvalues --   -0.36095  -0.36059  -0.35804  -0.35727  -0.35293
 Alpha  occ. eigenvalues --   -0.34948  -0.34842  -0.34581  -0.34031  -0.33725
 Alpha  occ. eigenvalues --   -0.33595  -0.33296  -0.33218  -0.32789  -0.32783
 Alpha  occ. eigenvalues --   -0.32645  -0.31888  -0.31777  -0.31684  -0.31472
 Alpha  occ. eigenvalues --   -0.31342  -0.31005  -0.30173  -0.29433  -0.29074
 Alpha  occ. eigenvalues --   -0.29060  -0.28527  -0.28353  -0.26885  -0.26819
 Alpha  occ. eigenvalues --   -0.26426  -0.26263  -0.26080  -0.25835  -0.25576
 Alpha  occ. eigenvalues --   -0.25316  -0.25090  -0.24721  -0.21014  -0.20870
 Alpha  occ. eigenvalues --   -0.19065  -0.18727
 Alpha virt. eigenvalues --   -0.11358  -0.11296  -0.05309  -0.04783  -0.03967
 Alpha virt. eigenvalues --   -0.03494  -0.02249  -0.01631  -0.00781  -0.00126
 Alpha virt. eigenvalues --    0.00269   0.00729   0.01224   0.01505   0.02020

 Mulliken charges:
               1
     1  Mg  12.000652
     2  C    6.012823
     3  C    5.992400
     4  C    5.984893
     5  C    6.003473
     6  N    7.008484
     7  C    5.966101
     8  C    6.010321
     9  C    5.986219
    10  C    6.032029
    11  C    5.996984
    12  C    5.998937
    13  C    6.002181
    14  H    0.991139
    15  N    6.995281
    16  C    6.035522
    17  C    6.022366
    18  C    6.013313
    19  C    6.029306
    20  C    5.996200
    21  C    6.009143
    22  O    8.019063
    23  C    5.998381
    24  N    7.000543
    25  C    6.029044
    26  C    5.991778
    27  C    6.010105
    28  C    5.965642
    29  C    5.997340
    30  C    6.006330
    31  C    6.001348
    32  N    6.999560
    33  C    5.973002
    34  C    5.968540
    35  C    6.000100
    36  C    5.975555
    37  C    5.999179
    38  C    5.984112
    39  O    7.971209
    40  C    6.001386
    41  C    5.996130
    42  O    7.993025
    43  O    8.000978
    44  C    6.000806
    45  H    1.010330
    46  H    1.006214
    47  H    0.991654
    48  H    1.002853
    49  H    1.005152
    50  H    1.003413
    51  H    1.015015
    52  H    0.999574
    53  H    0.989351
    54  H    1.004958
    55  H    1.002061
    56  H    1.000454
    57  H    1.017278
    58  H    1.017259
    59  H    1.016928
    60  H    1.010592
    61  H    1.011017
    62  H    1.010777
    63  H    0.997987
    64  H    0.998363
    65  H    0.999986
    66  H    0.994140
    67  H    1.008767
    68  H    0.997218
    69  H    0.988126
    70  H    0.994275
    71  H    1.001517
    72  H    1.003544
    73  H    0.982753
    74  H    0.984971
    75  H    0.982969
    76  H    0.991680
    77  H    1.000053
    78  H    0.993709
    79  H    0.994140
    80  Mg  12.000025
    81  C    5.999950
    82  C    6.000011
    83  C    6.000029
    84  C    5.999939
    85  N    7.000111
    86  C    6.000153
    87  C    5.999920
    88  C    6.000001
    89  C    5.999900
    90  C    6.000040
    91  C    5.999987
    92  C    5.999999
    93  H    1.000115
    94  N    7.000112
    95  C    5.999814
    96  C    5.999965
    97  C    5.999946
    98  C    5.999822
    99  C    6.000017
   100  C    5.999884
   101  O    7.999979
   102  C    5.999980
   103  N    6.999964
   104  C    5.999916
   105  C    6.000089
   106  C    5.999948
   107  C    5.999989
   108  C    6.000031
   109  C    6.000016
   110  C    5.999993
   111  N    6.999907
   112  C    6.000196
   113  C    6.000160
   114  C    6.000064
   115  C    6.000027
   116  C    5.999995
   117  C    6.000155
   118  O    8.000116
   119  C    6.000005
   120  C    6.000141
   121  O    7.999734
   122  O    8.000160
   123  C    6.000006
   124  H    0.999877
   125  H    0.999944
   126  H    1.000111
   127  H    1.000027
   128  H    0.999997
   129  H    0.999960
   130  H    0.999946
   131  H    0.999962
   132  H    1.000036
   133  H    1.000066
   134  H    1.000076
   135  H    0.999965
   136  H    0.999867
   137  H    0.999902
   138  H    0.999832
   139  H    0.999911
   140  H    0.999955
   141  H    0.999899
   142  H    0.999990
   143  H    0.999998
   144  H    0.999959
   145  H    0.999914
   146  H    0.999948
   147  H    1.000058
   148  H    1.000034
   149  H    0.999962
   150  H    0.999965
   151  H    1.000030
   152  H    1.000074
   153  H    1.000047
   154  H    1.000183
   155  H    1.000153
   156  H    1.000103
   157  H    1.000007
   158  H    0.999932
 Sum of Mulliken charges = 624.00000

 Dipole moment (field-independent basis, Debye):
    X=              6.0242    Y=              6.3118    Z=             -5.1717  Tot=             10.1427
 Quadrupole moment (field-independent basis, Debye-Ang):
   XX=            215.6352   YY=             -0.2694   ZZ=             -1.1375
   XY=            117.9871   XZ=            -95.7900   YZ=              0.7623

 Normal termination of Gaussian 16 at Fri Oct 15 07:02:40 2021.
