 Gaussian 16, Revision A.03,
 Gaussian 16:  ES64L-G16RevA.03 25-Dec-2016

 ---------------------------------------------------
 #p PBE1PBE/Def2SVP td=(nstates=5) density=(current)
 ---------------------------------------------------

 --------------------------------
 TDDFT excited states in gaussian
 --------------------------------
 Symbolic Z-matrix:
 Charge =  0 Multiplicity = 1

                         Standard orientation:
 ---------------------------------------------------------------------
 Center     Atomic      Atomic             Coordinates (Angstroms)
 Number     Number       Type             X           Y           Z
 ---------------------------------------------------------------------
      1         12           0       -0.701979    0.053843   -0.397823
      2          6           0        2.744528   -0.145074   -0.504842
      3          6           0       -0.803033   -3.386716   -0.346205
      4          6           0       -4.058377    0.239819    0.308721
      5          6           0       -0.511636    3.490622   -0.338553
      6          7           0        0.783663   -1.557755   -0.221067
      7          6           0        2.145208   -1.372784   -0.359150
      8          6           0        2.902988   -2.697744   -0.351353
      9          6           0        1.737352   -3.714278   -0.644743
     10          6           0        0.517428   -2.855780   -0.344153
     11          6           0        1.738019   -4.440524   -2.065586
     12          6           0        3.752764   -3.004643    0.922867
     13          6           0        5.145321   -3.542912    0.670647
     14          1           0        5.279667   -5.000857    1.081927
     15          7           0       -2.167542   -1.379863   -0.059274
     16          6           0       -2.024224   -2.709100   -0.107009
     17          6           0       -3.304676   -3.372566    0.067564
     18          6           0       -4.306460   -2.437547    0.267889
     19          6           0       -3.542879   -1.116921    0.232783
     20          6           0       -3.449933   -4.967737    0.116538
     21          6           0       -5.841471   -2.712618    0.411301
     22          8           0       -6.242144   -3.910762    0.434184
     23          6           0       -6.823343   -1.615783    0.570990
     24          7           0       -2.111959    1.684369    0.195417
     25          6           0       -3.414067    1.524619    0.253486
     26          6           0       -4.171771    2.832162    0.155259
     27          6           0       -3.095262    3.963687    0.035430
     28          6           0       -1.802548    3.028582   -0.124369
     29          6           0       -5.437767    2.935466   -0.754019
     30          6           0       -2.915872    5.008641    1.174621
     31          6           0       -2.157644    6.242747    0.731383
     32          7           0        0.833969    1.436203   -0.406101
     33          6           0        0.765732    2.847416   -0.465121
     34          6           0        2.102863    3.346027   -0.638107
     35          6           0        2.945725    2.209442   -0.697049
     36          6           0        2.102978    1.117824   -0.506990
     37          6           0        2.500889    4.777241   -0.966788
     38          6           0        4.261788    1.841649   -0.875433
     39          8           0        5.310760    2.421013   -0.953291
     40          6           0        4.235487    0.247462   -0.609607
     41          6           0        4.755950    0.105905    0.819948
     42          8           0        4.105429    0.279392    1.832522
     43          8           0        6.096081   -0.232750    0.724406
     44          6           0        6.824900   -0.312282    1.986206
     45          1           0       -0.915578   -4.457656   -0.526630
     46          1           0       -5.129539    0.225550    0.519061
     47          1           0       -0.309728    4.555571   -0.471007
     48          1           0        3.549217   -2.707805   -1.228592
     49          1           0        1.717637   -4.412618    0.192729
     50          1           0        0.685331   -4.699885   -2.177669
     51          1           0        2.230931   -5.413005   -2.071548
     52          1           0        2.118254   -3.867538   -2.911175
     53          1           0        3.152367   -3.749360    1.445778
     54          1           0        3.771916   -2.240850    1.699995
     55          1           0        5.839949   -2.916652    1.230926
     56          1           0        5.424897   -3.501207   -0.382249
     57          1           0       -2.513524   -5.522283    0.042382
     58          1           0       -4.110197   -5.316107   -0.678387
     59          1           0       -3.804795   -5.335339    1.078371
     60          1           0       -6.776883   -0.957155   -0.295701
     61          1           0       -6.742765   -1.143616    1.550194
     62          1           0       -7.784430   -2.100397    0.403594
     63          1           0       -4.621482    3.185455    1.083413
     64          1           0       -3.075415    4.417640   -0.955626
     65          1           0       -5.698030    1.909833   -1.019243
     66          1           0       -5.321793    3.618986   -1.595908
     67          1           0       -6.321205    3.325642   -0.248440
     68          1           0       -2.445818    4.474315    2.000129
     69          1           0       -3.932959    5.221091    1.503855
     70          1           0       -2.535039    7.084615    1.312380
     71          1           0       -2.265955    6.504163   -0.321915
     72          1           0       -1.116255    6.148063    1.039134
     73          1           0        3.546293    4.889837   -1.254254
     74          1           0        2.262512    5.392007   -0.099804
     75          1           0        1.906544    5.173827   -1.790014
     76          1           0        4.765623   -0.295111   -1.392946
     77          1           0        6.874290    0.677738    2.439851
     78          1           0        7.814489   -0.748993    1.856094
     79          1           0        6.263539   -0.925657    2.690444
 ---------------------------------------------------------------------

 SCF Done:  E(RPBE1PBE) =  -2033.68554750     A.U. after   16 cycles

 Excitation energies and oscillator strengths:

 Excited State   1:      Singlet-A      1.8858 eV  657.47 nm  f=0.3598  <S**2>=0.000
     155 ->158         0.14493
     156 ->157         0.69238
 This state for optimization and/or second-order correction.
 Total Energy, E(TD-HF/TD-DFT) =  -2033.61624617
 Copying the excited state density for this state as the 1-particle RhoCI density.

 Excited State   2:      Singlet-A      2.2300 eV  555.98 nm  f=0.1177  <S**2>=0.000
     155 ->157         0.65851
     156 ->158        -0.22036
     156 ->159        -0.11522

 Excited State   3:      Singlet-A      2.9881 eV  414.93 nm  f=0.0006  <S**2>=0.000
     153 ->157         0.20397
     154 ->157         0.64842
     154 ->159        -0.10747

 Excited State   4:      Singlet-A      3.1387 eV  395.01 nm  f=0.0013  <S**2>=0.000
     152 ->157        -0.10552
     153 ->157         0.63566
     154 ->157        -0.21171
     156 ->158         0.18204

 Excited State   5:      Singlet-A      3.2301 eV  383.85 nm  f=0.0479  <S**2>=0.000
     151 ->157         0.45533
     151 ->158        -0.16310
     151 ->159         0.12963
     152 ->157        -0.32198
     156 ->158        -0.32978

 The electronic state is 1-A.
 Alpha  occ. eigenvalues --  -46.92795 -19.25322 -19.20274 -19.20076 -19.18475
 Alpha  occ. eigenvalues --  -14.41721 -14.41587 -14.39978 -14.38419 -10.36302
 Alpha  occ. eigenvalues --  -10.33831 -10.30944 -10.30223 -10.29685 -10.29013
 Alpha  occ. eigenvalues --  -10.28541 -10.28476 -10.28121 -10.27848 -10.26866
 Alpha  occ. eigenvalues --  -10.26841 -10.26365 -10.26125 -10.26051 -10.26018
 Alpha  occ. eigenvalues --  -10.25834 -10.25530 -10.25406 -10.25326 -10.25265
 Alpha  occ. eigenvalues --  -10.25138 -10.24562 -10.24556 -10.24537 -10.24528
 Alpha  occ. eigenvalues --  -10.24506 -10.24455 -10.24288 -10.23837 -10.23630
 Alpha  occ. eigenvalues --  -10.23342 -10.23119 -10.21442  -3.14816  -1.87640
 Alpha  occ. eigenvalues --   -1.87194  -1.87043  -1.10369  -1.05037  -1.03485
 Alpha  occ. eigenvalues --   -1.02892  -0.99166  -0.98379  -0.97900  -0.97212
 Alpha  occ. eigenvalues --   -0.86235  -0.83475  -0.82762  -0.82178  -0.81380
 Alpha  occ. eigenvalues --   -0.80577  -0.80361  -0.78651  -0.77935  -0.77234
 Alpha  occ. eigenvalues --   -0.76354  -0.75192  -0.74601  -0.71984  -0.71350
 Alpha  occ. eigenvalues --   -0.70931  -0.69752  -0.69483  -0.66943  -0.66116
 Alpha  occ. eigenvalues --   -0.64088  -0.63484  -0.62483  -0.61613  -0.60027
 Alpha  occ. eigenvalues --   -0.59913  -0.59219  -0.58712  -0.56399  -0.54359
 Alpha  occ. eigenvalues --   -0.54150  -0.53570  -0.52991  -0.52529  -0.52068
 Alpha  occ. eigenvalues --   -0.50835  -0.50131  -0.49696  -0.48721  -0.48343
 Alpha  occ. eigenvalues --   -0.48095  -0.48029  -0.47765  -0.47216  -0.46608
 Alpha  occ. eigenvalues --   -0.46203  -0.45709  -0.45476  -0.45227  -0.44750
 Alpha  occ. eigenvalues --   -0.44543  -0.44268  -0.43980  -0.43747  -0.43380
 Alpha  occ. eigenvalues --   -0.43256  -0.42870  -0.42259  -0.42020  -0.41606
 Alpha  occ. eigenvalues --   -0.41264  -0.41040  -0.40821  -0.40601  -0.40086
 Alpha  occ. eigenvalues --   -0.40026  -0.39931  -0.39576  -0.39444  -0.38880
 Alpha  occ. eigenvalues --   -0.38806  -0.38513  -0.38250  -0.37858  -0.37504
 Alpha  occ. eigenvalues --   -0.37383  -0.37183  -0.37072  -0.36862  -0.36459
 Alpha  occ. eigenvalues --   -0.35849  -0.35365  -0.35098  -0.34899  -0.34190
 Alpha  occ. eigenvalues --   -0.33954  -0.33034  -0.32441  -0.31549  -0.31419
 Alpha  occ. eigenvalues --   -0.30482  -0.29647  -0.29262  -0.28701  -0.27220
 Alpha  occ. eigenvalues --   -0.26770  -0.26394  -0.25307  -0.24935  -0.20868
 Alpha  occ. eigenvalues --   -0.18947
 Alpha virt. eigenvalues --   -0.11094  -0.05473  -0.03915  -0.02517  -0.00932
 Alpha virt. eigenvalues --    0.00887   0.01262   0.02059   0.02785   0.04630
 Alpha virt. eigenvalues --    0.05359   0.05673   0.06195   0.06559   0.07054

 Mulliken charges:
               1
     1  Mg   0.963450
     2  C   -0.059836
     3  C   -0.110886
     4  C   -0.104803
     5  C   -0.054243
     6  N   -0.380089
     7  C    0.038809
     8  C   -0.101197
     9  C   -0.102947
    10  C    0.079765
    11  C    0.022438
    12  C    0.014943
    13  C   -0.129436
    14  H    0.034857
    15  N   -0.493996
    16  C    0.184900
    17  C   -0.167937
    18  C   -0.071275
    19  C    0.143425
    20  C    0.063089
    21  C    0.044907
    22  O   -0.270070
    23  C   -0.005466
    24  N   -0.376763
    25  C    0.148038
    26  C   -0.107311
    27  C   -0.117862
    28  C    0.064460
    29  C    0.006226
    30  C   -0.009265
    31  C   -0.049458
    32  N   -0.477182
    33  C    0.079454
    34  C   -0.146240
    35  C    0.006337
    36  C    0.197401
    37  C    0.051911
    38  C    0.068349
    39  O   -0.200360
    40  C   -0.155597
    41  C    0.323784
    42  O   -0.244427
    43  O   -0.366286
    44  C    0.126939
    45  H    0.004589
    46  H   -0.007416
    47  H   -0.004291
    48  H    0.041567
    49  H    0.046373
    50  H    0.037318
    51  H    0.048635
    52  H    0.056580
    53  H    0.032605
    54  H    0.062065
    55  H    0.059601
    56  H    0.055060
    57  H    0.016893
    58  H    0.063964
    59  H    0.058052
    60  H    0.062434
    61  H    0.088896
    62  H    0.051784
    63  H    0.054462
    64  H    0.048868
    65  H    0.044677
    66  H    0.045951
    67  H    0.034793
    68  H    0.052718
    69  H    0.039830
    70  H    0.039404
    71  H    0.049563
    72  H    0.057808
    73  H    0.065152
    74  H    0.047603
    75  H    0.049963
    76  H    0.060267
    77  H    0.061254
    78  H    0.063977
    79  H    0.048447
 Sum of Mulliken charges =  -0.00000

 Dipole moment (field-independent basis, Debye):
    X=             -2.1332    Y=              2.1551    Z=             -1.2523  Tot=              3.2808
 Quadrupole moment (field-independent basis, Debye-Ang):
   XX=           -266.7721   YY=           -241.9456   ZZ=           -253.9436
   XY=            -47.4817   XZ=              7.3159   YZ=              5.0656

 Normal termination of Gaussian 16 at Wed Oct 13 17:00:11 2021.
