 Gaussian 16, Revision A.03,
 Gaussian 16:  ES64L-G16RevA.03 25-Dec-2016

 --------------------------------------------------------
 #p PBE1PBE/Def2SVP td=(nstates=5) density=(transition=1)
 --------------------------------------------------------

 --------------------------------
 TDDFT excited states in gaussian
 --------------------------------
 Symbolic Z-matrix:
 Charge =  0 Multiplicity = 1

                         Standard orientation:
 ---------------------------------------------------------------------
 Center     Atomic      Atomic             Coordinates (Angstroms)
 Number     Number       Type             X           Y           Z
 ---------------------------------------------------------------------
      1         12           0      -21.614187    0.085616   -0.648538
      2          6           0      -18.359999   -0.287968    0.506336
      3          6           0      -22.267423   -3.256769    0.331413
      4          6           0      -24.894670    0.720110   -0.649880
      5          6           0      -20.985823    3.543986   -0.919646
      6          7           0      -20.486035   -1.510395    0.667560
      7          6           0      -19.115143   -1.464099    0.750310
      8          6           0      -18.554855   -2.739466    1.297200
      9          6           0      -19.744020   -3.764025    0.999631
     10          6           0      -20.952358   -2.819217    0.666403
     11          6           0      -19.472613   -4.839185   -0.169576
     12          6           0      -18.078850   -2.542256    2.827549
     13          6           0      -17.038343   -3.446277    3.259181
     14          1           0      -17.405271   -4.253678    4.522341
     15          7           0      -23.341911   -1.110805   -0.404724
     16          6           0      -23.400354   -2.475431   -0.005473
     17          6           0      -24.797450   -2.875001   -0.018051
     18          6           0      -25.596725   -1.746222   -0.322027
     19          6           0      -24.601921   -0.647453   -0.562420
     20          6           0      -25.232955   -4.226191    0.411754
     21          6           0      -27.182703   -1.748361   -0.324497
     22          8           0      -27.737593   -2.814059   -0.061109
     23          6           0      -27.992037   -0.605174   -0.927139
     24          7           0      -22.714688    1.890930   -0.667607
     25          6           0      -24.065386    1.832081   -0.785975
     26          6           0      -24.771181    3.326398   -0.803353
     27          6           0      -23.482262    4.229340   -1.111540
     28          6           0      -22.305553    3.219597   -0.927296
     29          6           0      -25.881192    3.549230   -1.899185
     30          6           0      -23.346927    5.425969   -0.168042
     31          6           0      -23.307134    6.871110   -0.720144
     32          7           0      -19.958719    1.317019   -0.565419
     33          6           0      -19.858046    2.667718   -0.732358
     34          6           0      -18.471672    3.043828   -0.695579
     35          6           0      -17.853510    1.862149   -0.137554
     36          6           0      -18.844733    0.869815   -0.049913
     37          6           0      -17.915647    4.426279   -0.879745
     38          6           0      -16.612975    1.357198    0.412830
     39          8           0      -15.514473    1.822789    0.382698
     40          6           0      -16.840524   -0.147010    0.833373
     41          6           0      -16.036668   -1.176801    0.009248
     42          8           0      -15.997409   -1.210327   -1.201908
     43          8           0      -15.285844   -1.994968    0.878399
     44          6           0      -14.349321   -2.891881    0.271410
     45          1           0      -22.386049   -4.311299    0.585940
     46          1           0      -25.920160    1.021709   -0.427347
     47          1           0      -20.834718    4.619001   -1.033523
     48          1           0      -17.780507   -3.161795    0.655954
     49          1           0      -19.960680   -4.304075    1.922023
     50          1           0      -19.560347   -5.812098    0.313829
     51          1           0      -18.497243   -4.717621   -0.639705
     52          1           0      -20.277903   -4.710348   -0.893349
     53          1           0      -18.983869   -2.748816    3.398595
     54          1           0      -17.875817   -1.471113    2.843666
     55          1           0      -16.164323   -2.826326    3.455178
     56          1           0      -16.840871   -4.186571    2.483943
     57          1           0      -24.392895   -4.917298    0.478509
     58          1           0      -25.879485   -4.667240   -0.347324
     59          1           0      -25.704689   -4.196523    1.394219
     60          1           0      -27.901227    0.333782   -0.380139
     61          1           0      -29.032917   -0.928055   -0.965815
     62          1           0      -27.657235   -0.481254   -1.957082
     63          1           0      -25.092131    3.459811    0.229382
     64          1           0      -23.371966    4.532435   -2.152954
     65          1           0      -26.850904    3.676952   -1.418976
     66          1           0      -25.924441    2.678196   -2.554141
     67          1           0      -25.599396    4.448199   -2.448458
     68          1           0      -22.512757    5.301042    0.521987
     69          1           0      -24.110455    5.482814    0.607610
     70          1           0      -22.362644    7.411349   -0.649991
     71          1           0      -24.002384    7.428356   -0.091822
     72          1           0      -23.603530    6.902042   -1.769306
     73          1           0      -16.853428    4.314508   -1.098634
     74          1           0      -17.771292    4.992746    0.039704
     75          1           0      -18.464975    5.055270   -1.579755
     76          1           0      -16.476334   -0.167638    1.860907
     77          1           0      -14.314329   -3.673883    1.030622
     78          1           0      -13.338441   -2.484604    0.264850
     79          1           0      -14.668049   -3.166440   -0.733343
     80         12           0       20.844967    0.851263   -0.347669
     81          6           0       21.220855   -2.693137   -0.200601
     82          6           0       18.290995    0.461266    1.734906
     83          6           0       21.021433    4.144790    0.389243
     84          6           0       24.127810    0.883154   -1.734075
     85          7           0       19.833958   -0.856916    0.519298
     86          6           0       20.082211   -2.240816    0.391997
     87          6           0       19.066525   -3.121940    1.185315
     88          6           0       18.103910   -2.038781    1.749355
     89          6           0       18.713994   -0.716408    1.238384
     90          6           0       16.685760   -2.385456    1.266257
     91          6           0       19.643281   -4.066597    2.326287
     92          6           0       19.519926   -5.568983    2.100143
     93          1           0       18.792977   -6.392724    3.182671
     94          7           0       19.784779    2.141517    0.782571
     95          6           0       18.726675    1.759290    1.606938
     96          6           0       18.099694    2.890197    2.161549
     97          6           0       18.751402    4.015247    1.691076
     98          6           0       19.887686    3.512294    0.945913
     99          6           0       16.849908    2.956418    3.115766
    100          6           0       18.298761    5.421598    2.006649
    101          8           0       17.286323    5.688572    2.582714
    102          6           0       19.206017    6.594564    1.386389
    103          7           0       22.378415    2.307251   -0.559233
    104          6           0       22.170297    3.612489   -0.205535
    105          6           0       23.543202    4.372268   -0.418069
    106          6           0       24.478338    3.425476   -1.188735
    107          6           0       23.628283    2.098487   -1.155490
    108          6           0       23.417301    5.764831   -0.967528
    109          6           0       25.762182    3.221611   -0.393980
    110          6           0       26.984810    2.785221   -1.156689
    111          7           0       22.290471   -0.598146   -1.103928
    112          6           0       23.539357   -0.421751   -1.650174
    113          6           0       24.085605   -1.670943   -2.039067
    114          6           0       23.195316   -2.665206   -1.568915
    115          6           0       22.179112   -1.926164   -0.899944
    116          6           0       25.403465   -1.924873   -2.653491
    117          6           0       22.871491   -4.088895   -1.405652
    118          8           0       23.474537   -5.073913   -1.852414
    119          6           0       21.562061   -4.186802   -0.532463
    120          6           0       20.483344   -4.670026   -1.352542
    121          8           0       19.929131   -3.928027   -2.197680
    122          8           0       20.297015   -5.968901   -1.045878
    123          6           0       19.110286   -6.670289   -1.607791
    124          1           0       17.422176    0.368670    2.390445
    125          1           0       21.010016    5.218247    0.589860
    126          1           0       25.077381    0.835889   -2.270622
    127          1           0       18.518224   -3.762362    0.494495
    128          1           0       18.104181   -1.980080    2.837351
    129          1           0       16.050428   -1.538968    1.525251
    130          1           0       16.241913   -3.283252    1.696237
    131          1           0       16.638357   -2.527686    0.186032
    132          1           0       18.979676   -3.885724    3.171899
    133          1           0       20.665488   -3.777375    2.570543
    134          1           0       20.529067   -5.958508    1.961656
    135          1           0       18.949999   -5.747122    1.187567
    136          1           0       17.168060    3.549760    3.973230
    137          1           0       16.542369    1.967293    3.454751
    138          1           0       15.926380    3.320574    2.665744
    139          1           0       18.677439    7.521088    1.608577
    140          1           0       19.249616    6.334031    0.328614
    141          1           0       20.147852    6.451794    1.916081
    142          1           0       23.918545    4.490848    0.598987
    143          1           0       24.751606    3.720207   -2.201880
    144          1           0       24.315385    5.987233   -1.543148
    145          1           0       23.316604    6.418374   -0.100787
    146          1           0       22.501637    5.947314   -1.528777
    147          1           0       25.644385    2.527816    0.438916
    148          1           0       26.049194    4.115566    0.159670
    149          1           0       26.857658    2.851946   -2.237036
    150          1           0       27.188346    1.747629   -0.891189
    151          1           0       27.874245    3.292148   -0.782608
    152          1           0       25.740396   -1.076522   -3.250051
    153          1           0       25.265160   -2.803285   -3.284327
    154          1           0       26.089897   -2.061230   -1.817522
    155          1           0       21.678953   -4.726267    0.407450
    156          1           0       19.524634   -7.671909   -1.731489
    157          1           0       18.728195   -6.229070   -2.527881
    158          1           0       18.348558   -6.839867   -0.846048
 ---------------------------------------------------------------------

 SCF Done:  E(RPBE1PBE) =  -4067.34652407     A.U. after   16 cycles

 Excitation energies and oscillator strengths:

 Excited State   1:      Singlet-A      1.8323 eV  676.66 nm  f=0.3854  <S**2>=0.000
     309 -> 316       -0.16918
     312 -> 313        0.69525
     312 <- 313       -0.11104
 This state for optimization and/or second-order correction.
 Total Energy, E(TD-HF/TD-DFT) =  -4067.27918794
 Copying the excited state density for this state as the 1-particle RhoCI density.

 Excited State   2:      Singlet-A      1.8689 eV  663.40 nm  f=0.3662  <S**2>=0.000
     310 -> 315        0.16690
     311 -> 314        0.69407
     311 <- 314       -0.10953

 Excited State   3:      Singlet-A      1.9784 eV  626.70 nm  f=0.0000  <S**2>=0.000
     311 -> 313        0.70711

 Excited State   4:      Singlet-A      1.9787 eV  626.58 nm  f=0.0000  <S**2>=0.000
     312 -> 314        0.70711

 Excited State   5:      Singlet-A      2.2474 eV  551.67 nm  f=0.1018  <S**2>=0.000
     309 -> 313        0.64692
     312 -> 316        0.27104

 The electronic state is 1-A.
 Alpha  occ. eigenvalues --  -46.93194 -46.91927 -19.27148 -19.25829 -19.20977
 Alpha  occ. eigenvalues --  -19.19921 -19.19744 -19.19712 -19.19130 -19.18637
 Alpha  occ. eigenvalues --  -14.41955 -14.41761 -14.41714 -14.41658 -14.39751
 Alpha  occ. eigenvalues --  -14.39080 -14.38838 -14.38232 -10.37155 -10.36497
 Alpha  occ. eigenvalues --  -10.33405 -10.32690 -10.32492 -10.31311 -10.30056
 Alpha  occ. eigenvalues --  -10.29467 -10.29402 -10.29233 -10.29190 -10.28711
 Alpha  occ. eigenvalues --  -10.28549 -10.28487 -10.28470 -10.28430 -10.28422
 Alpha  occ. eigenvalues --  -10.28412 -10.27960 -10.27667 -10.27103 -10.27024
 Alpha  occ. eigenvalues --  -10.26669 -10.26560 -10.26508 -10.26261 -10.26246
 Alpha  occ. eigenvalues --  -10.26162 -10.26041 -10.25975 -10.25916 -10.25871
 Alpha  occ. eigenvalues --  -10.25850 -10.25690 -10.25653 -10.25644 -10.25632
 Alpha  occ. eigenvalues --  -10.25613 -10.25601 -10.25496 -10.25381 -10.25346
 Alpha  occ. eigenvalues --  -10.25059 -10.25026 -10.25018 -10.24715 -10.24530
 Alpha  occ. eigenvalues --  -10.24332 -10.24304 -10.24236 -10.24216 -10.24139
 Alpha  occ. eigenvalues --  -10.24139 -10.24129 -10.23918 -10.23828 -10.23573
 Alpha  occ. eigenvalues --  -10.23539 -10.23428 -10.23425 -10.23348 -10.23343
 Alpha  occ. eigenvalues --  -10.23253 -10.23023 -10.22820 -10.22707 -10.22640
 Alpha  occ. eigenvalues --  -10.22622  -3.15194  -3.14099  -1.87981  -1.87623
 Alpha  occ. eigenvalues --   -1.87383  -1.86915  -1.86453  -1.86349  -1.11410
 Alpha  occ. eigenvalues --   -1.10870  -1.06590  -1.05723  -1.04869  -1.03602
 Alpha  occ. eigenvalues --   -1.03536  -1.02186  -0.99822  -0.98665  -0.97857
 Alpha  occ. eigenvalues --   -0.97469  -0.97405  -0.96948  -0.96366  -0.96183
 Alpha  occ. eigenvalues --   -0.86695  -0.86617  -0.83958  -0.83553  -0.83529
 Alpha  occ. eigenvalues --   -0.82961  -0.82613  -0.82431  -0.81631  -0.81188
 Alpha  occ. eigenvalues --   -0.81012  -0.80817  -0.80811  -0.80088  -0.79037
 Alpha  occ. eigenvalues --   -0.78562  -0.78317  -0.77679  -0.77519  -0.76915
 Alpha  occ. eigenvalues --   -0.76372  -0.76145  -0.75493  -0.75486  -0.74635
 Alpha  occ. eigenvalues --   -0.74501  -0.72228  -0.72078  -0.71639  -0.71585
 Alpha  occ. eigenvalues --   -0.71029  -0.70895  -0.70556  -0.70496  -0.69425
 Alpha  occ. eigenvalues --   -0.69280  -0.67249  -0.67157  -0.66157  -0.65788
 Alpha  occ. eigenvalues --   -0.63619  -0.63531  -0.63018  -0.62941  -0.62211
 Alpha  occ. eigenvalues --   -0.61867  -0.61609  -0.60844  -0.60320  -0.60059
 Alpha  occ. eigenvalues --   -0.59988  -0.59504  -0.59348  -0.59139  -0.58885
 Alpha  occ. eigenvalues --   -0.58708  -0.57432  -0.56838  -0.54634  -0.54234
 Alpha  occ. eigenvalues --   -0.54212  -0.54082  -0.53893  -0.53555  -0.53074
 Alpha  occ. eigenvalues --   -0.53016  -0.52812  -0.52635  -0.52047  -0.51813
 Alpha  occ. eigenvalues --   -0.50925  -0.50849  -0.50550  -0.49966  -0.49574
 Alpha  occ. eigenvalues --   -0.49565  -0.49271  -0.49270  -0.48880  -0.48618
 Alpha  occ. eigenvalues --   -0.48421  -0.47865  -0.47743  -0.47431  -0.47349
 Alpha  occ. eigenvalues --   -0.47145  -0.46959  -0.46921  -0.46730  -0.46597
 Alpha  occ. eigenvalues --   -0.46312  -0.46237  -0.46196  -0.46093  -0.45829
 Alpha  occ. eigenvalues --   -0.45662  -0.45478  -0.45170  -0.45031  -0.44801
 Alpha  occ. eigenvalues --   -0.44779  -0.44498  -0.44475  -0.44339  -0.44287
 Alpha  occ. eigenvalues --   -0.44187  -0.43904  -0.43841  -0.43742  -0.43557
 Alpha  occ. eigenvalues --   -0.43427  -0.43138  -0.43055  -0.42930  -0.42698
 Alpha  occ. eigenvalues --   -0.42679  -0.42536  -0.42194  -0.42066  -0.41985
 Alpha  occ. eigenvalues --   -0.41684  -0.41650  -0.41573  -0.41148  -0.41106
 Alpha  occ. eigenvalues --   -0.40991  -0.40880  -0.40765  -0.40627  -0.40408
 Alpha  occ. eigenvalues --   -0.40300  -0.40030  -0.39972  -0.39892  -0.39750
 Alpha  occ. eigenvalues --   -0.39566  -0.39552  -0.39486  -0.39348  -0.39087
 Alpha  occ. eigenvalues --   -0.38868  -0.38842  -0.38681  -0.38456  -0.38374
 Alpha  occ. eigenvalues --   -0.38301  -0.38234  -0.38106  -0.37927  -0.37886
 Alpha  occ. eigenvalues --   -0.37650  -0.37570  -0.37474  -0.37358  -0.37323
 Alpha  occ. eigenvalues --   -0.37149  -0.37057  -0.36801  -0.36575  -0.36510
 Alpha  occ. eigenvalues --   -0.36386  -0.35972  -0.35891  -0.35516  -0.35349
 Alpha  occ. eigenvalues --   -0.35180  -0.35080  -0.34786  -0.34064  -0.33618
 Alpha  occ. eigenvalues --   -0.33372  -0.33158  -0.33156  -0.32760  -0.32605
 Alpha  occ. eigenvalues --   -0.32190  -0.32087  -0.31754  -0.31649  -0.31262
 Alpha  occ. eigenvalues --   -0.31050  -0.30697  -0.29784  -0.29419  -0.29404
 Alpha  occ. eigenvalues --   -0.29094  -0.28888  -0.28569  -0.27374  -0.26901
 Alpha  occ. eigenvalues --   -0.26200  -0.26135  -0.25761  -0.25599  -0.25500
 Alpha  occ. eigenvalues --   -0.25107  -0.24974  -0.24736  -0.21211  -0.21155
 Alpha  occ. eigenvalues --   -0.18859  -0.18806
 Alpha virt. eigenvalues --   -0.11281  -0.11220  -0.05234  -0.05164  -0.03777
 Alpha virt. eigenvalues --   -0.03700  -0.02327  -0.01665  -0.01453  -0.00502
 Alpha virt. eigenvalues --   -0.00133   0.00020   0.00374   0.00575   0.01404

 Mulliken charges:
               1
     1  Mg  11.999690
     2  C    6.007289
     3  C    5.980750
     4  C    5.992125
     5  C    6.022275
     6  N    6.992690
     7  C    5.972369
     8  C    6.013331
     9  C    5.989483
    10  C    6.036713
    11  C    5.998756
    12  C    6.001346
    13  C    6.004339
    14  H    0.988530
    15  N    6.994934
    16  C    6.046861
    17  C    6.012187
    18  C    6.018770
    19  C    6.028861
    20  C    5.994427
    21  C    6.013311
    22  O    8.020882
    23  C    5.996647
    24  N    7.014035
    25  C    6.023310
    26  C    5.992125
    27  C    6.007316
    28  C    5.964491
    29  C    5.998481
    30  C    6.002249
    31  C    6.000778
    32  N    6.999505
    33  C    5.958698
    34  C    5.978909
    35  C    5.990618
    36  C    5.976477
    37  C    6.001099
    38  C    5.982418
    39  O    7.970943
    40  C    5.998508
    41  C    5.994690
    42  O    7.994468
    43  O    7.996863
    44  C    6.002652
    45  H    1.008639
    46  H    1.007795
    47  H    0.993405
    48  H    0.997313
    49  H    1.002873
    50  H    1.002501
    51  H    1.012705
    52  H    0.995454
    53  H    0.988716
    54  H    1.007930
    55  H    1.002809
    56  H    0.996134
    57  H    1.017549
    58  H    1.014958
    59  H    1.017306
    60  H    1.011515
    61  H    1.012417
    62  H    1.008120
    63  H    1.001769
    64  H    0.999368
    65  H    0.999645
    66  H    0.996348
    67  H    1.009795
    68  H    1.004782
    69  H    0.991896
    70  H    1.003385
    71  H    0.996169
    72  H    0.996947
    73  H    0.987895
    74  H    0.979104
    75  H    0.983091
    76  H    0.990439
    77  H    0.994020
    78  H    0.996911
    79  H    0.995091
    80  Mg  12.000036
    81  C    6.000299
    82  C    6.000024
    83  C    5.999730
    84  C    6.000050
    85  N    7.000256
    86  C    5.999518
    87  C    6.000228
    88  C    5.999723
    89  C    6.000541
    90  C    5.999953
    91  C    6.000047
    92  C    6.000052
    93  H    0.999884
    94  N    6.999987
    95  C    6.000528
    96  C    6.000363
    97  C    6.000155
    98  C    6.000509
    99  C    5.999969
   100  C    6.000152
   101  O    8.000386
   102  C    6.000067
   103  N    6.999908
   104  C    6.000487
   105  C    5.999933
   106  C    6.000124
   107  C    5.999426
   108  C    6.000001
   109  C    6.000141
   110  C    6.000013
   111  N    6.999936
   112  C    5.999477
   113  C    5.999606
   114  C    5.999868
   115  C    5.999526
   116  C    6.000001
   117  C    5.999671
   118  O    7.999446
   119  C    5.999958
   120  C    5.999957
   121  O    7.999937
   122  O    7.999956
   123  C    6.000040
   124  H    1.000304
   125  H    1.000093
   126  H    0.999791
   127  H    0.999998
   128  H    1.000049
   129  H    0.999992
   130  H    1.000218
   131  H    1.000186
   132  H    0.999878
   133  H    0.999989
   134  H    1.000028
   135  H    1.000034
   136  H    1.000247
   137  H    1.000321
   138  H    1.000418
   139  H    1.000233
   140  H    1.000122
   141  H    1.000079
   142  H    0.999967
   143  H    0.999925
   144  H    1.000090
   145  H    0.999923
   146  H    0.999994
   147  H    0.999953
   148  H    0.999768
   149  H    0.999995
   150  H    1.000072
   151  H    0.999858
   152  H    0.999683
   153  H    0.999731
   154  H    0.999597
   155  H    0.999799
   156  H    0.999917
   157  H    0.999972
   158  H    0.999910
 Sum of Mulliken charges = 624.00000

 Dipole moment (field-independent basis, Debye):
    X=             -9.2360    Y=             -5.0607    Z=             -0.0815  Tot=             10.5320
 Quadrupole moment (field-independent basis, Debye-Ang):
   XX=            386.2560   YY=             -1.1632   ZZ=             -1.1428
   XY=            115.6646   XZ=              6.3305   YZ=              2.2632

 Normal termination of Gaussian 16 at Thu Oct 14 10:37:36 2021.
