 Gaussian 16, Revision A.03,
 Gaussian 16:  ES64L-G16RevA.03 25-Dec-2016

 ---------------------------------------------------
 #p PBE1PBE/Def2SVP td=(nstates=5) density=(current)
 ---------------------------------------------------

 --------------------------------
 TDDFT excited states in gaussian
 --------------------------------
 Symbolic Z-matrix:
 Charge =  0 Multiplicity = 1

                         Standard orientation:
 ---------------------------------------------------------------------
 Center     Atomic      Atomic             Coordinates (Angstroms)
 Number     Number       Type             X           Y           Z
 ---------------------------------------------------------------------
      1         12           0       -0.698684    0.104617    0.126591
      2          6           0        2.722280    0.309396    0.284228
      3          6           0       -0.427539   -3.312761    0.052844
      4          6           0       -4.148732   -0.119959   -0.147061
      5          6           0       -0.890924    3.546606   -0.242352
      6          7           0        0.977712   -1.386847    0.112517
      7          6           0        2.281602   -1.015176    0.277317
      8          6           0        3.149566   -2.176584    0.351772
      9          6           0        2.252036   -3.372497    0.075635
     10          6           0        0.817194   -2.685825    0.037185
     11          6           0        2.530607   -4.247384   -1.195156
     12          6           0        3.900527   -2.252016    1.724688
     13          6           0        5.341676   -2.869253    1.715799
     14          1           0        5.652721   -3.916259    0.628295
     15          7           0       -2.082430   -1.527224    0.090337
     16          6           0       -1.737616   -2.867935    0.086265
     17          6           0       -2.971521   -3.677879    0.031941
     18          6           0       -4.092085   -2.741260   -0.021692
     19          6           0       -3.479019   -1.401723   -0.003980
     20          6           0       -3.007881   -5.196979   -0.004546
     21          6           0       -5.566873   -3.064711    0.034790
     22          8           0       -6.388907   -2.131914    0.059072
     23          6           0       -6.132554   -4.435488    0.029028
     24          7           0       -2.301452    1.496159   -0.232932
     25          6           0       -3.591745    1.149411   -0.240878
     26          6           0       -4.491093    2.395840   -0.288960
     27          6           0       -3.471969    3.641456   -0.064113
     28          6           0       -2.128881    2.830662   -0.102811
     29          6           0       -5.312509    2.453386   -1.613699
     30          6           0       -3.622832    4.393454    1.286646
     31          6           0       -4.153975    5.831639    1.192322
     32          7           0        0.623417    1.663423   -0.036040
     33          6           0        0.411930    3.034314   -0.200233
     34          6           0        1.706869    3.749977   -0.226698
     35          6           0        2.613949    2.677907   -0.054378
     36          6           0        1.913630    1.446001    0.045637
     37          6           0        1.949047    5.174773   -0.330687
     38          6           0        4.042661    2.369117    0.161444
     39          8           0        5.007806    3.079522    0.259229
     40          6           0        4.158381    0.813923    0.344900
     41          6           0        5.142000    0.303503   -0.623467
     42          8           0        4.866889    0.262552   -1.833494
     43          8           0        6.268249   -0.226074   -0.071853
     44          6           0        7.204681   -0.937297   -0.936383
     45          1           0       -0.306630   -4.397854    0.032289
     46          1           0       -5.230096   -0.212289   -0.269812
     47          1           0       -1.007850    4.632176   -0.231488
     48          1           0        3.888406   -2.092558   -0.445941
     49          1           0        2.159179   -4.010463    0.955314
     50          1           0        3.364647   -4.039168   -1.866110
     51          1           0        1.627411   -4.246453   -1.804858
     52          1           0        2.624819   -5.311551   -0.977479
     53          1           0        3.265170   -2.742310    2.462372
     54          1           0        3.890436   -1.263662    2.183820
     55          1           0        5.559228   -3.322041    2.683555
     56          1           0        6.115655   -2.136470    1.489501
     57          1           0       -2.031363   -5.656163    0.145377
     58          1           0       -3.347439   -5.558083   -0.975729
     59          1           0       -3.542468   -5.578624    0.865135
     60          1           0       -7.207392   -4.323148    0.167930
     61          1           0       -5.718367   -5.081373    0.804331
     62          1           0       -5.846857   -4.941613   -0.893256
     63          1           0       -5.106881    2.373902    0.610258
     64          1           0       -3.479626    4.343070   -0.898174
     65          1           0       -6.375861    2.635966   -1.458053
     66          1           0       -5.234347    1.512801   -2.159626
     67          1           0       -4.816316    3.230218   -2.195927
     68          1           0       -2.691899    4.460799    1.848369
     69          1           0       -4.287996    3.867617    1.971945
     70          1           0       -4.784341    5.927931    0.308241
     71          1           0       -3.299232    6.497465    1.077438
     72          1           0       -4.620449    6.053460    2.151281
     73          1           0        2.943163    5.460425    0.012456
     74          1           0        1.222792    5.776597    0.215277
     75          1           0        2.027872    5.418132   -1.390345
     76          1           0        4.496172    0.754973    1.380118
     77          1           0        7.701226   -0.306811   -1.674473
     78          1           0        6.733831   -1.810883   -1.387114
     79          1           0        8.028551   -1.324239   -0.336906
 ---------------------------------------------------------------------

 SCF Done:  E(RPBE1PBE) =  -2033.72682799     A.U. after   15 cycles

 Excitation energies and oscillator strengths:

 Excited State   1:      Singlet-A      1.8897 eV  656.10 nm  f=0.3732  <S**2>=0.000
     155 ->158        -0.18008
     156 ->157         0.68960
     156 <-157        -0.10436
 This state for optimization and/or second-order correction.
 Total Energy, E(TD-HF/TD-DFT) =  -2033.65738189
 Copying the excited state density for this state as the 1-particle RhoCI density.

 Excited State   2:      Singlet-A      2.2566 eV  549.42 nm  f=0.0897  <S**2>=0.000
     155 ->157         0.64120
     156 ->158         0.28274

 Excited State   3:      Singlet-A      3.1016 eV  399.74 nm  f=0.0004  <S**2>=0.000
     151 ->157        -0.11993
     153 ->157        -0.35678
     154 ->157         0.56384

 Excited State   4:      Singlet-A      3.1328 eV  395.76 nm  f=0.0075  <S**2>=0.000
     151 ->157         0.20208
     152 ->157        -0.31891
     153 ->157         0.46710
     153 ->159        -0.10776
     154 ->157         0.27182
     156 ->158        -0.17116

 Excited State   5:      Singlet-A      3.1532 eV  393.20 nm  f=0.0016  <S**2>=0.000
     152 ->157         0.57411
     152 ->159         0.14819
     153 ->157         0.20107
     154 ->157         0.25773

 The electronic state is 1-A.
 Alpha  occ. eigenvalues --  -46.92282 -19.26582 -19.19529 -19.19263 -19.18565
 Alpha  occ. eigenvalues --  -14.41318 -14.41224 -14.39186 -14.38900 -10.36555
 Alpha  occ. eigenvalues --  -10.32053 -10.32025 -10.29532 -10.28744 -10.28329
 Alpha  occ. eigenvalues --  -10.28328 -10.28125 -10.27829 -10.27708 -10.27676
 Alpha  occ. eigenvalues --  -10.26819 -10.26809 -10.26378 -10.26081 -10.26067
 Alpha  occ. eigenvalues --  -10.25803 -10.25644 -10.25608 -10.25251 -10.25223
 Alpha  occ. eigenvalues --  -10.25086 -10.24995 -10.24777 -10.24626 -10.24121
 Alpha  occ. eigenvalues --  -10.23699 -10.23670 -10.23539 -10.23500 -10.23341
 Alpha  occ. eigenvalues --  -10.23020 -10.23016 -10.22802  -3.14289  -1.87151
 Alpha  occ. eigenvalues --   -1.86646  -1.86518  -1.11192  -1.05714  -1.03599
 Alpha  occ. eigenvalues --   -1.01908  -0.99743  -0.98722  -0.98061  -0.95600
 Alpha  occ. eigenvalues --   -0.86840  -0.83423  -0.82582  -0.82019  -0.81513
 Alpha  occ. eigenvalues --   -0.81078  -0.80462  -0.78253  -0.77835  -0.76584
 Alpha  occ. eigenvalues --   -0.76000  -0.75521  -0.74903  -0.72759  -0.71858
 Alpha  occ. eigenvalues --   -0.71617  -0.70550  -0.69247  -0.67068  -0.65984
 Alpha  occ. eigenvalues --   -0.63553  -0.62747  -0.62471  -0.61366  -0.60264
 Alpha  occ. eigenvalues --   -0.59854  -0.59610  -0.58886  -0.57318  -0.54397
 Alpha  occ. eigenvalues --   -0.54116  -0.53781  -0.53223  -0.52909  -0.51868
 Alpha  occ. eigenvalues --   -0.50691  -0.50322  -0.49918  -0.49274  -0.48523
 Alpha  occ. eigenvalues --   -0.48066  -0.47614  -0.47368  -0.46939  -0.46609
 Alpha  occ. eigenvalues --   -0.46254  -0.46117  -0.45822  -0.45734  -0.44868
 Alpha  occ. eigenvalues --   -0.44523  -0.44419  -0.43930  -0.43555  -0.43147
 Alpha  occ. eigenvalues --   -0.43054  -0.42767  -0.42594  -0.42122  -0.41862
 Alpha  occ. eigenvalues --   -0.41775  -0.41360  -0.40958  -0.40654  -0.40458
 Alpha  occ. eigenvalues --   -0.40275  -0.39918  -0.39746  -0.39322  -0.39139
 Alpha  occ. eigenvalues --   -0.38602  -0.38427  -0.38319  -0.37985  -0.37833
 Alpha  occ. eigenvalues --   -0.37523  -0.36979  -0.36606  -0.36348  -0.35985
 Alpha  occ. eigenvalues --   -0.35762  -0.35546  -0.35271  -0.34863  -0.34517
 Alpha  occ. eigenvalues --   -0.33161  -0.32481  -0.32194  -0.31727  -0.31663
 Alpha  occ. eigenvalues --   -0.31079  -0.29262  -0.28919  -0.28497  -0.26694
 Alpha  occ. eigenvalues --   -0.25801  -0.25674  -0.25549  -0.25126  -0.20814
 Alpha  occ. eigenvalues --   -0.18500
 Alpha virt. eigenvalues --   -0.10784  -0.05213  -0.03649  -0.01823  -0.00235
 Alpha virt. eigenvalues --    0.00347   0.01317   0.01942   0.03133   0.04090
 Alpha virt. eigenvalues --    0.05036   0.05661   0.05980   0.06864   0.07354

 Mulliken charges:
               1
     1  Mg   0.951065
     2  C   -0.028538
     3  C   -0.078075
     4  C   -0.042437
     5  C   -0.065002
     6  N   -0.363945
     7  C    0.027758
     8  C   -0.087322
     9  C   -0.066932
    10  C    0.018931
    11  C    0.009667
    12  C    0.009556
    13  C   -0.138387
    14  H    0.025391
    15  N   -0.494202
    16  C    0.207024
    17  C   -0.179632
    18  C   -0.068438
    19  C    0.138107
    20  C    0.050245
    21  C    0.034992
    22  O   -0.274032
    23  C    0.004180
    24  N   -0.376051
    25  C    0.084164
    26  C   -0.115729
    27  C   -0.128831
    28  C    0.066365
    29  C    0.020072
    30  C   -0.025439
    31  C   -0.072055
    32  N   -0.489448
    33  C    0.141566
    34  C   -0.170575
    35  C   -0.059025
    36  C    0.170169
    37  C    0.068747
    38  C    0.109309
    39  O   -0.198703
    40  C   -0.081528
    41  C    0.305939
    42  O   -0.283437
    43  O   -0.357393
    44  C    0.128145
    45  H   -0.014047
    46  H    0.031658
    47  H    0.004079
    48  H    0.069509
    49  H    0.047793
    50  H    0.054167
    51  H    0.039589
    52  H    0.033718
    53  H    0.026516
    54  H    0.037693
    55  H    0.060077
    56  H    0.080023
    57  H    0.027531
    58  H    0.067029
    59  H    0.056463
    60  H    0.062201
    61  H    0.045353
    62  H    0.056039
    63  H    0.054904
    64  H    0.053283
    65  H    0.054612
    66  H    0.055391
    67  H    0.037082
    68  H    0.042270
    69  H    0.035782
    70  H    0.048236
    71  H    0.040454
    72  H    0.047928
    73  H    0.053548
    74  H    0.050376
    75  H    0.061414
    76  H    0.074796
    77  H    0.070211
    78  H    0.055423
    79  H    0.052661
 Sum of Mulliken charges =  -0.00000

 Dipole moment (field-independent basis, Debye):
    X=             -0.2203    Y=             -2.8556    Z=              1.8461  Tot=              3.4075
 Quadrupole moment (field-independent basis, Debye-Ang):
   XX=           -271.1793   YY=           -223.0752   ZZ=           -256.8267
   XY=            -28.4726   XZ=              3.6059   YZ=              1.2432

 Normal termination of Gaussian 16 at Wed Oct 13 18:02:41 2021.
