 Gaussian 16, Revision A.03,
 Gaussian 16:  ES64L-G16RevA.03 25-Dec-2016

 --------------------------------------------------------
 #p PBE1PBE/Def2SVP td=(nstates=5) density=(transition=1)
 --------------------------------------------------------

 --------------------------------
 TDDFT excited states in gaussian
 --------------------------------
 Symbolic Z-matrix:
 Charge =  0 Multiplicity = 1

                         Standard orientation:
 ---------------------------------------------------------------------
 Center     Atomic      Atomic             Coordinates (Angstroms)
 Number     Number       Type             X           Y           Z
 ---------------------------------------------------------------------
      1         12           0      -15.658072    0.323281    0.280586
      2          6           0      -14.746113   -2.668562   -1.063736
      3          6           0      -12.294724    0.920433    0.881038
      4          6           0      -16.524633    3.418672    1.250235
      5          6           0      -18.921304   -0.090541   -0.970749
      6          7           0      -13.713793   -0.663547   -0.300726
      7          6           0      -13.649650   -1.909982   -0.810297
      8          6           0      -12.255871   -2.340257   -1.088901
      9          6           0      -11.461784   -1.298054   -0.081062
     10          6           0      -12.552163   -0.245718    0.210805
     11          6           0      -10.872014   -2.003641    1.175645
     12          6           0      -11.926560   -2.097194   -2.553222
     13          6           0      -12.116408   -0.632069   -3.164042
     14          1           0      -11.096780   -0.067766   -4.145530
     15          7           0      -14.578954    1.941263    0.965518
     16          6           0      -13.196758    1.953389    1.281218
     17          6           0      -12.939068    3.168387    1.979447
     18          6           0      -14.092765    3.937514    2.067616
     19          6           0      -15.162692    3.125129    1.464403
     20          6           0      -11.527334    3.423052    2.467241
     21          6           0      -14.222610    5.345501    2.597652
     22          8           0      -13.160113    5.868467    3.016965
     23          6           0      -15.365911    6.186216    2.474776
     24          7           0      -17.428647    1.563480   -0.051407
     25          6           0      -17.543408    2.795655    0.522074
     26          6           0      -18.934830    3.414812    0.247679
     27          6           0      -19.687802    2.248620   -0.476901
     28          6           0      -18.600306    1.192541   -0.579117
     29          6           0      -19.627470    3.921310    1.494781
     30          6           0      -20.276759    2.730618   -1.908105
     31          6           0      -21.688399    2.214154   -2.208971
     32          7           0      -16.736867   -1.099734   -0.824285
     33          6           0      -18.062059   -1.247536   -1.082472
     34          6           0      -18.254063   -2.603731   -1.519216
     35          6           0      -16.985784   -3.281122   -1.509154
     36          6           0      -16.099853   -2.297801   -1.100918
     37          6           0      -19.495950   -3.138042   -2.146509
     38          6           0      -16.234040   -4.456210   -1.812621
     39          8           0      -16.726568   -5.519399   -2.210620
     40          6           0      -14.788054   -4.114475   -1.504057
     41          6           0      -14.287868   -5.061389   -0.477918
     42          8           0      -14.331785   -6.255226   -0.701067
     43          8           0      -13.731090   -4.471448    0.615492
     44          6           0      -13.212623   -5.396363    1.625264
     45          1           0      -11.295521    0.990751    1.315632
     46          1           0      -16.832418    4.321713    1.781177
     47          1           0      -19.948014   -0.364623   -1.223415
     48          1           0      -11.990488   -3.380546   -0.900291
     49          1           0      -10.544986   -0.932019   -0.545062
     50          1           0       -9.794097   -1.851317    1.216385
     51          1           0      -11.051616   -3.071704    1.049983
     52          1           0      -11.323265   -1.701918    2.121756
     53          1           0      -12.462443   -2.852361   -3.128614
     54          1           0      -10.913485   -2.492557   -2.626186
     55          1           0      -12.175320    0.179126   -2.438255
     56          1           0      -13.035493   -0.753213   -3.736633
     57          1           0      -11.003056    3.860174    1.617235
     58          1           0      -11.057563    2.468365    2.700543
     59          1           0      -11.424979    4.067463    3.340888
     60          1           0      -15.090428    7.240073    2.423873
     61          1           0      -16.146194    5.972345    3.206336
     62          1           0      -15.737845    5.997687    1.468603
     63          1           0      -18.709727    4.223984   -0.447944
     64          1           0      -20.440241    1.832820    0.192933
     65          1           0      -19.012202    3.877135    2.393049
     66          1           0      -20.631394    3.589946    1.758801
     67          1           0      -19.642919    4.999235    1.331094
     68          1           0      -19.663408    2.435977   -2.759690
     69          1           0      -20.272296    3.815884   -2.007913
     70          1           0      -22.379380    3.051979   -2.119767
     71          1           0      -21.969631    1.515611   -1.420619
     72          1           0      -21.777503    1.771397   -3.201125
     73          1           0      -20.371087   -3.257926   -1.509004
     74          1           0      -19.206029   -4.097473   -2.576580
     75          1           0      -19.859054   -2.496148   -2.949220
     76          1           0      -14.237058   -4.267008   -2.432545
     77          1           0      -12.472903   -6.035092    1.141772
     78          1           0      -13.991216   -5.967032    2.131707
     79          1           0      -12.812655   -4.848531    2.478371
     80         12           0       15.557052    0.750068   -0.233684
     81          6           0       15.249885   -2.530806    0.964767
     82          6           0       12.835623    1.603105    1.695139
     83          6           0       15.847495    3.823697   -1.399928
     84          6           0       18.216800   -0.340856   -2.253169
     85          7           0       14.297411   -0.362278    1.209722
     86          6           0       14.307341   -1.713030    1.558126
     87          6           0       13.429898   -2.036014    2.830697
     88          6           0       12.619502   -0.755322    2.883532
     89          6           0       13.290421    0.255787    1.864576
     90          6           0       11.126883   -1.009420    2.374830
     91          6           0       14.484228   -2.083193    4.024089
     92          6           0       14.297837   -3.231223    5.111005
     93          1           0       12.830735   -3.527721    5.289236
     94          7           0       14.422581    2.383813   -0.010525
     95          6           0       13.371436    2.560292    0.785122
     96          6           0       12.864674    3.906445    0.743413
     97          6           0       13.815970    4.630821   -0.001903
     98          6           0       14.746344    3.586520   -0.574783
     99          6           0       11.646726    4.405384    1.430704
    100          6           0       14.004509    6.124653   -0.168000
    101          8           0       15.030865    6.622978   -0.644095
    102          6           0       12.853949    7.080351    0.159790
    103          7           0       16.848036    1.596956   -1.689118
    104          6           0       16.759610    2.952541   -1.901306
    105          6           0       17.925203    3.378602   -2.791381
    106          6           0       18.791468    2.040516   -2.987394
    107          6           0       17.969309    1.029167   -2.232696
    108          6           0       17.379159    4.089843   -4.079635
    109          6           0       20.253292    2.099716   -2.572697
    110          6           0       21.241496    1.624057   -3.683272
    111          7           0       16.518049   -1.059932   -0.594600
    112          6           0       17.599002   -1.365348   -1.479979
    113          6           0       17.905556   -2.750114   -1.425825
    114          6           0       16.996447   -3.230323   -0.468147
    115          6           0       16.163025   -2.171889   -0.050814
    116          6           0       18.952735   -3.546843   -2.135105
    117          6           0       16.566119   -4.386936    0.250205
    118          8           0       16.905969   -5.546377    0.219527
    119          6           0       15.492589   -3.932458    1.279165
    120          6           0       14.329397   -4.853134    1.199812
    121          8           0       13.505704   -4.944189    0.293903
    122          8           0       14.304816   -5.543885    2.343776
    123          6           0       13.197379   -6.456742    2.535173
    124          1           0       12.079821    2.037790    2.352412
    125          1           0       15.882734    4.856540   -1.755481
    126          1           0       19.076391   -0.710513   -2.816234
    127          1           0       13.012586   -3.024006    2.638683
    128          1           0       12.649711   -0.331906    3.886921
    129          1           0       10.965085   -2.040008    2.058284
    130          1           0       10.935605   -0.345077    1.532338
    131          1           0       10.507999   -0.735878    3.229452
    132          1           0       14.509228   -1.166975    4.613279
    133          1           0       15.466247   -2.154381    3.555736
    134          1           0       14.552368   -2.862558    6.104754
    135          1           0       15.015530   -4.039260    4.966907
    136          1           0       11.989205    5.083655    2.213401
    137          1           0       11.100186    3.595113    1.911244
    138          1           0       10.964129    4.938157    0.769318
    139          1           0       13.181030    7.955242   -0.401597
    140          1           0       12.722643    7.266803    1.226322
    141          1           0       11.877724    6.853074   -0.268078
    142          1           0       18.595275    4.125813   -2.366295
    143          1           0       18.756670    1.762797   -4.040926
    144          1           0       17.992361    4.982527   -4.203432
    145          1           0       16.313610    4.316681   -4.042880
    146          1           0       17.679835    3.557120   -4.982571
    147          1           0       20.483717    1.547362   -1.662244
    148          1           0       20.462908    3.168345   -2.507944
    149          1           0       20.711411    1.439442   -4.617773
    150          1           0       21.637795    0.631284   -3.471048
    151          1           0       22.025091    2.361359   -3.859029
    152          1           0       19.850310   -3.241718   -1.596473
    153          1           0       18.885894   -3.277855   -3.189048
    154          1           0       18.837787   -4.618771   -1.980569
    155          1           0       15.967730   -4.141728    2.238503
    156          1           0       13.129348   -7.141753    1.689588
    157          1           0       12.199712   -6.018039    2.573134
    158          1           0       13.417377   -7.010046    3.448344
 ---------------------------------------------------------------------

 SCF Done:  E(RPBE1PBE) =  -4067.40075142     A.U. after   16 cycles

 Excitation energies and oscillator strengths:

 Excited State   1:      Singlet-A      1.8134 eV  683.73 nm  f=0.0000  <S**2>=0.000
     312 -> 313        0.70710
 This state for optimization and/or second-order correction.
 Total Energy, E(TD-HF/TD-DFT) =  -4067.33411171
 Copying the excited state density for this state as the 1-particle RhoCI density.

 Excited State   2:      Singlet-A      1.8614 eV  666.07 nm  f=0.3493  <S**2>=0.000
     310 -> 316       -0.15497
     312 -> 314        0.69321
     312 <- 314       -0.10790

 Excited State   3:      Singlet-A      1.8908 eV  655.73 nm  f=0.3936  <S**2>=0.000
     309 -> 315       -0.16958
     311 -> 313        0.69127
     311 <- 313       -0.10811

 Excited State   4:      Singlet-A      2.1194 eV  584.98 nm  f=0.0000  <S**2>=0.000
     311 -> 314        0.70710

 Excited State   5:      Singlet-A      2.2079 eV  561.54 nm  f=0.1165  <S**2>=0.000
     309 -> 313        0.66031
     311 -> 315        0.22041

 The electronic state is 1-A.
 Alpha  occ. eigenvalues --  -46.92498 -46.91164 -19.27076 -19.25977 -19.19904
 Alpha  occ. eigenvalues --  -19.19776 -19.19130 -19.18704 -19.18282 -19.17892
 Alpha  occ. eigenvalues --  -14.41774 -14.41598 -14.41508 -14.41133 -14.39705
 Alpha  occ. eigenvalues --  -14.39412 -14.38407 -14.38258 -10.36536 -10.35416
 Alpha  occ. eigenvalues --  -10.33135 -10.31852 -10.31750 -10.30517 -10.29997
 Alpha  occ. eigenvalues --  -10.29439 -10.29265 -10.28764 -10.28708 -10.28642
 Alpha  occ. eigenvalues --  -10.28438 -10.28393 -10.28354 -10.28218 -10.28082
 Alpha  occ. eigenvalues --  -10.28051 -10.27946 -10.27897 -10.27162 -10.27022
 Alpha  occ. eigenvalues --  -10.26602 -10.26563 -10.26359 -10.26292 -10.26285
 Alpha  occ. eigenvalues --  -10.26268 -10.26243 -10.26172 -10.26094 -10.26085
 Alpha  occ. eigenvalues --  -10.25901 -10.25719 -10.25718 -10.25399 -10.25391
 Alpha  occ. eigenvalues --  -10.25363 -10.25131 -10.25061 -10.25027 -10.25004
 Alpha  occ. eigenvalues --  -10.24984 -10.24937 -10.24925 -10.24913 -10.24896
 Alpha  occ. eigenvalues --  -10.24831 -10.24702 -10.24513 -10.24428 -10.24409
 Alpha  occ. eigenvalues --  -10.24011 -10.23934 -10.23913 -10.23813 -10.23724
 Alpha  occ. eigenvalues --  -10.23691 -10.23467 -10.23418 -10.23410 -10.23181
 Alpha  occ. eigenvalues --  -10.23101 -10.22937 -10.22893 -10.22586 -10.22488
 Alpha  occ. eigenvalues --  -10.21636  -3.14534  -3.13450  -1.87349  -1.86926
 Alpha  occ. eigenvalues --   -1.86739  -1.86303  -1.85805  -1.85705  -1.12231
 Alpha  occ. eigenvalues --   -1.11980  -1.04843  -1.04354  -1.03917  -1.02988
 Alpha  occ. eigenvalues --   -1.02907  -1.01986  -0.99587  -0.99452  -0.99169
 Alpha  occ. eigenvalues --   -0.98746  -0.97577  -0.97517  -0.97009  -0.96006
 Alpha  occ. eigenvalues --   -0.88564  -0.87168  -0.83838  -0.83556  -0.83344
 Alpha  occ. eigenvalues --   -0.83067  -0.82695  -0.82682  -0.82236  -0.82113
 Alpha  occ. eigenvalues --   -0.81546  -0.80944  -0.80549  -0.80205  -0.79421
 Alpha  occ. eigenvalues --   -0.78476  -0.78287  -0.77848  -0.77536  -0.77079
 Alpha  occ. eigenvalues --   -0.76557  -0.75985  -0.75817  -0.75548  -0.75287
 Alpha  occ. eigenvalues --   -0.74681  -0.73041  -0.73004  -0.72276  -0.71825
 Alpha  occ. eigenvalues --   -0.71410  -0.71126  -0.70464  -0.69948  -0.69312
 Alpha  occ. eigenvalues --   -0.69309  -0.67607  -0.67029  -0.66577  -0.65820
 Alpha  occ. eigenvalues --   -0.64449  -0.63653  -0.63473  -0.63261  -0.63248
 Alpha  occ. eigenvalues --   -0.62067  -0.61794  -0.61566  -0.60998  -0.59850
 Alpha  occ. eigenvalues --   -0.59811  -0.59780  -0.59723  -0.59565  -0.59098
 Alpha  occ. eigenvalues --   -0.58929  -0.58431  -0.57106  -0.55209  -0.54810
 Alpha  occ. eigenvalues --   -0.54257  -0.54193  -0.53868  -0.53714  -0.53253
 Alpha  occ. eigenvalues --   -0.53224  -0.53029  -0.52701  -0.52358  -0.51894
 Alpha  occ. eigenvalues --   -0.51317  -0.51173  -0.51165  -0.50447  -0.50220
 Alpha  occ. eigenvalues --   -0.49870  -0.49745  -0.49163  -0.49037  -0.48898
 Alpha  occ. eigenvalues --   -0.48456  -0.48452  -0.48045  -0.47822  -0.47725
 Alpha  occ. eigenvalues --   -0.47446  -0.47218  -0.47085  -0.46993  -0.46739
 Alpha  occ. eigenvalues --   -0.46509  -0.46450  -0.46415  -0.46040  -0.45970
 Alpha  occ. eigenvalues --   -0.45809  -0.45562  -0.45518  -0.45269  -0.45126
 Alpha  occ. eigenvalues --   -0.44883  -0.44781  -0.44569  -0.44254  -0.44225
 Alpha  occ. eigenvalues --   -0.44078  -0.43828  -0.43822  -0.43394  -0.43382
 Alpha  occ. eigenvalues --   -0.43302  -0.43214  -0.43059  -0.42868  -0.42791
 Alpha  occ. eigenvalues --   -0.42590  -0.42357  -0.42287  -0.42192  -0.41895
 Alpha  occ. eigenvalues --   -0.41788  -0.41535  -0.41512  -0.41342  -0.41156
 Alpha  occ. eigenvalues --   -0.41059  -0.41042  -0.40803  -0.40777  -0.40550
 Alpha  occ. eigenvalues --   -0.40454  -0.40064  -0.40007  -0.39902  -0.39606
 Alpha  occ. eigenvalues --   -0.39529  -0.39502  -0.39465  -0.39331  -0.39305
 Alpha  occ. eigenvalues --   -0.39294  -0.39072  -0.38552  -0.38441  -0.38354
 Alpha  occ. eigenvalues --   -0.38201  -0.37906  -0.37697  -0.37563  -0.37436
 Alpha  occ. eigenvalues --   -0.37409  -0.37263  -0.37173  -0.37122  -0.36797
 Alpha  occ. eigenvalues --   -0.36791  -0.36673  -0.36501  -0.36117  -0.36048
 Alpha  occ. eigenvalues --   -0.35993  -0.35836  -0.35664  -0.35377  -0.35292
 Alpha  occ. eigenvalues --   -0.35009  -0.34664  -0.34535  -0.34142  -0.33724
 Alpha  occ. eigenvalues --   -0.33688  -0.33293  -0.32830  -0.32707  -0.32657
 Alpha  occ. eigenvalues --   -0.32492  -0.32419  -0.31978  -0.31957  -0.31500
 Alpha  occ. eigenvalues --   -0.31347  -0.31054  -0.29793  -0.29477  -0.29211
 Alpha  occ. eigenvalues --   -0.29028  -0.28583  -0.28170  -0.27398  -0.27203
 Alpha  occ. eigenvalues --   -0.26468  -0.26390  -0.25616  -0.25454  -0.25390
 Alpha  occ. eigenvalues --   -0.25305  -0.24833  -0.24618  -0.21227  -0.21020
 Alpha  occ. eigenvalues --   -0.19282  -0.18685
 Alpha virt. eigenvalues --   -0.11598  -0.11066  -0.05434  -0.05324  -0.04064
 Alpha virt. eigenvalues --   -0.03542  -0.02383  -0.01624  -0.01408   0.00499
 Alpha virt. eigenvalues --    0.00545   0.01288   0.01436   0.01753   0.01848

 Mulliken charges:
               1
     1  Mg  12.000000
     2  C    6.000000
     3  C    6.000000
     4  C    6.000000
     5  C    6.000000
     6  N    7.000000
     7  C    6.000000
     8  C    6.000000
     9  C    6.000000
    10  C    6.000000
    11  C    6.000000
    12  C    6.000000
    13  C    6.000000
    14  H    1.000000
    15  N    7.000000
    16  C    6.000000
    17  C    6.000000
    18  C    6.000000
    19  C    6.000000
    20  C    6.000000
    21  C    6.000000
    22  O    8.000000
    23  C    6.000000
    24  N    7.000000
    25  C    6.000000
    26  C    6.000000
    27  C    6.000000
    28  C    6.000000
    29  C    6.000000
    30  C    6.000000
    31  C    6.000000
    32  N    7.000000
    33  C    6.000000
    34  C    6.000000
    35  C    6.000000
    36  C    6.000000
    37  C    6.000000
    38  C    6.000000
    39  O    8.000000
    40  C    6.000000
    41  C    6.000000
    42  O    8.000000
    43  O    8.000000
    44  C    6.000000
    45  H    1.000000
    46  H    1.000000
    47  H    1.000000
    48  H    1.000000
    49  H    1.000000
    50  H    1.000000
    51  H    1.000000
    52  H    1.000000
    53  H    1.000000
    54  H    1.000000
    55  H    1.000000
    56  H    1.000000
    57  H    1.000000
    58  H    1.000000
    59  H    1.000000
    60  H    1.000000
    61  H    1.000000
    62  H    1.000000
    63  H    1.000000
    64  H    1.000000
    65  H    1.000000
    66  H    1.000000
    67  H    1.000000
    68  H    1.000000
    69  H    1.000000
    70  H    1.000000
    71  H    1.000000
    72  H    1.000000
    73  H    1.000000
    74  H    1.000000
    75  H    1.000000
    76  H    1.000000
    77  H    1.000000
    78  H    1.000000
    79  H    1.000000
    80  Mg  12.000000
    81  C    6.000000
    82  C    6.000000
    83  C    6.000000
    84  C    6.000000
    85  N    7.000000
    86  C    6.000000
    87  C    6.000000
    88  C    6.000000
    89  C    6.000000
    90  C    6.000000
    91  C    6.000000
    92  C    6.000000
    93  H    1.000000
    94  N    7.000000
    95  C    6.000000
    96  C    6.000000
    97  C    6.000000
    98  C    6.000000
    99  C    6.000000
   100  C    6.000000
   101  O    8.000000
   102  C    6.000000
   103  N    7.000000
   104  C    6.000000
   105  C    6.000000
   106  C    6.000000
   107  C    6.000000
   108  C    6.000000
   109  C    6.000000
   110  C    6.000000
   111  N    7.000000
   112  C    6.000000
   113  C    6.000000
   114  C    6.000000
   115  C    6.000000
   116  C    6.000000
   117  C    6.000000
   118  O    8.000000
   119  C    6.000000
   120  C    6.000000
   121  O    8.000000
   122  O    8.000000
   123  C    6.000000
   124  H    1.000000
   125  H    1.000000
   126  H    1.000000
   127  H    1.000000
   128  H    1.000000
   129  H    1.000000
   130  H    1.000000
   131  H    1.000000
   132  H    1.000000
   133  H    1.000000
   134  H    1.000000
   135  H    1.000000
   136  H    1.000000
   137  H    1.000000
   138  H    1.000000
   139  H    1.000000
   140  H    1.000000
   141  H    1.000000
   142  H    1.000000
   143  H    1.000000
   144  H    1.000000
   145  H    1.000000
   146  H    1.000000
   147  H    1.000000
   148  H    1.000000
   149  H    1.000000
   150  H    1.000000
   151  H    1.000000
   152  H    1.000000
   153  H    1.000000
   154  H    1.000000
   155  H    1.000000
   156  H    1.000000
   157  H    1.000000
   158  H    1.000000
 Sum of Mulliken charges = 624.00000

 Dipole moment (field-independent basis, Debye):
    X=             -0.0000    Y=              0.0000    Z=             -0.0000  Tot=              0.0000
 Quadrupole moment (field-independent basis, Debye-Ang):
   XX=              0.0000   YY=              0.0000   ZZ=             -0.0000
   XY=              0.0000   XZ=              0.0000   YZ=             -0.0000

 Normal termination of Gaussian 16 at Thu Oct 14 23:44:24 2021.
