 Gaussian 16, Revision A.03,
 Gaussian 16:  ES64L-G16RevA.03 25-Dec-2016

 --------------------------------------------------------
 #p PBE1PBE/Def2SVP td=(nstates=5) density=(transition=1)
 --------------------------------------------------------

 --------------------------------
 TDDFT excited states in gaussian
 --------------------------------
 Symbolic Z-matrix:
 Charge =  0 Multiplicity = 1

                         Standard orientation:
 ---------------------------------------------------------------------
 Center     Atomic      Atomic             Coordinates (Angstroms)
 Number     Number       Type             X           Y           Z
 ---------------------------------------------------------------------
      1         12           0      -24.721731   -0.438562   -0.247397
      2          6           0      -22.490442    2.096670   -0.472492
      3          6           0      -26.668742    1.466279    1.907939
      4          6           0      -26.950129   -2.976847   -0.017578
      5          6           0      -22.554627   -2.502355   -1.987359
      6          7           0      -24.593845    1.536493    0.471183
      7          6           0      -23.585009    2.428048    0.301577
      8          6           0      -23.928264    3.794049    0.836010
      9          6           0      -25.123587    3.503859    1.821151
     10          6           0      -25.511655    2.066011    1.343915
     11          6           0      -24.928833    3.663751    3.386803
     12          6           0      -24.403111    4.780877   -0.323493
     13          6           0      -24.191680    6.279067    0.044692
     14          1           0      -24.189855    6.764456    1.503986
     15          7           0      -26.547295   -0.790225    0.862570
     16          6           0      -27.169131    0.177306    1.694675
     17          6           0      -28.384868   -0.361759    2.225417
     18          6           0      -28.492138   -1.692793    1.685237
     19          6           0      -27.290275   -1.837606    0.788320
     20          6           0      -29.346582    0.391380    3.076074
     21          6           0      -29.575940   -2.741605    1.908283
     22          8           0      -29.544967   -3.935960    1.489549
     23          6           0      -30.810911   -2.376418    2.714314
     24          7           0      -24.729910   -2.460611   -0.839298
     25          6           0      -25.858580   -3.280835   -0.800460
     26          6           0      -25.766999   -4.552610   -1.692353
     27          6           0      -24.297877   -4.291648   -2.349131
     28          6           0      -23.824178   -3.022959   -1.740249
     29          6           0      -25.852148   -5.797410   -0.799791
     30          6           0      -24.279422   -4.306194   -3.849255
     31          6           0      -23.308291   -5.295645   -4.427050
     32          7           0      -22.906744   -0.385919   -0.977765
     33          6           0      -22.110128   -1.265905   -1.699774
     34          6           0      -20.877591   -0.651367   -2.028623
     35          6           0      -20.920284    0.681552   -1.538568
     36          6           0      -22.212732    0.844734   -0.996824
     37          6           0      -19.729784   -1.205136   -2.782146
     38          6           0      -20.149234    1.886659   -1.324950
     39          8           0      -19.003446    2.225911   -1.547521
     40          6           0      -21.227954    2.873682   -0.670215
     41          6           0      -20.647142    3.707742    0.414311
     42          8           0      -19.901762    3.338169    1.285309
     43          8           0      -21.000845    5.000123    0.337794
     44          6           0      -20.443677    5.856777    1.423023
     45          1           0      -27.107754    2.073948    2.702113
     46          1           0      -27.607427   -3.827727    0.172813
     47          1           0      -21.864491   -3.047299   -2.634703
     48          1           0      -23.146140    4.198515    1.478278
     49          1           0      -25.966641    4.128023    1.526618
     50          1           0      -23.934089    4.079728    3.547068
     51          1           0      -25.044718    2.774434    4.004278
     52          1           0      -25.718278    4.333273    3.728822
     53          1           0      -25.448616    4.517993   -0.485415
     54          1           0      -23.818827    4.538106   -1.211144
     55          1           0      -24.997646    6.765641   -0.504945
     56          1           0      -23.287109    6.592832   -0.475601
     57          1           0      -30.041219    1.042339    2.545101
     58          1           0      -28.730101    0.948269    3.780598
     59          1           0      -29.878573   -0.241586    3.785693
     60          1           0      -30.530340   -2.500074    3.760192
     61          1           0      -31.550661   -3.130618    2.447015
     62          1           0      -31.157577   -1.354678    2.558487
     63          1           0      -26.647964   -4.532246   -2.334014
     64          1           0      -23.631884   -5.094359   -2.030778
     65          1           0      -25.814483   -5.616792    0.274684
     66          1           0      -25.128627   -6.532663   -1.151159
     67          1           0      -26.853253   -6.201550   -0.952748
     68          1           0      -23.965027   -3.357717   -4.284941
     69          1           0      -25.246109   -4.499015   -4.314656
     70          1           0      -23.745985   -5.921207   -5.204468
     71          1           0      -22.924632   -5.969168   -3.661173
     72          1           0      -22.458357   -4.684632   -4.732403
     73          1           0      -19.568190   -2.279385   -2.688004
     74          1           0      -18.868729   -0.851544   -2.214266
     75          1           0      -19.789235   -0.902327   -3.827607
     76          1           0      -21.354092    3.516148   -1.542150
     77          1           0      -19.394675    6.103506    1.253198
     78          1           0      -20.664492    5.456412    2.412634
     79          1           0      -20.972745    6.809937    1.406410
     80         12           0       23.960251   -0.842156    0.349016
     81          6           0       24.123026    2.177945   -1.571223
     82          6           0       24.116014    1.229541    3.199872
     83          6           0       24.537110   -3.462531    2.221189
     84          6           0       24.179752   -2.632861   -2.533285
     85          7           0       24.050303    1.438843    0.726317
     86          6           0       23.994224    2.390343   -0.236387
     87          6           0       23.839975    3.747110    0.430867
     88          6           0       23.801197    3.524234    1.969043
     89          6           0       23.963884    1.992161    1.990566
     90          6           0       24.944623    4.358206    2.780897
     91          6           0       22.528607    4.514772   -0.032634
     92          6           0       22.700066    5.979300   -0.437241
     93          1           0       23.777092    6.898642    0.266796
     94          7           0       24.337835   -1.077971    2.439840
     95          6           0       24.325200   -0.149528    3.372684
     96          6           0       24.603040   -0.795725    4.624356
     97          6           0       24.594482   -2.203377    4.453878
     98          6           0       24.527036   -2.294749    3.018874
     99          6           0       24.565938   -0.056779    5.961047
    100          6           0       24.558189   -3.389357    5.404941
    101          8           0       24.625522   -4.544483    5.026567
    102          6           0       24.369702   -3.063497    6.861042
    103          7           0       24.658072   -2.707848   -0.129654
    104          6           0       24.619875   -3.702476    0.849301
    105          6           0       24.615756   -5.138608    0.258530
    106          6           0       24.335569   -4.787223   -1.251231
    107          6           0       24.387946   -3.261434   -1.328367
    108          6           0       25.944056   -5.852925    0.547198
    109          6           0       22.884426   -5.240110   -1.755565
    110          6           0       22.781685   -6.427920   -2.652536
    111          7           0       24.002922   -0.380029   -1.615150
    112          6           0       24.127190   -1.235796   -2.688259
    113          6           0       24.277919   -0.532303   -3.959333
    114          6           0       24.277381    0.854787   -3.570538
    115          6           0       24.235858    0.881288   -2.156518
    116          6           0       24.203965   -1.187255   -5.291064
    117          6           0       24.254837    2.226624   -4.054371
    118          8           0       24.256441    2.604725   -5.240061
    119          6           0       24.182074    3.187195   -2.735503
    120          6           0       25.404388    3.973986   -2.780844
    121          8           0       26.514739    3.490999   -2.823142
    122          8           0       25.144269    5.286529   -2.757653
    123          6           0       26.225222    6.317147   -2.853142
    124          1           0       24.088461    1.822487    4.116353
    125          1           0       24.308422   -4.390537    2.750594
    126          1           0       24.163651   -3.250082   -3.433671
    127          1           0       24.732502    4.324111    0.188807
    128          1           0       22.884110    3.910385    2.414271
    129          1           0       25.281542    5.218513    2.202492
    130          1           0       25.741462    3.635345    2.957795
    131          1           0       24.548285    4.682475    3.742978
    132          1           0       21.691986    4.462203    0.662729
    133          1           0       22.136819    4.040645   -0.932446
    134          1           0       21.759688    6.526910   -0.371221
    135          1           0       22.900148    5.908199   -1.506364
    136          1           0       23.619963   -0.147241    6.495206
    137          1           0       24.898098    0.976749    5.858576
    138          1           0       25.346600   -0.507088    6.573728
    139          1           0       23.648046   -2.273471    7.070998
    140          1           0       25.277902   -2.768744    7.384917
    141          1           0       23.850800   -3.892447    7.342449
    142          1           0       23.799575   -5.681202    0.734762
    143          1           0       25.098063   -5.279765   -1.854787
    144          1           0       26.590215   -5.336216    1.256705
    145          1           0       26.547306   -5.959389   -0.353703
    146          1           0       25.737057   -6.854899    0.924523
    147          1           0       22.333276   -4.478331   -2.306922
    148          1           0       22.191064   -5.414476   -0.933622
    149          1           0       22.223928   -7.223852   -2.160734
    150          1           0       23.824011   -6.708640   -2.804847
    151          1           0       22.265607   -6.165525   -3.576019
    152          1           0       23.727613   -0.539456   -6.026179
    153          1           0       23.732774   -2.156262   -5.127460
    154          1           0       25.232923   -1.363370   -5.607606
    155          1           0       23.324732    3.858009   -2.771031
    156          1           0       26.869466    6.087094   -3.701947
    157          1           0       26.850706    6.353047   -1.960848
    158          1           0       25.853811    7.341380   -2.871581
 ---------------------------------------------------------------------

 SCF Done:  E(RPBE1PBE) =  -4067.37366164     A.U. after   17 cycles

 Excitation energies and oscillator strengths:

 Excited State   1:      Singlet-A      1.8022 eV  687.94 nm  f=0.3691  <S**2>=0.000
     309 -> 315       -0.16356
     311 -> 313        0.69742
     311 <- 313       -0.11962
 This state for optimization and/or second-order correction.
 Total Energy, E(TD-HF/TD-DFT) =  -4067.30743046
 Copying the excited state density for this state as the 1-particle RhoCI density.

 Excited State   2:      Singlet-A      1.8475 eV  671.09 nm  f=0.3905  <S**2>=0.000
     310 -> 316        0.16137
     312 -> 314        0.69525
     312 <- 314       -0.11633

 Excited State   3:      Singlet-A      1.8779 eV  660.24 nm  f=0.0000  <S**2>=0.000
     312 -> 313        0.70711

 Excited State   4:      Singlet-A      1.9922 eV  622.35 nm  f=0.0000  <S**2>=0.000
     311 -> 314        0.70711

 Excited State   5:      Singlet-A      2.2073 eV  561.70 nm  f=0.1226  <S**2>=0.000
     310 -> 314        0.66023
     312 -> 316       -0.23225

 The electronic state is 1-A.
 Alpha  occ. eigenvalues --  -46.92015 -46.90580 -19.25822 -19.25794 -19.19705
 Alpha  occ. eigenvalues --  -19.19451 -19.19252 -19.18995 -19.18738 -19.18664
 Alpha  occ. eigenvalues --  -14.42304 -14.41355 -14.41315 -14.41255 -14.39148
 Alpha  occ. eigenvalues --  -14.39073 -14.38699 -14.38510 -10.35596 -10.35409
 Alpha  occ. eigenvalues --  -10.32871 -10.32635 -10.32352 -10.32282 -10.29698
 Alpha  occ. eigenvalues --  -10.29294 -10.29132 -10.29064 -10.28685 -10.28511
 Alpha  occ. eigenvalues --  -10.28472 -10.28260 -10.28235 -10.27951 -10.27746
 Alpha  occ. eigenvalues --  -10.27574 -10.27304 -10.27302 -10.26905 -10.26885
 Alpha  occ. eigenvalues --  -10.26694 -10.26666 -10.26532 -10.26341 -10.26214
 Alpha  occ. eigenvalues --  -10.26159 -10.26099 -10.26021 -10.26014 -10.25883
 Alpha  occ. eigenvalues --  -10.25882 -10.25799 -10.25669 -10.25623 -10.25503
 Alpha  occ. eigenvalues --  -10.25499 -10.25496 -10.25480 -10.25409 -10.25378
 Alpha  occ. eigenvalues --  -10.25372 -10.25233 -10.25087 -10.24683 -10.24596
 Alpha  occ. eigenvalues --  -10.24583 -10.24322 -10.24268 -10.24064 -10.23920
 Alpha  occ. eigenvalues --  -10.23892 -10.23664 -10.23504 -10.23464 -10.23312
 Alpha  occ. eigenvalues --  -10.23311 -10.23288 -10.23271 -10.23241 -10.23120
 Alpha  occ. eigenvalues --  -10.23018 -10.23009 -10.23000 -10.22951 -10.22578
 Alpha  occ. eigenvalues --  -10.22431  -3.14220  -3.13009  -1.87025  -1.86600
 Alpha  occ. eigenvalues --   -1.86453  -1.85844  -1.85364  -1.85280  -1.12096
 Alpha  occ. eigenvalues --   -1.11260  -1.05546  -1.04890  -1.03159  -1.02117
 Alpha  occ. eigenvalues --   -1.02101  -1.02095  -0.99331  -0.99114  -0.98250
 Alpha  occ. eigenvalues --   -0.98138  -0.97725  -0.97364  -0.96555  -0.96061
 Alpha  occ. eigenvalues --   -0.87746  -0.86480  -0.84033  -0.83114  -0.82919
 Alpha  occ. eigenvalues --   -0.82848  -0.82573  -0.82331  -0.82038  -0.81544
 Alpha  occ. eigenvalues --   -0.81429  -0.81260  -0.80741  -0.80729  -0.78673
 Alpha  occ. eigenvalues --   -0.78501  -0.78400  -0.78094  -0.76903  -0.76772
 Alpha  occ. eigenvalues --   -0.75978  -0.75898  -0.75586  -0.75405  -0.75016
 Alpha  occ. eigenvalues --   -0.74769  -0.72618  -0.72558  -0.72123  -0.71961
 Alpha  occ. eigenvalues --   -0.71659  -0.71158  -0.70855  -0.70546  -0.69605
 Alpha  occ. eigenvalues --   -0.69208  -0.67354  -0.66934  -0.66308  -0.65869
 Alpha  occ. eigenvalues --   -0.63518  -0.63155  -0.63066  -0.62591  -0.62219
 Alpha  occ. eigenvalues --   -0.62042  -0.61306  -0.61123  -0.60289  -0.59941
 Alpha  occ. eigenvalues --   -0.59805  -0.59571  -0.59334  -0.59202  -0.59004
 Alpha  occ. eigenvalues --   -0.58691  -0.56990  -0.56914  -0.55026  -0.54892
 Alpha  occ. eigenvalues --   -0.54458  -0.53721  -0.53559  -0.53415  -0.53083
 Alpha  occ. eigenvalues --   -0.53014  -0.52577  -0.52552  -0.52326  -0.51978
 Alpha  occ. eigenvalues --   -0.50697  -0.50664  -0.50167  -0.49885  -0.49757
 Alpha  occ. eigenvalues --   -0.49738  -0.49594  -0.48844  -0.48532  -0.48104
 Alpha  occ. eigenvalues --   -0.47976  -0.47955  -0.47623  -0.47550  -0.47490
 Alpha  occ. eigenvalues --   -0.47391  -0.47108  -0.47007  -0.46910  -0.46865
 Alpha  occ. eigenvalues --   -0.46686  -0.46675  -0.46618  -0.45906  -0.45886
 Alpha  occ. eigenvalues --   -0.45775  -0.45755  -0.45124  -0.44995  -0.44994
 Alpha  occ. eigenvalues --   -0.44730  -0.44664  -0.44507  -0.44438  -0.44253
 Alpha  occ. eigenvalues --   -0.43767  -0.43685  -0.43598  -0.43480  -0.43356
 Alpha  occ. eigenvalues --   -0.43188  -0.43091  -0.43058  -0.42864  -0.42782
 Alpha  occ. eigenvalues --   -0.42705  -0.42408  -0.42389  -0.42016  -0.42008
 Alpha  occ. eigenvalues --   -0.41844  -0.41427  -0.41411  -0.41349  -0.41266
 Alpha  occ. eigenvalues --   -0.41064  -0.40902  -0.40829  -0.40693  -0.40655
 Alpha  occ. eigenvalues --   -0.40018  -0.39997  -0.39867  -0.39753  -0.39572
 Alpha  occ. eigenvalues --   -0.39374  -0.39253  -0.39059  -0.38877  -0.38720
 Alpha  occ. eigenvalues --   -0.38645  -0.38414  -0.38412  -0.38141  -0.38130
 Alpha  occ. eigenvalues --   -0.38008  -0.37749  -0.37635  -0.37357  -0.37254
 Alpha  occ. eigenvalues --   -0.37227  -0.37157  -0.36818  -0.36793  -0.36552
 Alpha  occ. eigenvalues --   -0.36396  -0.36287  -0.36280  -0.36178  -0.35928
 Alpha  occ. eigenvalues --   -0.35897  -0.35753  -0.35431  -0.35351  -0.35303
 Alpha  occ. eigenvalues --   -0.35280  -0.35177  -0.34977  -0.34646  -0.34177
 Alpha  occ. eigenvalues --   -0.33330  -0.33252  -0.33000  -0.32903  -0.32666
 Alpha  occ. eigenvalues --   -0.32253  -0.32064  -0.31985  -0.31613  -0.31466
 Alpha  occ. eigenvalues --   -0.31251  -0.31182  -0.29842  -0.29638  -0.29413
 Alpha  occ. eigenvalues --   -0.28724  -0.28439  -0.28313  -0.27015  -0.26871
 Alpha  occ. eigenvalues --   -0.26447  -0.25956  -0.25822  -0.25553  -0.25538
 Alpha  occ. eigenvalues --   -0.25449  -0.25210  -0.25038  -0.21212  -0.20752
 Alpha  occ. eigenvalues --   -0.18718  -0.18589
 Alpha virt. eigenvalues --   -0.11419  -0.11127  -0.05148  -0.04697  -0.04103
 Alpha virt. eigenvalues --   -0.04036  -0.02316  -0.02150  -0.00985   0.00100
 Alpha virt. eigenvalues --    0.00712   0.00827   0.01121   0.01179   0.01234

 Mulliken charges:
               1
     1  Mg  12.004237
     2  C    5.978671
     3  C    5.999479
     4  C    6.030843
     5  C    6.015666
     6  N    6.985543
     7  C    6.031645
     8  C    5.988271
     9  C    6.009554
    10  C    5.968524
    11  C    6.004410
    12  C    5.997393
    13  C    5.999962
    14  H    1.005863
    15  N    7.003475
    16  C    5.962069
    17  C    5.986263
    18  C    5.978785
    19  C    5.970042
    20  C    6.003546
    21  C    5.986483
    22  O    7.962570
    23  C    6.004851
    24  N    7.019771
    25  C    5.967246
    26  C    6.009328
    27  C    5.988494
    28  C    6.017971
    29  C    5.999801
    30  C    5.993705
    31  C    5.999724
    32  N    6.997362
    33  C    6.019339
    34  C    6.034874
    35  C    6.000665
    36  C    6.029186
    37  C    5.997096
    38  C    6.013785
    39  O    8.023577
    40  C    6.003558
    41  C    6.003204
    42  O    8.002176
    43  O    8.001939
    44  C    5.998557
    45  H    0.985338
    46  H    1.001361
    47  H    1.014854
    48  H    0.999191
    49  H    0.996506
    50  H    0.985147
    51  H    1.000538
    52  H    0.996776
    53  H    1.011069
    54  H    0.992813
    55  H    1.002246
    56  H    0.995664
    57  H    0.981827
    58  H    0.987231
    59  H    0.986279
    60  H    0.989918
    61  H    0.985682
    62  H    0.993057
    63  H    1.003687
    64  H    1.004142
    65  H    1.004930
    66  H    0.992574
    67  H    1.005139
    68  H    0.998247
    69  H    1.012425
    70  H    1.007124
    71  H    1.003897
    72  H    0.996008
    73  H    1.016589
    74  H    1.015392
    75  H    1.021212
    76  H    1.003524
    77  H    1.000420
    78  H    1.004973
    79  H    1.004720
    80  Mg  11.999952
    81  C    6.000103
    82  C    6.000004
    83  C    5.999881
    84  C    6.000034
    85  N    7.000078
    86  C    5.999875
    87  C    6.000034
    88  C    5.999944
    89  C    6.000057
    90  C    6.000010
    91  C    6.000019
    92  C    5.999997
    93  H    1.000029
    94  N    6.999974
    95  C    6.000132
    96  C    6.000109
    97  C    6.000022
    98  C    6.000159
    99  C    6.000002
   100  C    6.000059
   101  O    8.000099
   102  C    5.999991
   103  N    6.999920
   104  C    6.000183
   105  C    5.999964
   106  C    6.000037
   107  C    5.999916
   108  C    5.999979
   109  C    6.000038
   110  C    6.000000
   111  N    7.000013
   112  C    5.999877
   113  C    5.999881
   114  C    5.999971
   115  C    5.999864
   116  C    5.999981
   117  C    5.999985
   118  O    7.999868
   119  C    5.999931
   120  C    6.000000
   121  O    8.000010
   122  O    7.999969
   123  C    5.999992
   124  H    1.000054
   125  H    1.000022
   126  H    0.999938
   127  H    1.000019
   128  H    1.000002
   129  H    1.000051
   130  H    1.000025
   131  H    1.000013
   132  H    0.999945
   133  H    0.999986
   134  H    0.999960
   135  H    1.000013
   136  H    1.000059
   137  H    1.000078
   138  H    1.000089
   139  H    1.000001
   140  H    1.000067
   141  H    1.000042
   142  H    0.999986
   143  H    1.000004
   144  H    1.000017
   145  H    1.000057
   146  H    1.000018
   147  H    0.999976
   148  H    0.999929
   149  H    0.999962
   150  H    1.000030
   151  H    0.999972
   152  H    0.999912
   153  H    0.999915
   154  H    0.999948
   155  H    0.999953
   156  H    1.000017
   157  H    1.000010
   158  H    0.999987
 Sum of Mulliken charges = 624.00000

 Dipole moment (field-independent basis, Debye):
    X=              9.0044    Y=             -0.1499    Z=             -5.1876  Tot=             10.3929
 Quadrupole moment (field-independent basis, Debye-Ang):
   XX=           -445.8409   YY=              1.9827   ZZ=             -0.1234
   XY=             -2.7202   XZ=            132.2641   YZ=              4.9638

 Normal termination of Gaussian 16 at Fri Oct 15 01:56:48 2021.
