 Gaussian 16, Revision A.03,
 Gaussian 16:  ES64L-G16RevA.03 25-Dec-2016

 --------------------------------------------------------
 #p PBE1PBE/Def2SVP td=(nstates=5) density=(transition=1)
 --------------------------------------------------------

 --------------------------------
 TDDFT excited states in gaussian
 --------------------------------
 Symbolic Z-matrix:
 Charge =  0 Multiplicity = 1

                         Standard orientation:
 ---------------------------------------------------------------------
 Center     Atomic      Atomic             Coordinates (Angstroms)
 Number     Number       Type             X           Y           Z
 ---------------------------------------------------------------------
      1         12           0       -8.823888    0.186790   -0.018724
      2          6           0       -6.092748   -1.933073    0.333986
      3          6           0       -6.775998    2.608850   -1.154189
      4          6           0      -11.312945    2.441001    0.384092
      5          6           0      -10.731174   -2.075155    1.930536
      6          7           0       -6.732795    0.200541   -0.414389
      7          6           0       -5.770107   -0.784237   -0.369997
      8          6           0       -4.395553   -0.222383   -0.826520
      9          6           0       -4.647889    1.313778   -0.727993
     10          6           0       -6.159287    1.398011   -0.882681
     11          6           0       -4.194869    1.968504    0.624304
     12          6           0       -4.031016   -0.896776   -2.161775
     13          6           0       -2.611383   -1.305802   -2.269907
     14          1           0       -2.338203   -2.323735   -3.282479
     15          7           0       -9.049587    2.164491   -0.555344
     16          6           0       -8.083773    2.967493   -1.071947
     17          6           0       -8.712569    4.147712   -1.609697
     18          6           0      -10.078014    4.094479   -1.150501
     19          6           0      -10.173204    2.888328   -0.322968
     20          6           0       -7.978846    5.210058   -2.346913
     21          6           0      -11.248194    5.123934   -1.274716
     22          8           0      -12.375616    4.912532   -0.823368
     23          6           0      -11.098054    6.380589   -2.085792
     24          7           0      -10.614489    0.265913    1.323272
     25          6           0      -11.558101    1.316534    1.159624
     26          6           0      -12.860268    1.057178    1.842192
     27          6           0      -12.675022   -0.471402    2.112499
     28          6           0      -11.246411   -0.812215    1.696746
     29          6           0      -13.104187    1.934220    3.116769
     30          6           0      -13.691159   -1.373898    1.321607
     31          6           0      -13.775658   -1.112675   -0.203844
     32          7           0       -8.555919   -1.676013    0.858454
     33          6           0       -9.435856   -2.499687    1.577472
     34          6           0       -8.714608   -3.672720    1.903078
     35          6           0       -7.429066   -3.489293    1.409143
     36          6           0       -7.391135   -2.275142    0.806711
     37          6           0       -9.277441   -4.874265    2.593122
     38          6           0       -6.165710   -4.061954    1.376158
     39          8           0       -5.775107   -5.143906    1.851189
     40          6           0       -5.160183   -3.112911    0.657092
     41          6           0       -4.668052   -3.961006   -0.557037
     42          8           0       -5.358661   -4.281890   -1.540595
     43          8           0       -3.335235   -4.291976   -0.337860
     44          6           0       -2.700285   -5.312714   -1.230881
     45          1           0       -6.003259    3.334644   -1.416310
     46          1           0      -12.260870    2.973785    0.491148
     47          1           0      -11.325536   -2.891783    2.345772
     48          1           0       -3.607189   -0.559422   -0.154317
     49          1           0       -4.197600    1.804708   -1.590229
     50          1           0       -3.680597    1.312817    1.327523
     51          1           0       -5.060749    2.281270    1.206453
     52          1           0       -3.485760    2.766414    0.404793
     53          1           0       -4.152035   -0.124386   -2.920005
     54          1           0       -4.709481   -1.738683   -2.302176
     55          1           0       -2.362838   -1.756359   -1.308867
     56          1           0       -2.001181   -0.409431   -2.378929
     57          1           0       -7.025280    4.845111   -2.728049
     58          1           0       -7.985793    6.113495   -1.736187
     59          1           0       -8.535538    5.470558   -3.247166
     60          1           0      -11.826473    7.067876   -1.654909
     61          1           0      -11.376415    6.207065   -3.125521
     62          1           0      -10.105345    6.819576   -1.981466
     63          1           0      -13.730718    1.184135    1.197006
     64          1           0      -12.787673   -0.652660    3.181890
     65          1           0      -12.144973    2.305534    3.478521
     66          1           0      -13.580842    1.444324    3.965976
     67          1           0      -13.730003    2.816076    2.976719
     68          1           0      -14.646087   -1.264027    1.835836
     69          1           0      -13.361168   -2.385779    1.556536
     70          1           0      -13.528548   -1.994558   -0.795214
     71          1           0      -13.089304   -0.292924   -0.417862
     72          1           0      -14.770756   -0.804156   -0.522908
     73          1           0       -8.647803   -5.032710    3.468606
     74          1           0       -9.260988   -5.701443    1.883486
     75          1           0      -10.286924   -4.758238    2.987757
     76          1           0       -4.320093   -2.937655    1.328604
     77          1           0       -3.279930   -6.226615   -1.102885
     78          1           0       -1.653011   -5.558653   -1.055561
     79          1           0       -2.881632   -4.792406   -2.171398
     80         12           0        8.739480    0.407677    0.316849
     81          6           0        7.047310   -1.354394   -2.158039
     82          6           0        8.094401    3.312160   -1.464032
     83          6           0        9.823740    2.255928    2.833506
     84          6           0        8.880495   -2.470972    2.233101
     85          7           0        7.563183    0.944941   -1.490904
     86          6           0        7.077548    0.044950   -2.417225
     87          6           0        6.605077    0.705291   -3.678583
     88          6           0        7.302542    2.132760   -3.572902
     89          6           0        7.648567    2.180322   -2.090585
     90          6           0        8.431866    2.606120   -4.606174
     91          6           0        5.021239    0.712509   -3.896336
     92          6           0        4.116173    0.790472   -2.630943
     93          1           0        2.922979    1.704118   -2.776342
     94          7           0        8.830122    2.508973    0.701381
     95          6           0        8.523905    3.549515   -0.184466
     96          6           0        8.688165    4.835660    0.435606
     97          6           0        9.183128    4.558245    1.732191
     98          6           0        9.283787    3.072584    1.844597
     99          6           0        8.598320    6.112435   -0.401776
    100          6           0        9.544584    5.687142    2.724195
    101          8           0        9.329152    6.876673    2.470485
    102          6           0       10.212174    5.264549    3.964708
    103          7           0        9.146381   -0.087626    2.282183
    104          6           0        9.848309    0.836499    3.037676
    105          6           0       10.412693    0.240902    4.346280
    106          6           0        9.858327   -1.233623    4.183070
    107          6           0        9.219804   -1.272135    2.866325
    108          6           0       11.886331    0.288330    4.600415
    109          6           0        8.775490   -1.625876    5.310913
    110          6           0        9.062216   -2.987590    5.887979
    111          7           0        8.281051   -1.607857    0.052792
    112          6           0        8.396958   -2.668725    0.931782
    113          6           0        7.882088   -3.905127    0.300091
    114          6           0        7.335180   -3.426198   -0.941006
    115          6           0        7.606483   -2.054852   -1.012453
    116          6           0        7.659573   -5.248400    0.866618
    117          6           0        6.557825   -3.745741   -2.157303
    118          8           0        6.028306   -4.784735   -2.477441
    119          6           0        6.380693   -2.441214   -2.999128
    120          6           0        6.902743   -2.635064   -4.352419
    121          8           0        6.324529   -2.588715   -5.438483
    122          8           0        8.201224   -3.191980   -4.214547
    123          6           0        8.934036   -3.413813   -5.479491
    124          1           0        8.097732    4.151733   -2.163023
    125          1           0       10.376921    2.735162    3.643779
    126          1           0        9.042235   -3.331288    2.884993
    127          1           0        6.976101    0.164469   -4.549118
    128          1           0        6.439924    2.781705   -3.726181
    129          1           0        8.625644    1.931029   -5.439534
    130          1           0        9.420157    2.711685   -4.158884
    131          1           0        8.080167    3.488766   -5.141059
    132          1           0        4.717425   -0.123994   -4.524811
    133          1           0        4.810094    1.574952   -4.528516
    134          1           0        4.699329    1.084872   -1.757850
    135          1           0        3.707629   -0.195034   -2.409106
    136          1           0        8.234690    6.978031    0.152857
    137          1           0        7.846482    5.977152   -1.178856
    138          1           0        9.612748    6.308600   -0.749788
    139          1           0       11.218502    4.927472    3.717934
    140          1           0        9.620857    4.491179    4.455960
    141          1           0       10.262001    6.165025    4.576818
    142          1           0        9.822295    0.646570    5.168174
    143          1           0       10.774000   -1.815012    4.075406
    144          1           0       12.059874   -0.364611    5.455940
    145          1           0       12.115276    1.292655    4.956860
    146          1           0       12.438627    0.019750    3.699115
    147          1           0        7.798249   -1.559231    4.832904
    148          1           0        8.628599   -0.916577    6.126401
    149          1           0        8.273177   -3.662287    5.556730
    150          1           0        8.888644   -3.027590    6.963841
    151          1           0        9.990408   -3.377424    5.470638
    152          1           0        7.958437   -5.381036    1.907484
    153          1           0        8.290067   -5.922580    0.287952
    154          1           0        6.570181   -5.278493    0.870509
    155          1           0        5.304715   -2.268803   -3.008994
    156          1           0        9.922773   -3.022784   -5.236777
    157          1           0        8.604762   -2.950197   -6.409447
    158          1           0        9.099361   -4.490967   -5.508650
 ---------------------------------------------------------------------

 SCF Done:  E(RPBE1PBE) =  -4067.38266630     A.U. after   16 cycles

 Excitation energies and oscillator strengths:

 Excited State   1:      Singlet-A      1.8132 eV  683.78 nm  f=0.0000  <S**2>=0.000
     312 -> 314        0.70708
 This state for optimization and/or second-order correction.
 Total Energy, E(TD-HF/TD-DFT) =  -4067.31603222
 Copying the excited state density for this state as the 1-particle RhoCI density.

 Excited State   2:      Singlet-A      1.8230 eV  680.12 nm  f=0.2857  <S**2>=0.000
     310 -> 316        0.15310
     312 -> 313        0.69285
     312 <- 313       -0.11679

 Excited State   3:      Singlet-A      1.8713 eV  662.54 nm  f=0.4125  <S**2>=0.000
     309 -> 315       -0.17619
     311 -> 314        0.68597
     311 <- 314       -0.10348

 Excited State   4:      Singlet-A      1.8887 eV  656.45 nm  f=0.0000  <S**2>=0.000
     311 -> 313        0.70710

 Excited State   5:      Singlet-A      2.2139 eV  560.01 nm  f=0.0929  <S**2>=0.000
     309 -> 314        0.64120
     311 -> 315        0.27282

 The electronic state is 1-A.
 Alpha  occ. eigenvalues --  -46.92597 -46.91559 -19.25126 -19.25114 -19.20867
 Alpha  occ. eigenvalues --  -19.19981 -19.19271 -19.19215 -19.18861 -19.17690
 Alpha  occ. eigenvalues --  -14.41860 -14.41778 -14.41387 -14.40778 -14.39346
 Alpha  occ. eigenvalues --  -14.38987 -14.38878 -14.38000 -10.36844 -10.36826
 Alpha  occ. eigenvalues --  -10.32459 -10.32338 -10.32268 -10.30558 -10.29422
 Alpha  occ. eigenvalues --  -10.29076 -10.28829 -10.28612 -10.28492 -10.28375
 Alpha  occ. eigenvalues --  -10.28350 -10.28205 -10.28046 -10.27998 -10.27986
 Alpha  occ. eigenvalues --  -10.27858 -10.27720 -10.27028 -10.26822 -10.26801
 Alpha  occ. eigenvalues --  -10.26796 -10.26566 -10.26473 -10.26400 -10.26173
 Alpha  occ. eigenvalues --  -10.26142 -10.26098 -10.25951 -10.25947 -10.25864
 Alpha  occ. eigenvalues --  -10.25837 -10.25737 -10.25639 -10.25608 -10.25505
 Alpha  occ. eigenvalues --  -10.25343 -10.25269 -10.25051 -10.25017 -10.24909
 Alpha  occ. eigenvalues --  -10.24858 -10.24845 -10.24842 -10.24719 -10.24718
 Alpha  occ. eigenvalues --  -10.24717 -10.24489 -10.24454 -10.24341 -10.24125
 Alpha  occ. eigenvalues --  -10.24031 -10.23901 -10.23768 -10.23730 -10.23720
 Alpha  occ. eigenvalues --  -10.23456 -10.23446 -10.23360 -10.23319 -10.23249
 Alpha  occ. eigenvalues --  -10.23244 -10.23117 -10.23051 -10.22960 -10.22859
 Alpha  occ. eigenvalues --  -10.21231  -3.14703  -3.13733  -1.87528  -1.87093
 Alpha  occ. eigenvalues --   -1.86918  -1.86553  -1.86110  -1.85958  -1.09643
 Alpha  occ. eigenvalues --   -1.08878  -1.05294  -1.04124  -1.04102  -1.02440
 Alpha  occ. eigenvalues --   -1.01828  -1.01188  -0.99781  -0.99289  -0.98464
 Alpha  occ. eigenvalues --   -0.98447  -0.98015  -0.97949  -0.97070  -0.96686
 Alpha  occ. eigenvalues --   -0.86932  -0.86715  -0.84027  -0.83617  -0.83307
 Alpha  occ. eigenvalues --   -0.83089  -0.82758  -0.82396  -0.82073  -0.81964
 Alpha  occ. eigenvalues --   -0.81342  -0.81285  -0.80697  -0.80536  -0.79126
 Alpha  occ. eigenvalues --   -0.78854  -0.78698  -0.77633  -0.77044  -0.76705
 Alpha  occ. eigenvalues --   -0.76301  -0.75663  -0.75294  -0.75044  -0.74613
 Alpha  occ. eigenvalues --   -0.74536  -0.72765  -0.72408  -0.71883  -0.71225
 Alpha  occ. eigenvalues --   -0.71213  -0.71010  -0.70608  -0.70198  -0.70128
 Alpha  occ. eigenvalues --   -0.69668  -0.67521  -0.67213  -0.66686  -0.66311
 Alpha  occ. eigenvalues --   -0.63990  -0.63877  -0.63737  -0.63016  -0.62695
 Alpha  occ. eigenvalues --   -0.61794  -0.61358  -0.60948  -0.60758  -0.59686
 Alpha  occ. eigenvalues --   -0.59478  -0.59185  -0.58903  -0.58833  -0.58663
 Alpha  occ. eigenvalues --   -0.58400  -0.57174  -0.55927  -0.54886  -0.54312
 Alpha  occ. eigenvalues --   -0.54140  -0.54082  -0.53640  -0.53593  -0.53000
 Alpha  occ. eigenvalues --   -0.52946  -0.52229  -0.52015  -0.51874  -0.51130
 Alpha  occ. eigenvalues --   -0.50985  -0.50447  -0.50416  -0.50008  -0.49971
 Alpha  occ. eigenvalues --   -0.49738  -0.49734  -0.49248  -0.49231  -0.49050
 Alpha  occ. eigenvalues --   -0.48481  -0.47834  -0.47696  -0.47478  -0.47366
 Alpha  occ. eigenvalues --   -0.47345  -0.47231  -0.47120  -0.46838  -0.46808
 Alpha  occ. eigenvalues --   -0.46580  -0.46352  -0.46336  -0.45932  -0.45872
 Alpha  occ. eigenvalues --   -0.45814  -0.45477  -0.45187  -0.44915  -0.44888
 Alpha  occ. eigenvalues --   -0.44799  -0.44386  -0.44316  -0.43986  -0.43913
 Alpha  occ. eigenvalues --   -0.43884  -0.43685  -0.43608  -0.43414  -0.43284
 Alpha  occ. eigenvalues --   -0.43196  -0.43016  -0.43008  -0.42888  -0.42570
 Alpha  occ. eigenvalues --   -0.42519  -0.42515  -0.42181  -0.42001  -0.41897
 Alpha  occ. eigenvalues --   -0.41742  -0.41511  -0.41347  -0.41140  -0.41094
 Alpha  occ. eigenvalues --   -0.41040  -0.40849  -0.40575  -0.40526  -0.40394
 Alpha  occ. eigenvalues --   -0.40252  -0.40109  -0.39982  -0.39882  -0.39820
 Alpha  occ. eigenvalues --   -0.39618  -0.39522  -0.39213  -0.38998  -0.38832
 Alpha  occ. eigenvalues --   -0.38790  -0.38364  -0.38337  -0.38163  -0.38052
 Alpha  occ. eigenvalues --   -0.38042  -0.37944  -0.37790  -0.37782  -0.37672
 Alpha  occ. eigenvalues --   -0.37438  -0.37433  -0.37103  -0.36935  -0.36887
 Alpha  occ. eigenvalues --   -0.36692  -0.36620  -0.36607  -0.36408  -0.36218
 Alpha  occ. eigenvalues --   -0.36217  -0.35805  -0.35625  -0.35471  -0.35231
 Alpha  occ. eigenvalues --   -0.34940  -0.34937  -0.34658  -0.34197  -0.33777
 Alpha  occ. eigenvalues --   -0.33629  -0.33075  -0.33055  -0.32806  -0.32541
 Alpha  occ. eigenvalues --   -0.32246  -0.32047  -0.31763  -0.31738  -0.31438
 Alpha  occ. eigenvalues --   -0.30727  -0.30663  -0.30412  -0.29816  -0.29144
 Alpha  occ. eigenvalues --   -0.28991  -0.28909  -0.28514  -0.27020  -0.26831
 Alpha  occ. eigenvalues --   -0.25985  -0.25858  -0.25633  -0.25522  -0.25443
 Alpha  occ. eigenvalues --   -0.25158  -0.24881  -0.24620  -0.21106  -0.21004
 Alpha  occ. eigenvalues --   -0.18970  -0.18688
 Alpha virt. eigenvalues --   -0.11270  -0.11265  -0.05812  -0.04982  -0.03641
 Alpha virt. eigenvalues --   -0.03508  -0.02059  -0.01854  -0.01208  -0.00610
 Alpha virt. eigenvalues --   -0.00353   0.00609   0.00689   0.00898   0.01786

 Mulliken charges:
               1
     1  Mg  12.000000
     2  C    5.999995
     3  C    6.000001
     4  C    6.000007
     5  C    6.000003
     6  N    6.999996
     7  C    6.000007
     8  C    5.999999
     9  C    6.000002
    10  C    5.999995
    11  C    6.000001
    12  C    5.999998
    13  C    6.000000
    14  H    1.000000
    15  N    7.000001
    16  C    5.999992
    17  C    5.999996
    18  C    5.999997
    19  C    5.999992
    20  C    6.000001
    21  C    5.999997
    22  O    7.999994
    23  C    6.000001
    24  N    7.000004
    25  C    5.999991
    26  C    6.000003
    27  C    5.999998
    28  C    6.000004
    29  C    6.000000
    30  C    5.999998
    31  C    5.999999
    32  N    7.000000
    33  C    6.000006
    34  C    6.000006
    35  C    6.000000
    36  C    6.000006
    37  C    5.999999
    38  C    6.000003
    39  O    8.000006
    40  C    6.000001
    41  C    6.000001
    42  O    8.000001
    43  O    8.000000
    44  C    6.000000
    45  H    0.999997
    46  H    0.999999
    47  H    1.000003
    48  H    1.000000
    49  H    1.000000
    50  H    0.999997
    51  H    1.000000
    52  H    0.999999
    53  H    1.000002
    54  H    0.999999
    55  H    0.999999
    56  H    1.000001
    57  H    0.999997
    58  H    0.999996
    59  H    0.999996
    60  H    0.999997
    61  H    0.999998
    62  H    0.999999
    63  H    1.000000
    64  H    1.000001
    65  H    1.000000
    66  H    0.999998
    67  H    1.000001
    68  H    1.000002
    69  H    0.999999
    70  H    0.999999
    71  H    1.000003
    72  H    1.000001
    73  H    1.000004
    74  H    1.000004
    75  H    1.000003
    76  H    1.000002
    77  H    1.000000
    78  H    1.000001
    79  H    1.000001
    80  Mg  12.000000
    81  C    6.000000
    82  C    6.000000
    83  C    6.000000
    84  C    6.000000
    85  N    7.000000
    86  C    6.000000
    87  C    6.000000
    88  C    6.000000
    89  C    6.000000
    90  C    6.000000
    91  C    6.000000
    92  C    6.000000
    93  H    1.000001
    94  N    7.000000
    95  C    6.000000
    96  C    6.000000
    97  C    6.000000
    98  C    6.000000
    99  C    6.000000
   100  C    6.000000
   101  O    8.000000
   102  C    6.000000
   103  N    7.000000
   104  C    6.000000
   105  C    6.000000
   106  C    6.000000
   107  C    6.000000
   108  C    6.000000
   109  C    6.000000
   110  C    6.000000
   111  N    7.000000
   112  C    5.999999
   113  C    6.000000
   114  C    6.000000
   115  C    6.000000
   116  C    6.000000
   117  C    6.000000
   118  O    8.000000
   119  C    6.000000
   120  C    6.000000
   121  O    8.000000
   122  O    8.000000
   123  C    6.000000
   124  H    1.000000
   125  H    1.000000
   126  H    1.000000
   127  H    1.000000
   128  H    1.000000
   129  H    1.000000
   130  H    1.000000
   131  H    1.000000
   132  H    1.000000
   133  H    1.000000
   134  H    1.000000
   135  H    1.000000
   136  H    1.000000
   137  H    1.000000
   138  H    1.000000
   139  H    1.000000
   140  H    1.000000
   141  H    1.000000
   142  H    1.000000
   143  H    1.000000
   144  H    1.000000
   145  H    1.000000
   146  H    1.000000
   147  H    1.000000
   148  H    1.000000
   149  H    1.000000
   150  H    1.000000
   151  H    1.000000
   152  H    1.000000
   153  H    1.000000
   154  H    1.000000
   155  H    1.000000
   156  H    1.000000
   157  H    1.000000
   158  H    1.000000
 Sum of Mulliken charges = 624.00000

 Dipole moment (field-independent basis, Debye):
    X=              0.0001    Y=             -0.0018    Z=              0.0007  Tot=              0.0020
 Quadrupole moment (field-independent basis, Debye-Ang):
   XX=             -0.0011   YY=             -0.0009   ZZ=              0.0003
   XY=              0.0188   XZ=             -0.0068   YZ=             -0.0000

 Normal termination of Gaussian 16 at Thu Oct 14 16:08:38 2021.
