 Gaussian 16, Revision A.03,
 Gaussian 16:  ES64L-G16RevA.03 25-Dec-2016

 --------------------------------------------------------
 #p PBE1PBE/Def2SVP td=(nstates=5) density=(transition=1)
 --------------------------------------------------------

 --------------------------------
 TDDFT excited states in gaussian
 --------------------------------
 Symbolic Z-matrix:
 Charge =  0 Multiplicity = 1

                         Standard orientation:
 ---------------------------------------------------------------------
 Center     Atomic      Atomic             Coordinates (Angstroms)
 Number     Number       Type             X           Y           Z
 ---------------------------------------------------------------------
      1         12           0       17.051923   -0.466005    0.380642
      2          6           0       15.592045    2.010913   -1.467483
      3          6           0       18.389527    1.765580    2.462264
      4          6           0       18.540421   -2.952899    1.871370
      5          6           0       16.079253   -2.685440   -2.232895
      6          7           0       17.142857    1.702311    0.395069
      7          6           0       16.255577    2.460290   -0.296464
      8          6           0       16.102790    3.831729    0.302271
      9          6           0       17.240825    3.804648    1.399967
     10          6           0       17.695147    2.361220    1.383103
     11          6           0       18.368287    4.843238    1.187545
     12          6           0       14.576406    4.183036    0.816203
     13          6           0       13.964064    5.537139    0.426732
     14          1           0       14.959111    6.693454    0.095497
     15          7           0       18.103895   -0.592116    1.983324
     16          6           0       18.598021    0.411203    2.754615
     17          6           0       19.482523   -0.053502    3.795256
     18          6           0       19.372318   -1.410850    3.763522
     19          6           0       18.747820   -1.696537    2.434529
     20          6           0       20.258482    0.998270    4.566770
     21          6           0       19.961034   -2.451433    4.736774
     22          8           0       19.860609   -3.647534    4.591933
     23          6           0       20.716860   -1.850057    5.884664
     24          7           0       17.402061   -2.502624   -0.239885
     25          6           0       17.953120   -3.326189    0.669861
     26          6           0       17.906915   -4.780312    0.190132
     27          6           0       16.845314   -4.734614   -0.960818
     28          6           0       16.775260   -3.211720   -1.195632
     29          6           0       19.266984   -5.477036   -0.241743
     30          6           0       15.408939   -5.277657   -0.610022
     31          6           0       14.569336   -4.705567    0.501742
     32          7           0       15.972586   -0.467313   -1.454110
     33          6           0       15.722740   -1.401298   -2.464752
     34          6           0       14.967112   -0.807649   -3.575150
     35          6           0       14.882488    0.546656   -3.218871
     36          6           0       15.505546    0.659395   -1.936182
     37          6           0       14.370822   -1.497227   -4.775335
     38          6           0       14.432133    1.804696   -3.605845
     39          8           0       13.879082    2.220261   -4.612094
     40          6           0       14.653130    2.758776   -2.403576
     41          6           0       15.255736    3.948738   -3.046967
     42          8           0       16.437913    4.059943   -3.380606
     43          8           0       14.306958    4.885970   -3.337004
     44          6           0       14.640849    5.996308   -4.234654
     45          1           0       18.646381    2.501080    3.227751
     46          1           0       18.964203   -3.840804    2.343611
     47          1           0       15.812324   -3.481461   -2.932224
     48          1           0       16.419684    4.597469   -0.405852
     49          1           0       16.787001    3.952095    2.379728
     50          1           0       19.245700    4.333961    0.789132
     51          1           0       18.631516    5.269284    2.155698
     52          1           0       17.983478    5.576400    0.478573
     53          1           0       14.630282    4.114003    1.902748
     54          1           0       13.865827    3.455119    0.425925
     55          1           0       13.405860    5.952538    1.265329
     56          1           0       13.227490    5.394770   -0.363931
     57          1           0       20.936649    1.606313    3.967839
     58          1           0       21.028273    0.704642    5.280176
     59          1           0       19.445528    1.528335    5.063034
     60          1           0       20.087386   -1.152402    6.436554
     61          1           0       21.595897   -1.445845    5.383088
     62          1           0       21.046040   -2.499417    6.695095
     63          1           0       17.572432   -5.296121    1.090928
     64          1           0       17.281209   -5.181300   -1.854720
     65          1           0       20.090282   -4.774611   -0.114069
     66          1           0       19.276646   -5.673381   -1.313213
     67          1           0       19.505479   -6.423304    0.246235
     68          1           0       15.655039   -6.323440   -0.424204
     69          1           0       14.731226   -5.228546   -1.461714
     70          1           0       15.168513   -4.008383    1.088880
     71          1           0       14.250985   -5.493482    1.184173
     72          1           0       13.705994   -4.111626    0.202449
     73          1           0       14.913215   -1.276442   -5.693595
     74          1           0       13.325840   -1.206862   -4.885285
     75          1           0       14.543143   -2.552051   -4.559974
     76          1           0       13.728228    2.946835   -1.858024
     77          1           0       13.760793    6.397121   -4.738982
     78          1           0       15.485404    5.759496   -4.879954
     79          1           0       15.075717    6.844582   -3.706366
     80         12           0      -16.507174   -0.942212   -0.109778
     81          6           0      -18.650902    1.828089    0.970620
     82          6           0      -13.899404    1.395456   -0.213588
     83          6           0      -14.619915   -3.260581   -1.410163
     84          6           0      -19.161332   -3.085822    0.239948
     85          7           0      -16.347859    1.352260    0.121782
     86          6           0      -17.313687    2.282196    0.693883
     87          6           0      -16.785818    3.727113    0.823439
     88          6           0      -15.282284    3.513686    0.211610
     89          6           0      -15.124429    1.995798   -0.004403
     90          6           0      -15.011250    4.323275   -1.041553
     91          6           0      -16.898112    4.222740    2.296961
     92          6           0      -16.151974    5.485135    2.608609
     93          1           0      -16.811603    6.561171    3.442100
     94          7           0      -14.507523   -0.959580   -0.767334
     95          6           0      -13.584821    0.091798   -0.724787
     96          6           0      -12.289287   -0.370094   -1.219694
     97          6           0      -12.471117   -1.767710   -1.581002
     98          6           0      -13.911896   -2.090763   -1.266520
     99          6           0      -10.972393    0.489524   -1.237987
    100          6           0      -11.542165   -2.755227   -2.189974
    101          8           0      -11.814259   -3.926324   -2.418544
    102          6           0      -10.142301   -2.383817   -2.456065
    103          7           0      -16.798698   -2.859168   -0.431207
    104          6           0      -15.921398   -3.613956   -1.095239
    105          6           0      -16.414617   -5.065978   -1.296954
    106          6           0      -17.629256   -5.087280   -0.392389
    107          6           0      -17.949318   -3.552409   -0.215305
    108          6           0      -16.745166   -5.393494   -2.748505
    109          6           0      -17.642108   -5.781244    0.945024
    110          6           0      -16.674316   -5.203769    1.955681
    111          7           0      -18.518725   -0.713326    0.379123
    112          6           0      -19.463751   -1.736468    0.575491
    113          6           0      -20.711540   -1.144975    0.991443
    114          6           0      -20.352044    0.210196    1.207857
    115          6           0      -19.020526    0.441697    0.813255
    116          6           0      -22.004776   -1.826537    1.331384
    117          6           0      -20.932355    1.481717    1.740382
    118          8           0      -22.027847    1.711888    2.295774
    119          6           0      -19.845754    2.539131    1.558441
    120          6           0      -20.385927    3.708335    0.732313
    121          8           0      -20.784594    3.745644   -0.469166
    122          8           0      -20.235629    4.831125    1.491335
    123          6           0      -20.623759    6.103152    0.840829
    124          1           0      -13.056969    2.069459   -0.050715
    125          1           0      -14.026571   -4.033870   -1.902428
    126          1           0      -20.055319   -3.703583    0.348783
    127          1           0      -17.481726    4.334553    0.244869
    128          1           0      -14.552420    3.720920    0.994230
    129          1           0      -14.154504    4.971549   -0.855415
    130          1           0      -15.896438    4.936592   -1.206249
    131          1           0      -15.022656    3.795832   -1.995129
    132          1           0      -16.647202    3.358930    2.913549
    133          1           0      -17.949611    4.403019    2.520791
    134          1           0      -15.837279    6.095828    1.762683
    135          1           0      -15.283411    5.244204    3.220837
    136          1           0      -10.290305   -0.038497   -0.570988
    137          1           0      -11.110678    1.503941   -0.864215
    138          1           0      -10.626017    0.489236   -2.271566
    139          1           0      -10.025362   -1.397186   -2.904853
    140          1           0       -9.806699   -3.146588   -3.157789
    141          1           0       -9.709255   -2.282700   -1.461368
    142          1           0      -15.607604   -5.723120   -0.972727
    143          1           0      -18.483943   -5.571459   -0.865647
    144          1           0      -16.391049   -6.401056   -2.963423
    145          1           0      -16.253778   -4.701282   -3.431400
    146          1           0      -17.824809   -5.474167   -2.879881
    147          1           0      -17.501409   -6.848009    0.768754
    148          1           0      -18.589870   -5.620766    1.458659
    149          1           0      -16.107848   -5.980077    2.468724
    150          1           0      -17.176449   -4.668778    2.762061
    151          1           0      -15.928840   -4.531349    1.530974
    152          1           0      -22.339713   -1.503672    2.316816
    153          1           0      -22.075040   -2.914170    1.344008
    154          1           0      -22.736256   -1.499566    0.592084
    155          1           0      -19.618806    2.962240    2.537414
    156          1           0      -19.733225    6.621416    0.485833
    157          1           0      -21.164524    6.554702    1.672573
    158          1           0      -21.375334    5.961380    0.063151
 ---------------------------------------------------------------------

 SCF Done:  E(RPBE1PBE) =  -4067.37952837     A.U. after   16 cycles

 Excitation energies and oscillator strengths:

 Excited State   1:      Singlet-A      1.6904 eV  733.46 nm  f=0.0000  <S**2>=0.000
     312 -> 313        0.70710
 This state for optimization and/or second-order correction.
 Total Energy, E(TD-HF/TD-DFT) =  -4067.31740748
 Copying the excited state density for this state as the 1-particle RhoCI density.

 Excited State   2:      Singlet-A      1.8175 eV  682.18 nm  f=0.3916  <S**2>=0.000
     309 -> 316       -0.16216
     311 -> 313        0.69589
     311 <- 313       -0.11402

 Excited State   3:      Singlet-A      1.8950 eV  654.25 nm  f=0.3609  <S**2>=0.000
     310 -> 315        0.18692
     312 -> 314        0.68799

 Excited State   4:      Singlet-A      2.1799 eV  568.76 nm  f=0.1273  <S**2>=0.000
     309 -> 313        0.66142
     311 -> 316        0.23374

 Excited State   5:      Singlet-A      2.2421 eV  552.99 nm  f=0.0000  <S**2>=0.000
     311 -> 314        0.70710

 The electronic state is 1-A.
 Alpha  occ. eigenvalues --  -46.91403 -46.91174 -19.26524 -19.24664 -19.20020
 Alpha  occ. eigenvalues --  -19.19968 -19.18912 -19.18782 -19.18687 -19.18136
 Alpha  occ. eigenvalues --  -14.42097 -14.41669 -14.41219 -14.40606 -14.39579
 Alpha  occ. eigenvalues --  -14.39530 -14.38684 -14.38534 -10.37105 -10.35367
 Alpha  occ. eigenvalues --  -10.32939 -10.31999 -10.31620 -10.30870 -10.29924
 Alpha  occ. eigenvalues --  -10.29218 -10.29058 -10.28805 -10.28660 -10.28585
 Alpha  occ. eigenvalues --  -10.28360 -10.28334 -10.28154 -10.28122 -10.27974
 Alpha  occ. eigenvalues --  -10.27871 -10.27864 -10.27559 -10.27325 -10.26972
 Alpha  occ. eigenvalues --  -10.26845 -10.26813 -10.26772 -10.26596 -10.26581
 Alpha  occ. eigenvalues --  -10.26567 -10.26473 -10.26337 -10.26334 -10.25982
 Alpha  occ. eigenvalues --  -10.25826 -10.25781 -10.25744 -10.25718 -10.25529
 Alpha  occ. eigenvalues --  -10.25487 -10.25469 -10.25450 -10.25318 -10.25283
 Alpha  occ. eigenvalues --  -10.25174 -10.25136 -10.25104 -10.25082 -10.25051
 Alpha  occ. eigenvalues --  -10.24854 -10.24716 -10.24481 -10.24126 -10.24017
 Alpha  occ. eigenvalues --  -10.23700 -10.23692 -10.23560 -10.23557 -10.23525
 Alpha  occ. eigenvalues --  -10.23510 -10.23346 -10.23269 -10.23175 -10.23071
 Alpha  occ. eigenvalues --  -10.22928 -10.22771 -10.22734 -10.22692 -10.22062
 Alpha  occ. eigenvalues --  -10.21990  -3.13830  -3.13491  -1.86637  -1.86338
 Alpha  occ. eigenvalues --   -1.86220  -1.86087  -1.85878  -1.85716  -1.10883
 Alpha  occ. eigenvalues --   -1.09707  -1.06117  -1.04906  -1.03964  -1.02708
 Alpha  occ. eigenvalues --   -1.00829  -1.00666  -1.00185  -0.99671  -0.99320
 Alpha  occ. eigenvalues --   -0.98883  -0.97826  -0.97715  -0.96737  -0.95165
 Alpha  occ. eigenvalues --   -0.86864  -0.86777  -0.84004  -0.83836  -0.83138
 Alpha  occ. eigenvalues --   -0.82962  -0.82735  -0.82321  -0.82290  -0.81862
 Alpha  occ. eigenvalues --   -0.81629  -0.81089  -0.81060  -0.80349  -0.79027
 Alpha  occ. eigenvalues --   -0.78682  -0.78417  -0.77940  -0.77233  -0.76918
 Alpha  occ. eigenvalues --   -0.76763  -0.76315  -0.75822  -0.75448  -0.74871
 Alpha  occ. eigenvalues --   -0.74414  -0.73255  -0.72671  -0.71899  -0.71631
 Alpha  occ. eigenvalues --   -0.71363  -0.71215  -0.70338  -0.70077  -0.69818
 Alpha  occ. eigenvalues --   -0.69588  -0.67305  -0.67198  -0.66340  -0.66159
 Alpha  occ. eigenvalues --   -0.64598  -0.64041  -0.63828  -0.63478  -0.62680
 Alpha  occ. eigenvalues --   -0.62067  -0.61707  -0.61637  -0.59885  -0.59594
 Alpha  occ. eigenvalues --   -0.59521  -0.59300  -0.59241  -0.58765  -0.58390
 Alpha  occ. eigenvalues --   -0.58385  -0.56593  -0.56401  -0.55587  -0.54678
 Alpha  occ. eigenvalues --   -0.53965  -0.53857  -0.53805  -0.53719  -0.52925
 Alpha  occ. eigenvalues --   -0.52623  -0.52426  -0.52296  -0.52171  -0.51958
 Alpha  occ. eigenvalues --   -0.50883  -0.50826  -0.50462  -0.49997  -0.49919
 Alpha  occ. eigenvalues --   -0.49797  -0.49672  -0.49363  -0.49219  -0.48956
 Alpha  occ. eigenvalues --   -0.48771  -0.48263  -0.47868  -0.47863  -0.47503
 Alpha  occ. eigenvalues --   -0.47355  -0.47352  -0.47091  -0.47091  -0.46932
 Alpha  occ. eigenvalues --   -0.46875  -0.46817  -0.46196  -0.45871  -0.45833
 Alpha  occ. eigenvalues --   -0.45428  -0.45293  -0.45176  -0.45026  -0.45011
 Alpha  occ. eigenvalues --   -0.44890  -0.44819  -0.44505  -0.44046  -0.43976
 Alpha  occ. eigenvalues --   -0.43950  -0.43777  -0.43522  -0.43487  -0.43456
 Alpha  occ. eigenvalues --   -0.43229  -0.43196  -0.42948  -0.42770  -0.42762
 Alpha  occ. eigenvalues --   -0.42707  -0.42435  -0.42431  -0.42168  -0.41900
 Alpha  occ. eigenvalues --   -0.41744  -0.41537  -0.41493  -0.41394  -0.41338
 Alpha  occ. eigenvalues --   -0.41289  -0.40913  -0.40715  -0.40571  -0.40506
 Alpha  occ. eigenvalues --   -0.40298  -0.40210  -0.40095  -0.39716  -0.39704
 Alpha  occ. eigenvalues --   -0.39323  -0.39262  -0.39156  -0.39097  -0.38924
 Alpha  occ. eigenvalues --   -0.38853  -0.38762  -0.38663  -0.38370  -0.38155
 Alpha  occ. eigenvalues --   -0.37981  -0.37919  -0.37796  -0.37730  -0.37489
 Alpha  occ. eigenvalues --   -0.37362  -0.37256  -0.37108  -0.37057  -0.36810
 Alpha  occ. eigenvalues --   -0.36701  -0.36492  -0.36470  -0.36134  -0.36092
 Alpha  occ. eigenvalues --   -0.35968  -0.35745  -0.35684  -0.35465  -0.35366
 Alpha  occ. eigenvalues --   -0.34858  -0.34534  -0.34212  -0.34200  -0.34011
 Alpha  occ. eigenvalues --   -0.33859  -0.33512  -0.33230  -0.32344  -0.32187
 Alpha  occ. eigenvalues --   -0.32123  -0.31827  -0.31595  -0.31551  -0.31424
 Alpha  occ. eigenvalues --   -0.31197  -0.30166  -0.29624  -0.29544  -0.29141
 Alpha  occ. eigenvalues --   -0.28775  -0.28628  -0.27915  -0.27726  -0.27090
 Alpha  occ. eigenvalues --   -0.26400  -0.26177  -0.25863  -0.25793  -0.25571
 Alpha  occ. eigenvalues --   -0.25396  -0.25169  -0.25025  -0.21172  -0.20718
 Alpha  occ. eigenvalues --   -0.19117  -0.18320
 Alpha virt. eigenvalues --   -0.11707  -0.10489  -0.05271  -0.05245  -0.03974
 Alpha virt. eigenvalues --   -0.03883  -0.02214  -0.01912  -0.00336  -0.00106
 Alpha virt. eigenvalues --    0.00081   0.00895   0.01459   0.01616   0.01932

 Mulliken charges:
               1
     1  Mg  12.000000
     2  C    6.000000
     3  C    6.000000
     4  C    6.000000
     5  C    6.000000
     6  N    7.000000
     7  C    6.000000
     8  C    6.000000
     9  C    6.000000
    10  C    6.000000
    11  C    6.000000
    12  C    6.000000
    13  C    6.000000
    14  H    1.000000
    15  N    7.000000
    16  C    6.000000
    17  C    6.000000
    18  C    6.000000
    19  C    6.000000
    20  C    6.000000
    21  C    6.000000
    22  O    8.000000
    23  C    6.000000
    24  N    7.000000
    25  C    6.000000
    26  C    6.000000
    27  C    6.000000
    28  C    6.000000
    29  C    6.000000
    30  C    6.000000
    31  C    6.000000
    32  N    7.000000
    33  C    6.000000
    34  C    6.000000
    35  C    6.000000
    36  C    6.000000
    37  C    6.000000
    38  C    6.000000
    39  O    8.000000
    40  C    6.000000
    41  C    6.000000
    42  O    8.000000
    43  O    8.000000
    44  C    6.000000
    45  H    1.000000
    46  H    1.000000
    47  H    1.000000
    48  H    1.000000
    49  H    1.000000
    50  H    1.000000
    51  H    1.000000
    52  H    1.000000
    53  H    1.000000
    54  H    1.000000
    55  H    1.000000
    56  H    1.000000
    57  H    1.000000
    58  H    1.000000
    59  H    1.000000
    60  H    1.000000
    61  H    1.000000
    62  H    1.000000
    63  H    1.000000
    64  H    1.000000
    65  H    1.000000
    66  H    1.000000
    67  H    1.000000
    68  H    1.000000
    69  H    1.000000
    70  H    1.000000
    71  H    1.000000
    72  H    1.000000
    73  H    1.000000
    74  H    1.000000
    75  H    1.000000
    76  H    1.000000
    77  H    1.000000
    78  H    1.000000
    79  H    1.000000
    80  Mg  12.000000
    81  C    6.000000
    82  C    6.000000
    83  C    6.000000
    84  C    6.000000
    85  N    7.000000
    86  C    6.000000
    87  C    6.000000
    88  C    6.000000
    89  C    6.000000
    90  C    6.000000
    91  C    6.000000
    92  C    6.000000
    93  H    1.000000
    94  N    7.000000
    95  C    6.000000
    96  C    6.000000
    97  C    6.000000
    98  C    6.000000
    99  C    6.000000
   100  C    6.000000
   101  O    8.000000
   102  C    6.000000
   103  N    7.000000
   104  C    6.000000
   105  C    6.000000
   106  C    6.000000
   107  C    6.000000
   108  C    6.000000
   109  C    6.000000
   110  C    6.000000
   111  N    7.000000
   112  C    6.000000
   113  C    6.000000
   114  C    6.000000
   115  C    6.000000
   116  C    6.000000
   117  C    6.000000
   118  O    8.000000
   119  C    6.000000
   120  C    6.000000
   121  O    8.000000
   122  O    8.000000
   123  C    6.000000
   124  H    1.000000
   125  H    1.000000
   126  H    1.000000
   127  H    1.000000
   128  H    1.000000
   129  H    1.000000
   130  H    1.000000
   131  H    1.000000
   132  H    1.000000
   133  H    1.000000
   134  H    1.000000
   135  H    1.000000
   136  H    1.000000
   137  H    1.000000
   138  H    1.000000
   139  H    1.000000
   140  H    1.000000
   141  H    1.000000
   142  H    1.000000
   143  H    1.000000
   144  H    1.000000
   145  H    1.000000
   146  H    1.000000
   147  H    1.000000
   148  H    1.000000
   149  H    1.000000
   150  H    1.000000
   151  H    1.000000
   152  H    1.000000
   153  H    1.000000
   154  H    1.000000
   155  H    1.000000
   156  H    1.000000
   157  H    1.000000
   158  H    1.000000
 Sum of Mulliken charges = 624.00000

 Dipole moment (field-independent basis, Debye):
    X=              0.0000    Y=              0.0000    Z=             -0.0000  Tot=              0.0000
 Quadrupole moment (field-independent basis, Debye-Ang):
   XX=             -0.0000   YY=             -0.0000   ZZ=              0.0000
   XY=              0.0000   XZ=              0.0000   YZ=              0.0000

 Normal termination of Gaussian 16 at Wed Oct 13 21:01:23 2021.
