 Gaussian 16, Revision A.03,
 Gaussian 16:  ES64L-G16RevA.03 25-Dec-2016

 --------------------------------------------------------
 #p PBE1PBE/Def2SVP td=(nstates=5) density=(transition=1)
 --------------------------------------------------------

 --------------------------------
 TDDFT excited states in gaussian
 --------------------------------
 Symbolic Z-matrix:
 Charge =  0 Multiplicity = 1

                         Standard orientation:
 ---------------------------------------------------------------------
 Center     Atomic      Atomic             Coordinates (Angstroms)
 Number     Number       Type             X           Y           Z
 ---------------------------------------------------------------------
      1         12           0      -20.227494    0.600093    0.372957
      2          6           0      -19.426816   -2.114124   -1.557717
      3          6           0      -21.019681   -1.424813    2.916883
      4          6           0      -21.205847    3.351246    2.057337
      5          6           0      -19.852902    2.689432   -2.578927
      6          7           0      -20.469559   -1.597360    0.529432
      7          6           0      -19.982791   -2.508432   -0.321782
      8          6           0      -20.115292   -3.993774    0.296194
      9          6           0      -20.629096   -3.639516    1.741700
     10          6           0      -20.769238   -2.103974    1.758022
     11          6           0      -21.884447   -4.427650    2.163468
     12          6           0      -18.784514   -4.798305    0.287648
     13          6           0      -18.690877   -6.086145    1.169473
     14          1           0      -18.802178   -7.480234    0.443237
     15          7           0      -21.059286    0.913988    2.234288
     16          6           0      -21.213033   -0.006867    3.162921
     17          6           0      -21.709815    0.631648    4.372339
     18          6           0      -21.891033    2.029072    4.145100
     19          6           0      -21.371949    2.153509    2.765307
     20          6           0      -22.144973   -0.090808    5.636596
     21          6           0      -22.494318    3.112666    5.032765
     22          8           0      -22.835339    4.195916    4.566607
     23          6           0      -22.669305    2.833131    6.484444
     24          7           0      -20.533168    2.719810   -0.208172
     25          6           0      -20.890264    3.636122    0.683833
     26          6           0      -20.797345    5.062232    0.116312
     27          6           0      -20.173187    4.786168   -1.249090
     28          6           0      -20.225447    3.307688   -1.354454
     29          6           0      -22.079532    5.906773    0.073827
     30          6           0      -18.872586    5.509880   -1.489982
     31          6           0      -18.868687    6.559273   -2.658223
     32          7           0      -19.706594    0.390883   -1.592861
     33          6           0      -19.508097    1.317614   -2.670708
     34          6           0      -18.970334    0.654022   -3.837975
     35          6           0      -18.926330   -0.693257   -3.383108
     36          6           0      -19.381298   -0.783716   -2.061595
     37          6           0      -18.428279    1.188125   -5.116730
     38          6           0      -18.382297   -1.959614   -3.804159
     39          8           0      -17.670292   -2.323161   -4.752176
     40          6           0      -18.763624   -2.976911   -2.757949
     41          6           0      -19.867531   -3.885904   -3.341909
     42          8           0      -20.850669   -3.544826   -4.017284
     43          8           0      -19.580927   -5.167211   -2.974957
     44          6           0      -20.495495   -6.250649   -3.456282
     45          1           0      -21.191049   -1.959678    3.853382
     46          1           0      -21.684493    4.251097    2.449290
     47          1           0      -19.631086    3.396731   -3.380085
     48          1           0      -20.899206   -4.453532   -0.304545
     49          1           0      -19.821810   -3.863896    2.438833
     50          1           0      -21.728018   -4.741294    3.195008
     51          1           0      -22.011213   -5.337493    1.576666
     52          1           0      -22.778432   -3.809476    2.080399
     53          1           0      -18.058343   -4.146212    0.772959
     54          1           0      -18.539245   -5.101227   -0.730219
     55          1           0      -19.570487   -6.089843    1.814012
     56          1           0      -17.733852   -6.082796    1.690055
     57          1           0      -22.006588   -1.168215    5.546625
     58          1           0      -23.199777    0.107223    5.825494
     59          1           0      -21.591607    0.250962    6.510363
     60          1           0      -21.707577    2.440247    6.815514
     61          1           0      -23.419848    2.144112    6.870599
     62          1           0      -22.908643    3.726324    7.060519
     63          1           0      -20.088279    5.614594    0.731988
     64          1           0      -20.856868    5.181777   -1.999996
     65          1           0      -21.743491    6.907225    0.345232
     66          1           0      -22.842367    5.480198    0.724984
     67          1           0      -22.601632    5.884329   -0.882683
     68          1           0      -18.199300    4.720435   -1.822479
     69          1           0      -18.496131    6.036201   -0.613319
     70          1           0      -19.844151    6.578367   -3.144963
     71          1           0      -18.132417    6.223966   -3.389333
     72          1           0      -18.534068    7.560678   -2.387073
     73          1           0      -18.339666    2.272847   -5.062588
     74          1           0      -19.210386    1.008324   -5.853447
     75          1           0      -17.466377    0.688440   -5.240206
     76          1           0      -17.840036   -3.525403   -2.571933
     77          1           0      -21.559830   -6.045918   -3.338068
     78          1           0      -20.284578   -7.235326   -3.040427
     79          1           0      -20.348060   -6.292222   -4.535330
     80         12           0       20.707379    0.552731   -0.167783
     81          6           0       18.271419   -1.992180   -0.059434
     82          6           0       22.961725   -1.793758    0.996923
     83          6           0       23.143243    2.943819   -0.105708
     84          6           0       18.346850    2.801843   -0.966954
     85          7           0       20.628359   -1.680266    0.376585
     86          6           0       19.565767   -2.561647    0.217630
     87          6           0       20.036406   -3.992891    0.381360
     88          6           0       21.442206   -3.842310    1.068530
     89          6           0       21.688000   -2.377804    0.782970
     90          6           0       21.511354   -4.265721    2.588134
     91          6           0       20.186975   -4.737257   -0.953707
     92          6           0       19.801157   -6.220097   -0.927275
     93          1           0       20.707216   -7.207775   -0.140750
     94          7           0       22.773756    0.564746    0.278960
     95          6           0       23.437553   -0.507324    0.769402
     96          6           0       24.768464   -0.108292    1.093979
     97          6           0       24.960679    1.250202    0.664348
     98          6           0       23.607512    1.643911    0.313618
     99          6           0       25.754887   -1.051065    1.725433
    100          6           0       26.182515    2.168402    0.699610
    101          8           0       26.189702    3.276202    0.118854
    102          6           0       27.435345    1.837273    1.502626
    103          7           0       20.753188    2.539071   -0.574440
    104          6           0       21.854111    3.376428   -0.421461
    105          6           0       21.435287    4.784919   -0.692686
    106          6           0       19.905540    4.814714   -1.049403
    107          6           0       19.618919    3.310804   -0.910508
    108          6           0       21.891055    5.818201    0.381144
    109          6           0       19.559594    5.346795   -2.457012
    110          6           0       19.166022    6.836541   -2.471664
    111          7           0       18.746188    0.501070   -0.416805
    112          6           0       17.845791    1.487338   -0.817153
    113          6           0       16.446881    0.953439   -1.011538
    114          6           0       16.628945   -0.398355   -0.677407
    115          6           0       18.009992   -0.637949   -0.384585
    116          6           0       15.224214    1.738971   -1.449510
    117          6           0       15.888181   -1.645358   -0.560699
    118          8           0       14.690585   -1.890891   -0.710785
    119          6           0       16.991530   -2.748618   -0.267704
    120          6           0       16.482444   -3.510492    0.971718
    121          8           0       15.944405   -3.025981    1.945856
    122          8           0       16.586027   -4.878091    0.724788
    123          6           0       16.119843   -5.697356    1.843682
    124          1           0       23.664046   -2.577381    1.288047
    125          1           0       23.841394    3.782889   -0.129142
    126          1           0       17.627104    3.611000   -1.104760
    127          1           0       19.413963   -4.603652    1.034836
    128          1           0       22.233560   -4.444896    0.622636
    129          1           0       20.607433   -4.724224    2.990166
    130          1           0       21.703435   -3.470329    3.307845
    131          1           0       22.270956   -5.032584    2.739967
    132          1           0       21.207825   -4.674201   -1.329820
    133          1           0       19.526974   -4.310693   -1.709314
    134          1           0       19.650002   -6.618997   -1.930241
    135          1           0       18.804224   -6.361345   -0.510330
    136          1           0       25.170699   -1.462735    2.548583
    137          1           0       26.651325   -0.622595    2.173435
    138          1           0       26.071908   -1.876154    1.088013
    139          1           0       27.178973    1.558250    2.524778
    140          1           0       27.992481    2.772201    1.444337
    141          1           0       27.969508    0.992892    1.066993
    142          1           0       22.063558    5.142549   -1.509020
    143          1           0       19.269625    5.320925   -0.321992
    144          1           0       22.390246    5.267672    1.178828
    145          1           0       21.008850    6.304305    0.796841
    146          1           0       22.579875    6.469597   -0.157771
    147          1           0       18.827688    4.664723   -2.889102
    148          1           0       20.442353    5.353334   -3.096756
    149          1           0       19.594743    7.339684   -1.604755
    150          1           0       18.103990    7.062315   -2.373892
    151          1           0       19.607532    7.290645   -3.359267
    152          1           0       15.348397    1.961541   -2.509439
    153          1           0       15.075814    2.696775   -0.951215
    154          1           0       14.375716    1.074053   -1.288934
    155          1           0       17.170441   -3.462565   -1.071455
    156          1           0       16.886298   -5.948781    2.577400
    157          1           0       15.713991   -6.586018    1.360494
    158          1           0       15.337329   -5.310470    2.496419
 ---------------------------------------------------------------------

 SCF Done:  E(RPBE1PBE) =  -4067.40960637     A.U. after   16 cycles

 Excitation energies and oscillator strengths:

 Excited State   1:      Singlet-A      1.8492 eV  670.49 nm  f=0.3684  <S**2>=0.000
     309 -> 316        0.18097
     312 -> 313        0.69132
     312 <- 313       -0.10446
 This state for optimization and/or second-order correction.
 Total Energy, E(TD-HF/TD-DFT) =  -4067.34165066
 Copying the excited state density for this state as the 1-particle RhoCI density.

 Excited State   2:      Singlet-A      1.8791 eV  659.82 nm  f=0.3864  <S**2>=0.000
     310 -> 315       -0.16659
     311 -> 314        0.69061
     311 <- 314       -0.10564

 Excited State   3:      Singlet-A      1.9917 eV  622.51 nm  f=0.0000  <S**2>=0.000
     311 -> 313        0.70710

 Excited State   4:      Singlet-A      2.0067 eV  617.86 nm  f=0.0000  <S**2>=0.000
     312 -> 314        0.70711

 Excited State   5:      Singlet-A      2.2265 eV  556.85 nm  f=0.0972  <S**2>=0.000
     309 -> 313        0.64897
     312 -> 316       -0.27354

 The electronic state is 1-A.
 Alpha  occ. eigenvalues --  -46.92556 -46.91079 -19.26412 -19.26269 -19.20622
 Alpha  occ. eigenvalues --  -19.19703 -19.19640 -19.19372 -19.19340 -19.17974
 Alpha  occ. eigenvalues --  -14.42038 -14.41422 -14.41353 -14.40971 -14.39609
 Alpha  occ. eigenvalues --  -14.39600 -14.39073 -14.38936 -10.36713 -10.36606
 Alpha  occ. eigenvalues --  -10.33126 -10.32902 -10.32281 -10.30510 -10.29385
 Alpha  occ. eigenvalues --  -10.29384 -10.29305 -10.28714 -10.28623 -10.28464
 Alpha  occ. eigenvalues --  -10.28373 -10.28230 -10.28223 -10.28200 -10.28167
 Alpha  occ. eigenvalues --  -10.28077 -10.27886 -10.27778 -10.27771 -10.27083
 Alpha  occ. eigenvalues --  -10.27079 -10.26845 -10.26632 -10.26605 -10.26466
 Alpha  occ. eigenvalues --  -10.26406 -10.26403 -10.26255 -10.26183 -10.26175
 Alpha  occ. eigenvalues --  -10.26159 -10.26140 -10.26116 -10.25798 -10.25765
 Alpha  occ. eigenvalues --  -10.25566 -10.25555 -10.25161 -10.25121 -10.25045
 Alpha  occ. eigenvalues --  -10.24982 -10.24925 -10.24806 -10.24508 -10.24478
 Alpha  occ. eigenvalues --  -10.24421 -10.24331 -10.24320 -10.24053 -10.24028
 Alpha  occ. eigenvalues --  -10.24024 -10.23940 -10.23932 -10.23873 -10.23788
 Alpha  occ. eigenvalues --  -10.23749 -10.23745 -10.23624 -10.23614 -10.23603
 Alpha  occ. eigenvalues --  -10.23511 -10.23174 -10.23134 -10.23121 -10.23038
 Alpha  occ. eigenvalues --  -10.22175  -3.14662  -3.13435  -1.87493  -1.87030
 Alpha  occ. eigenvalues --   -1.86898  -1.86276  -1.85786  -1.85703  -1.11054
 Alpha  occ. eigenvalues --   -1.10323  -1.05014  -1.04008  -1.03547  -1.03002
 Alpha  occ. eigenvalues --   -1.02724  -1.01351  -1.00309  -0.99263  -0.99017
 Alpha  occ. eigenvalues --   -0.98542  -0.98246  -0.97816  -0.97649  -0.96103
 Alpha  occ. eigenvalues --   -0.86942  -0.85643  -0.84203  -0.83683  -0.83323
 Alpha  occ. eigenvalues --   -0.82974  -0.82591  -0.82458  -0.81827  -0.81756
 Alpha  occ. eigenvalues --   -0.81445  -0.81284  -0.81225  -0.80505  -0.78648
 Alpha  occ. eigenvalues --   -0.78441  -0.77899  -0.77574  -0.76584  -0.76478
 Alpha  occ. eigenvalues --   -0.76369  -0.75849  -0.75373  -0.75262  -0.74396
 Alpha  occ. eigenvalues --   -0.74395  -0.72838  -0.72704  -0.71813  -0.71798
 Alpha  occ. eigenvalues --   -0.71571  -0.71013  -0.70468  -0.70371  -0.69677
 Alpha  occ. eigenvalues --   -0.69416  -0.67164  -0.67079  -0.66120  -0.66081
 Alpha  occ. eigenvalues --   -0.63755  -0.63715  -0.63426  -0.63267  -0.62649
 Alpha  occ. eigenvalues --   -0.62186  -0.61963  -0.61678  -0.60270  -0.60184
 Alpha  occ. eigenvalues --   -0.59931  -0.59438  -0.59012  -0.58894  -0.58779
 Alpha  occ. eigenvalues --   -0.58407  -0.57185  -0.57155  -0.55211  -0.54902
 Alpha  occ. eigenvalues --   -0.54632  -0.54209  -0.53519  -0.53450  -0.53238
 Alpha  occ. eigenvalues --   -0.53167  -0.52593  -0.52286  -0.52041  -0.51853
 Alpha  occ. eigenvalues --   -0.50873  -0.50630  -0.50211  -0.50018  -0.49735
 Alpha  occ. eigenvalues --   -0.49640  -0.49090  -0.49065  -0.48619  -0.48387
 Alpha  occ. eigenvalues --   -0.48283  -0.48096  -0.47978  -0.47702  -0.47493
 Alpha  occ. eigenvalues --   -0.47159  -0.47122  -0.47065  -0.46749  -0.46699
 Alpha  occ. eigenvalues --   -0.46429  -0.46353  -0.46209  -0.45813  -0.45737
 Alpha  occ. eigenvalues --   -0.45639  -0.45306  -0.45136  -0.44998  -0.44636
 Alpha  occ. eigenvalues --   -0.44580  -0.44553  -0.44407  -0.44357  -0.44193
 Alpha  occ. eigenvalues --   -0.44006  -0.43941  -0.43699  -0.43585  -0.43537
 Alpha  occ. eigenvalues --   -0.43521  -0.43174  -0.43154  -0.42834  -0.42801
 Alpha  occ. eigenvalues --   -0.42717  -0.42436  -0.42266  -0.42199  -0.42112
 Alpha  occ. eigenvalues --   -0.41924  -0.41502  -0.41444  -0.41388  -0.41251
 Alpha  occ. eigenvalues --   -0.41148  -0.40992  -0.40879  -0.40645  -0.40638
 Alpha  occ. eigenvalues --   -0.40258  -0.39738  -0.39686  -0.39533  -0.39414
 Alpha  occ. eigenvalues --   -0.39302  -0.39249  -0.39196  -0.39113  -0.39033
 Alpha  occ. eigenvalues --   -0.38833  -0.38777  -0.38646  -0.38407  -0.38344
 Alpha  occ. eigenvalues --   -0.38311  -0.37968  -0.37934  -0.37735  -0.37653
 Alpha  occ. eigenvalues --   -0.37482  -0.37169  -0.36981  -0.36824  -0.36775
 Alpha  occ. eigenvalues --   -0.36767  -0.36714  -0.36564  -0.36415  -0.36356
 Alpha  occ. eigenvalues --   -0.36078  -0.35927  -0.35895  -0.35659  -0.35457
 Alpha  occ. eigenvalues --   -0.35369  -0.35185  -0.34670  -0.34199  -0.33983
 Alpha  occ. eigenvalues --   -0.33707  -0.33334  -0.33211  -0.32942  -0.32850
 Alpha  occ. eigenvalues --   -0.32233  -0.32065  -0.31866  -0.31678  -0.31642
 Alpha  occ. eigenvalues --   -0.31181  -0.30996  -0.30357  -0.29866  -0.29477
 Alpha  occ. eigenvalues --   -0.29112  -0.28651  -0.28446  -0.26756  -0.26708
 Alpha  occ. eigenvalues --   -0.26604  -0.26326  -0.26119  -0.26068  -0.25798
 Alpha  occ. eigenvalues --   -0.25537  -0.25341  -0.24769  -0.20864  -0.20836
 Alpha  occ. eigenvalues --   -0.18708  -0.18705
 Alpha virt. eigenvalues --   -0.11068  -0.11007  -0.05311  -0.05253  -0.04235
 Alpha virt. eigenvalues --   -0.03563  -0.02640  -0.01853  -0.00814   0.00296
 Alpha virt. eigenvalues --    0.00511   0.00810   0.00972   0.01327   0.01647

 Mulliken charges:
               1
     1  Mg  12.000042
     2  C    5.999777
     3  C    6.000234
     4  C    6.000011
     5  C    5.999930
     6  N    6.999975
     7  C    6.000463
     8  C    5.999895
     9  C    6.000144
    10  C    5.999566
    11  C    6.000019
    12  C    5.999923
    13  C    6.000028
    14  H    0.999969
    15  N    7.000067
    16  C    5.999474
    17  C    5.999706
    18  C    5.999739
    19  C    5.999733
    20  C    6.000037
    21  C    5.999799
    22  O    7.999571
    23  C    6.000094
    24  N    6.999965
    25  C    5.999570
    26  C    6.000141
    27  C    5.999849
    28  C    6.000397
    29  C    6.000041
    30  C    5.999978
    31  C    5.999988
    32  N    6.999993
    33  C    6.000457
    34  C    6.000431
    35  C    6.000073
    36  C    6.000301
    37  C    5.999980
    38  C    6.000270
    39  O    8.000598
    40  C    5.999983
    41  C    6.000076
    42  O    7.999988
    43  O    8.000067
    44  C    6.000003
    45  H    0.999918
    46  H    0.999858
    47  H    1.000165
    48  H    0.999952
    49  H    1.000019
    50  H    1.000001
    51  H    0.999838
    52  H    0.999982
    53  H    1.000112
    54  H    0.999939
    55  H    1.000040
    56  H    1.000097
    57  H    0.999717
    58  H    0.999691
    59  H    0.999746
    60  H    0.999966
    61  H    0.999823
    62  H    0.999755
    63  H    1.000029
    64  H    0.999962
    65  H    0.999929
    66  H    1.000045
    67  H    0.999821
    68  H    0.999991
    69  H    1.000193
    70  H    0.999966
    71  H    1.000017
    72  H    1.000081
    73  H    1.000248
    74  H    1.000187
    75  H    1.000250
    76  H    1.000211
    77  H    1.000006
    78  H    1.000079
    79  H    1.000018
    80  Mg  12.000507
    81  C    6.017147
    82  C    5.989679
    83  C    5.982661
    84  C    6.009148
    85  N    7.006234
    86  C    5.968298
    87  C    6.009412
    88  C    5.989607
    89  C    6.031823
    90  C    5.996982
    91  C    6.003115
    92  C    6.001250
    93  H    0.990713
    94  N    6.996194
    95  C    6.034608
    96  C    6.024370
    97  C    6.013163
    98  C    6.028735
    99  C    5.997903
   100  C    6.011074
   101  O    8.026396
   102  C    5.996758
   103  N    6.994153
   104  C    6.032205
   105  C    5.991129
   106  C    6.011168
   107  C    5.969585
   108  C    5.998080
   109  C    6.003710
   110  C    6.000050
   111  N    6.999625
   112  C    5.965904
   113  C    5.967769
   114  C    6.000924
   115  C    5.970833
   116  C    5.999353
   117  C    5.983564
   118  O    7.970907
   119  C    5.999961
   120  C    5.993715
   121  O    7.997734
   122  O    7.997726
   123  C    6.002304
   124  H    1.009648
   125  H    1.006157
   126  H    0.990636
   127  H    0.999577
   128  H    1.000850
   129  H    1.013092
   130  H    0.999024
   131  H    1.002206
   132  H    0.988539
   133  H    1.006484
   134  H    0.999548
   135  H    1.003882
   136  H    1.015413
   137  H    1.014949
   138  H    1.020657
   139  H    1.006562
   140  H    1.012575
   141  H    1.007455
   142  H    1.000973
   143  H    0.998706
   144  H    0.995161
   145  H    1.010250
   146  H    1.001374
   147  H    1.005624
   148  H    0.990124
   149  H    0.994094
   150  H    1.001654
   151  H    0.995867
   152  H    0.982126
   153  H    0.982276
   154  H    0.988505
   155  H    0.992092
   156  H    0.993003
   157  H    0.996457
   158  H    0.998282
 Sum of Mulliken charges = 624.00000

 Dipole moment (field-independent basis, Debye):
    X=             10.0207    Y=              0.2607    Z=              2.1392  Tot=             10.2498
 Quadrupole moment (field-independent basis, Debye-Ang):
   XX=            410.2813   YY=             -2.7753   ZZ=             -0.0638
   XY=             10.8653   XZ=             51.1796   YZ=              1.3655

 Normal termination of Gaussian 16 at Thu Oct 14 13:28:55 2021.
