 Gaussian 16, Revision A.03,
 Gaussian 16:  ES64L-G16RevA.03 25-Dec-2016

 --------------------------------------------------------
 #p PBE1PBE/Def2SVP td=(nstates=5) density=(transition=1)
 --------------------------------------------------------

 --------------------------------
 TDDFT excited states in gaussian
 --------------------------------
 Symbolic Z-matrix:
 Charge =  0 Multiplicity = 1

                         Standard orientation:
 ---------------------------------------------------------------------
 Center     Atomic      Atomic             Coordinates (Angstroms)
 Number     Number       Type             X           Y           Z
 ---------------------------------------------------------------------
      1         12           0      -25.035121   -0.742550   -0.287105
      2          6           0      -25.897862    1.994837    1.761446
      3          6           0      -24.010003    1.485962   -2.694236
      4          6           0      -24.260528   -3.293435   -2.330023
      5          6           0      -26.612737   -2.935155    1.937035
      6          7           0      -24.876135    1.438191   -0.306461
      7          6           0      -25.236443    2.391128    0.548453
      8          6           0      -24.951611    3.845716    0.119951
      9          6           0      -24.629308    3.532839   -1.420971
     10          6           0      -24.541421    2.028009   -1.494559
     11          6           0      -25.656641    4.083065   -2.380228
     12          6           0      -23.701743    4.541106    0.897016
     13          6           0      -23.811040    6.067149    0.965541
     14          1           0      -23.881417    6.633842    2.406991
     15          7           0      -24.077965   -0.920359   -2.212245
     16          6           0      -23.781604    0.173910   -3.062148
     17          6           0      -22.974882   -0.346453   -4.142958
     18          6           0      -23.007498   -1.735224   -4.054376
     19          6           0      -23.785926   -2.066511   -2.819835
     20          6           0      -22.430179    0.502445   -5.276145
     21          6           0      -22.370892   -2.810056   -4.905392
     22          8           0      -22.472093   -3.958445   -4.585567
     23          6           0      -21.543936   -2.485200   -6.109199
     24          7           0      -25.546142   -2.782753   -0.325974
     25          6           0      -25.042431   -3.658960   -1.242630
     26          6           0      -25.485512   -5.075388   -0.782016
     27          6           0      -25.678412   -4.988949    0.721395
     28          6           0      -25.999131   -3.480171    0.837584
     29          6           0      -26.817255   -5.428332   -1.442873
     30          6           0      -24.512497   -5.434367    1.524049
     31          6           0      -23.135303   -4.942868    1.152767
     32          7           0      -26.030444   -0.577608    1.508684
     33          6           0      -26.632999   -1.529587    2.309399
     34          6           0      -27.189535   -0.865308    3.498144
     35          6           0      -26.894040    0.497344    3.319434
     36          6           0      -26.212974    0.613758    2.138513
     37          6           0      -27.935129   -1.507625    4.586934
     38          6           0      -26.892661    1.794415    3.941128
     39          8           0      -27.306940    2.168920    5.077389
     40          6           0      -26.195027    2.810253    2.918177
     41          6           0      -27.231847    3.849394    2.578305
     42          8           0      -28.351830    3.571564    2.266616
     43          8           0      -26.777488    5.195983    2.591796
     44          6           0      -27.697378    6.182835    1.948564
     45          1           0      -23.727794    2.176583   -3.490913
     46          1           0      -24.118043   -4.138492   -3.007339
     47          1           0      -26.963710   -3.572765    2.751441
     48          1           0      -25.818790    4.473170    0.329618
     49          1           0      -23.665066    4.014790   -1.587062
     50          1           0      -25.251326    5.025305   -2.748661
     51          1           0      -26.652515    4.150747   -1.941817
     52          1           0      -25.591667    3.416411   -3.240080
     53          1           0      -22.769273    4.303663    0.384003
     54          1           0      -23.590933    4.122084    1.897341
     55          1           0      -24.705373    6.245697    0.368200
     56          1           0      -23.015686    6.561373    0.407966
     57          1           0      -22.454355    1.518226   -4.883373
     58          1           0      -23.209445    0.419546   -6.033219
     59          1           0      -21.411090    0.228351   -5.549727
     60          1           0      -20.663379   -2.076437   -5.613288
     61          1           0      -21.968743   -1.721266   -6.759824
     62          1           0      -21.324557   -3.391652   -6.674439
     63          1           0      -24.812069   -5.886038   -1.058103
     64          1           0      -26.487448   -5.597792    1.123602
     65          1           0      -27.742198   -5.352503   -0.871088
     66          1           0      -26.735703   -6.452147   -1.807763
     67          1           0      -26.927716   -4.801612   -2.328547
     68          1           0      -24.466212   -6.520555    1.605992
     69          1           0      -24.730595   -5.064094    2.525590
     70          1           0      -22.830840   -4.282531    1.965284
     71          1           0      -22.915281   -4.394339    0.236422
     72          1           0      -22.454420   -5.793300    1.184608
     73          1           0      -28.905702   -1.814363    4.197206
     74          1           0      -27.973275   -0.740649    5.360411
     75          1           0      -27.444848   -2.422870    4.921389
     76          1           0      -25.312177    3.166600    3.449247
     77          1           0      -28.524323    6.420529    2.617642
     78          1           0      -28.103120    5.835480    0.997303
     79          1           0      -27.279783    7.171265    1.759085
     80         12           0       24.977105   -0.669667    0.303622
     81          6           0       24.906159    2.278546   -1.475402
     82          6           0       24.845803    1.260236    3.308038
     83          6           0       25.402508   -3.400082    2.071824
     84          6           0       25.273311   -2.496384   -2.652542
     85          7           0       24.880304    1.519333    0.764604
     86          6           0       24.828057    2.523697   -0.115226
     87          6           0       24.633754    3.866793    0.661312
     88          6           0       24.760970    3.471333    2.203608
     89          6           0       24.893178    1.939700    2.098520
     90          6           0       26.000492    3.946675    2.936941
     91          6           0       23.359137    4.643304    0.297946
     92          6           0       23.669322    6.092683   -0.036390
     93          1           0       22.617847    7.194211    0.161479
     94          7           0       25.024360   -1.009654    2.402326
     95          6           0       24.909054   -0.144366    3.451864
     96          6           0       24.924453   -0.798537    4.683421
     97          6           0       25.211288   -2.177243    4.389774
     98          6           0       25.211240   -2.259571    2.888182
     99          6           0       24.736843   -0.101165    6.022954
    100          6           0       25.502962   -3.319023    5.349781
    101          8           0       25.896687   -4.403771    4.878981
    102          6           0       25.448965   -3.143302    6.812502
    103          7           0       25.252745   -2.610066   -0.239419
    104          6           0       25.350125   -3.636102    0.677939
    105          6           0       25.566048   -5.061295    0.046117
    106          6           0       25.231247   -4.721711   -1.468899
    107          6           0       25.271820   -3.182600   -1.472179
    108          6           0       26.941668   -5.825700    0.183171
    109          6           0       23.969930   -5.425871   -2.147566
    110          6           0       22.628571   -4.847864   -1.781001
    111          7           0       25.210093   -0.271326   -1.633133
    112          6           0       25.323580   -1.069672   -2.755364
    113          6           0       25.395558   -0.317456   -3.940678
    114          6           0       25.196873    0.985441   -3.469522
    115          6           0       25.081340    0.988047   -2.048841
    116          6           0       25.485334   -0.946951   -5.265301
    117          6           0       25.201073    2.308330   -3.963889
    118          8           0       25.423780    2.680928   -5.117578
    119          6           0       24.980114    3.270356   -2.683007
    120          6           0       26.087259    4.206220   -2.595792
    121          8           0       27.213874    3.965090   -2.226752
    122          8           0       25.735669    5.385507   -3.093266
    123          6           0       26.725120    6.413375   -3.212782
    124          1           0       24.857511    1.860272    4.219861
    125          1           0       25.555584   -4.383639    2.520147
    126          1           0       25.369512   -3.106174   -3.553348
    127          1           0       25.539072    4.392174    0.358888
    128          1           0       23.930370    3.977437    2.696877
    129          1           0       26.642890    4.611094    2.358260
    130          1           0       26.635967    3.098481    3.190158
    131          1           0       25.723064    4.337840    3.916245
    132          1           0       22.573592    4.618310    1.053393
    133          1           0       22.908996    4.149818   -0.563096
    134          1           0       23.832553    6.119542   -1.114374
    135          1           0       24.555559    6.349432    0.543618
    136          1           0       24.378622    0.920801    5.898574
    137          1           0       25.714214    0.032713    6.487074
    138          1           0       24.152796   -0.715547    6.707155
    139          1           0       26.035574   -3.911724    7.317271
    140          1           0       24.411783   -3.299664    7.110609
    141          1           0       25.826681   -2.159651    7.090491
    142          1           0       24.765846   -5.754985    0.306096
    143          1           0       26.024133   -5.128511   -2.095312
    144          1           0       27.609226   -5.200686    0.775005
    145          1           0       27.451939   -5.805195   -0.780616
    146          1           0       26.931527   -6.845137    0.569933
    147          1           0       23.953923   -6.444545   -1.760850
    148          1           0       24.049790   -5.534497   -3.228524
    149          1           0       21.980346   -4.986055   -2.645634
    150          1           0       22.536243   -3.823403   -1.422550
    151          1           0       22.266271   -5.430316   -0.933880
    152          1           0       25.021678   -1.921797   -5.414148
    153          1           0       26.463842   -0.919735   -5.743243
    154          1           0       24.937485   -0.224677   -5.869981
    155          1           0       24.049855    3.816940   -2.836606
    156          1           0       26.795420    7.027993   -2.314611
    157          1           0       26.392469    7.078894   -4.009142
    158          1           0       27.701281    5.967285   -3.403686
 ---------------------------------------------------------------------

 SCF Done:  E(RPBE1PBE) =  -4067.38593940     A.U. after   16 cycles

 Excitation energies and oscillator strengths:

 Excited State   1:      Singlet-A      1.8249 eV  679.41 nm  f=0.3549  <S**2>=0.000
     310 -> 315       -0.17192
     312 -> 314        0.69448
     312 <- 314       -0.10918
 This state for optimization and/or second-order correction.
 Total Energy, E(TD-HF/TD-DFT) =  -4067.31887584
 Copying the excited state density for this state as the 1-particle RhoCI density.

 Excited State   2:      Singlet-A      1.9584 eV  633.10 nm  f=0.0000  <S**2>=0.000
     312 -> 313        0.70711

 Excited State   3:      Singlet-A      2.0132 eV  615.84 nm  f=0.0000  <S**2>=0.000
     311 -> 314        0.70711

 Excited State   4:      Singlet-A      2.1781 eV  569.24 nm  f=0.1118  <S**2>=0.000
     310 -> 314        0.65715
     312 -> 315        0.25112

 Excited State   5:      Singlet-A      2.5214 eV  491.73 nm  f=0.0000  <S**2>=0.000
     310 -> 313        0.70711

 The electronic state is 1-A.
 Alpha  occ. eigenvalues --  -46.92047 -46.91122 -19.25433 -19.25195 -19.20271
 Alpha  occ. eigenvalues --  -19.19059 -19.18930 -19.18820 -19.18746 -19.18437
 Alpha  occ. eigenvalues --  -14.42733 -14.41858 -14.41696 -14.41085 -14.39351
 Alpha  occ. eigenvalues --  -14.39258 -14.38907 -14.38691 -10.36479 -10.35239
 Alpha  occ. eigenvalues --  -10.32132 -10.32079 -10.31958 -10.31716 -10.29361
 Alpha  occ. eigenvalues --  -10.29240 -10.29048 -10.28959 -10.28939 -10.28920
 Alpha  occ. eigenvalues --  -10.28839 -10.28528 -10.28427 -10.28403 -10.28284
 Alpha  occ. eigenvalues --  -10.27965 -10.27960 -10.27513 -10.27007 -10.26817
 Alpha  occ. eigenvalues --  -10.26810 -10.26739 -10.26696 -10.26411 -10.26398
 Alpha  occ. eigenvalues --  -10.26339 -10.26152 -10.26137 -10.26005 -10.25978
 Alpha  occ. eigenvalues --  -10.25920 -10.25896 -10.25844 -10.25812 -10.25592
 Alpha  occ. eigenvalues --  -10.25518 -10.25497 -10.25418 -10.25264 -10.25216
 Alpha  occ. eigenvalues --  -10.25074 -10.25012 -10.24929 -10.24917 -10.24893
 Alpha  occ. eigenvalues --  -10.24847 -10.24598 -10.24540 -10.24470 -10.24182
 Alpha  occ. eigenvalues --  -10.23937 -10.23845 -10.23799 -10.23685 -10.23676
 Alpha  occ. eigenvalues --  -10.23539 -10.23369 -10.23244 -10.23091 -10.23066
 Alpha  occ. eigenvalues --  -10.22831 -10.22593 -10.22469 -10.22427 -10.22403
 Alpha  occ. eigenvalues --  -10.21924  -3.14124  -3.13480  -1.86988  -1.86475
 Alpha  occ. eigenvalues --   -1.86364  -1.86322  -1.85873  -1.85708  -1.12710
 Alpha  occ. eigenvalues --   -1.10384  -1.06649  -1.03670  -1.03180  -1.02588
 Alpha  occ. eigenvalues --   -1.02257  -1.01585  -0.99849  -0.99305  -0.98387
 Alpha  occ. eigenvalues --   -0.97991  -0.97953  -0.97856  -0.97229  -0.96433
 Alpha  occ. eigenvalues --   -0.87434  -0.86464  -0.84279  -0.83736  -0.83684
 Alpha  occ. eigenvalues --   -0.83044  -0.83009  -0.82636  -0.82011  -0.81965
 Alpha  occ. eigenvalues --   -0.81910  -0.81314  -0.81087  -0.80815  -0.78910
 Alpha  occ. eigenvalues --   -0.78883  -0.78148  -0.77919  -0.77248  -0.76842
 Alpha  occ. eigenvalues --   -0.76580  -0.76539  -0.75575  -0.75517  -0.74993
 Alpha  occ. eigenvalues --   -0.74243  -0.73002  -0.72621  -0.71691  -0.71682
 Alpha  occ. eigenvalues --   -0.71521  -0.71242  -0.70596  -0.70291  -0.69647
 Alpha  occ. eigenvalues --   -0.69353  -0.67942  -0.67025  -0.65906  -0.65771
 Alpha  occ. eigenvalues --   -0.64071  -0.64022  -0.63325  -0.63312  -0.62322
 Alpha  occ. eigenvalues --   -0.62188  -0.61490  -0.61418  -0.60220  -0.59873
 Alpha  occ. eigenvalues --   -0.59459  -0.59448  -0.59164  -0.58913  -0.58850
 Alpha  occ. eigenvalues --   -0.57912  -0.56918  -0.56408  -0.54963  -0.54786
 Alpha  occ. eigenvalues --   -0.54610  -0.54475  -0.53775  -0.53634  -0.53601
 Alpha  occ. eigenvalues --   -0.53180  -0.53088  -0.52852  -0.52304  -0.52228
 Alpha  occ. eigenvalues --   -0.51151  -0.50933  -0.50628  -0.50346  -0.49683
 Alpha  occ. eigenvalues --   -0.49260  -0.49184  -0.49086  -0.48942  -0.48668
 Alpha  occ. eigenvalues --   -0.48514  -0.48138  -0.48126  -0.47951  -0.47818
 Alpha  occ. eigenvalues --   -0.47714  -0.47328  -0.47140  -0.46938  -0.46815
 Alpha  occ. eigenvalues --   -0.46662  -0.46538  -0.46404  -0.46059  -0.45965
 Alpha  occ. eigenvalues --   -0.45894  -0.45493  -0.45373  -0.44948  -0.44809
 Alpha  occ. eigenvalues --   -0.44754  -0.44623  -0.44535  -0.44318  -0.44308
 Alpha  occ. eigenvalues --   -0.44095  -0.43979  -0.43920  -0.43860  -0.43765
 Alpha  occ. eigenvalues --   -0.43737  -0.43566  -0.43098  -0.43039  -0.42849
 Alpha  occ. eigenvalues --   -0.42842  -0.42464  -0.42409  -0.42204  -0.42024
 Alpha  occ. eigenvalues --   -0.41944  -0.41652  -0.41460  -0.41261  -0.41140
 Alpha  occ. eigenvalues --   -0.41078  -0.40823  -0.40776  -0.40442  -0.40255
 Alpha  occ. eigenvalues --   -0.40228  -0.40162  -0.40023  -0.39896  -0.39722
 Alpha  occ. eigenvalues --   -0.39626  -0.39335  -0.39233  -0.39141  -0.38884
 Alpha  occ. eigenvalues --   -0.38692  -0.38587  -0.38427  -0.38411  -0.38305
 Alpha  occ. eigenvalues --   -0.38088  -0.38037  -0.37854  -0.37662  -0.37546
 Alpha  occ. eigenvalues --   -0.37403  -0.37340  -0.37301  -0.36889  -0.36704
 Alpha  occ. eigenvalues --   -0.36420  -0.36360  -0.36340  -0.36126  -0.35962
 Alpha  occ. eigenvalues --   -0.35900  -0.35880  -0.35845  -0.35415  -0.35285
 Alpha  occ. eigenvalues --   -0.35217  -0.34724  -0.34466  -0.34153  -0.33834
 Alpha  occ. eigenvalues --   -0.33306  -0.33141  -0.32761  -0.32717  -0.32359
 Alpha  occ. eigenvalues --   -0.32226  -0.32124  -0.31643  -0.31466  -0.31365
 Alpha  occ. eigenvalues --   -0.31233  -0.31185  -0.29829  -0.29550  -0.29461
 Alpha  occ. eigenvalues --   -0.28889  -0.28827  -0.28486  -0.27142  -0.27126
 Alpha  occ. eigenvalues --   -0.25999  -0.25882  -0.25599  -0.25517  -0.25449
 Alpha  occ. eigenvalues --   -0.25313  -0.25291  -0.25273  -0.21114  -0.21045
 Alpha  occ. eigenvalues --   -0.19113  -0.18975
 Alpha virt. eigenvalues --   -0.11517  -0.11452  -0.05265  -0.05054  -0.03832
 Alpha virt. eigenvalues --   -0.03732  -0.02248  -0.01926   0.00021   0.00231
 Alpha virt. eigenvalues --    0.00719   0.00919   0.01221   0.01333   0.01750

 Mulliken charges:
               1
     1  Mg  11.995554
     2  C    6.017066
     3  C    5.988025
     4  C    5.985842
     5  C    6.009784
     6  N    7.011072
     7  C    5.961972
     8  C    6.013811
     9  C    5.983580
    10  C    6.037366
    11  C    5.996540
    12  C    6.001028
    13  C    6.000172
    14  H    1.003414
    15  N    6.992835
    16  C    6.042450
    17  C    6.012321
    18  C    6.021189
    19  C    6.027293
    20  C    5.999558
    21  C    6.011367
    22  O    8.028139
    23  C    5.997348
    24  N    6.999023
    25  C    6.026067
    26  C    5.996669
    27  C    6.004007
    28  C    5.972831
    29  C    6.001653
    30  C    6.006038
    31  C    5.999638
    32  N    6.997978
    33  C    5.962353
    34  C    5.967221
    35  C    5.999757
    36  C    5.974034
    37  C    6.000466
    38  C    5.986417
    39  O    7.971037
    40  C    5.996806
    41  C    5.994434
    42  O    7.998014
    43  O    7.997112
    44  C    6.002097
    45  H    1.010342
    46  H    1.004426
    47  H    0.992194
    48  H    1.002201
    49  H    1.005450
    50  H    1.007870
    51  H    1.013590
    52  H    0.994280
    53  H    0.989350
    54  H    1.005969
    55  H    0.997171
    56  H    0.994717
    57  H    1.014079
    58  H    1.014245
    59  H    1.013663
    60  H    1.007564
    61  H    1.007106
    62  H    1.013644
    63  H    0.998758
    64  H    0.999586
    65  H    1.011279
    66  H    1.001472
    67  H    0.993638
    68  H    0.992958
    69  H    1.006328
    70  H    1.005916
    71  H    0.984764
    72  H    0.997264
    73  H    0.979095
    74  H    0.987264
    75  H    0.980630
    76  H    0.994086
    77  H    0.998528
    78  H    0.994705
    79  H    0.994489
    80  Mg  11.999976
    81  C    6.000033
    82  C    6.000035
    83  C    5.999928
    84  C    5.999943
    85  N    7.000012
    86  C    5.999911
    87  C    6.000016
    88  C    5.999934
    89  C    6.000076
    90  C    5.999985
    91  C    6.000012
    92  C    6.000001
    93  H    0.999973
    94  N    6.999995
    95  C    6.000086
    96  C    6.000063
    97  C    6.000060
    98  C    6.000124
    99  C    5.999973
   100  C    6.000086
   101  O    8.000128
   102  C    5.999959
   103  N    6.999993
   104  C    6.000116
   105  C    5.999948
   106  C    6.000036
   107  C    5.999940
   108  C    6.000000
   109  C    6.000022
   110  C    6.000022
   111  N    7.000000
   112  C    5.999920
   113  C    5.999879
   114  C    6.000030
   115  C    5.999896
   116  C    6.000026
   117  C    5.999882
   118  O    7.999869
   119  C    6.000011
   120  C    5.999980
   121  O    7.999987
   122  O    7.999993
   123  C    6.000008
   124  H    1.000056
   125  H    1.000028
   126  H    0.999948
   127  H    1.000021
   128  H    1.000036
   129  H    1.000068
   130  H    0.999996
   131  H    1.000031
   132  H    0.999961
   133  H    1.000005
   134  H    1.000012
   135  H    1.000005
   136  H    1.000072
   137  H    1.000100
   138  H    1.000076
   139  H    1.000086
   140  H    1.000053
   141  H    1.000038
   142  H    1.000004
   143  H    0.999990
   144  H    1.000002
   145  H    1.000041
   146  H    1.000012
   147  H    0.999954
   148  H    0.999989
   149  H    0.999960
   150  H    0.999999
   151  H    0.999959
   152  H    0.999900
   153  H    0.999912
   154  H    0.999920
   155  H    0.999940
   156  H    0.999983
   157  H    0.999972
   158  H    1.000003
 Sum of Mulliken charges = 624.00000

 Dipole moment (field-independent basis, Debye):
    X=              4.4987    Y=             -0.9685    Z=             -9.0217  Tot=             10.1275
 Quadrupole moment (field-independent basis, Debye-Ang):
   XX=           -225.1840   YY=             -0.6222   ZZ=              6.5556
   XY=             20.4719   XZ=            226.7827   YZ=              5.7919

 Normal termination of Gaussian 16 at Wed Oct 13 22:09:09 2021.
