 Gaussian 16, Revision A.03,
 Gaussian 16:  ES64L-G16RevA.03 25-Dec-2016

 --------------------------------------------------------
 #p PBE1PBE/Def2SVP td=(nstates=5) density=(transition=1)
 --------------------------------------------------------

 --------------------------------
 TDDFT excited states in gaussian
 --------------------------------
 Symbolic Z-matrix:
 Charge =  0 Multiplicity = 1

                         Standard orientation:
 ---------------------------------------------------------------------
 Center     Atomic      Atomic             Coordinates (Angstroms)
 Number     Number       Type             X           Y           Z
 ---------------------------------------------------------------------
      1         12           0      -17.510858   -0.697523    0.170279
      2          6           0      -17.302497    2.604935   -0.735336
      3          6           0      -16.200495    0.124431    3.230470
      4          6           0      -17.608298   -4.047289    1.063430
      5          6           0      -18.409677   -1.533310   -3.072243
      6          7           0      -16.761333    1.170540    1.162003
      7          6           0      -16.882800    2.400258    0.580224
      8          6           0      -16.432914    3.448727    1.478049
      9          6           0      -15.866124    2.728622    2.691399
     10          6           0      -16.252293    1.219043    2.369195
     11          6           0      -14.343959    2.898108    3.026400
     12          6           0      -17.585311    4.453763    1.819243
     13          6           0      -17.179018    5.948578    2.060955
     14          1           0      -15.761868    6.213959    2.605836
     15          7           0      -17.073013   -1.767713    1.970822
     16          6           0      -16.552222   -1.209973    3.125864
     17          6           0      -16.369495   -2.276959    4.130669
     18          6           0      -16.790734   -3.527743    3.503063
     19          6           0      -17.204222   -3.156876    2.138509
     20          6           0      -15.803152   -2.063930    5.525013
     21          6           0      -16.912782   -4.887764    4.149791
     22          8           0      -17.367649   -5.834258    3.483693
     23          6           0      -16.493414   -5.205266    5.536290
     24          7           0      -17.869524   -2.550179   -0.865838
     25          6           0      -17.900584   -3.740487   -0.259739
     26          6           0      -18.408893   -4.828452   -1.220299
     27          6           0      -18.930533   -4.009141   -2.523123
     28          6           0      -18.440412   -2.582364   -2.090852
     29          6           0      -17.303628   -5.889222   -1.513771
     30          6           0      -20.467452   -4.019025   -2.748055
     31          6           0      -20.954735   -4.792331   -3.982534
     32          7           0      -17.746198    0.286744   -1.613007
     33          6           0      -18.105030   -0.179884   -2.879707
     34          6           0      -18.171912    0.946244   -3.837362
     35          6           0      -17.839457    2.036508   -2.999138
     36          6           0      -17.584048    1.586088   -1.676289
     37          6           0      -18.549002    0.920702   -5.236168
     38          6           0      -17.752082    3.511108   -2.966402
     39          8           0      -17.973448    4.343509   -3.805357
     40          6           0      -17.357902    3.919888   -1.502436
     41          6           0      -16.156972    4.768263   -1.564055
     42          8           0      -15.055057    4.274304   -1.852701
     43          8           0      -16.340585    6.052841   -1.152578
     44          6           0      -15.170815    6.909513   -0.985525
     45          1           0      -15.782733    0.419623    4.195253
     46          1           0      -17.596800   -5.100715    1.351705
     47          1           0      -18.818126   -1.826615   -4.041466
     48          1           0      -15.630894    3.993781    0.979082
     49          1           0      -16.467684    2.916884    3.581421
     50          1           0      -13.691477    3.538916    2.432440
     51          1           0      -13.891766    1.906653    3.032700
     52          1           0      -14.157782    3.210239    4.054322
     53          1           0      -18.175139    4.065331    2.649585
     54          1           0      -18.361631    4.367088    1.059267
     55          1           0      -17.888962    6.422828    2.739161
     56          1           0      -17.131706    6.529536    1.140370
     57          1           0      -15.657945   -1.013888    5.776489
     58          1           0      -14.817517   -2.520002    5.622036
     59          1           0      -16.541184   -2.347598    6.275094
     60          1           0      -16.796028   -6.235970    5.718677
     61          1           0      -16.932139   -4.545898    6.286335
     62          1           0      -15.423817   -5.023186    5.642126
     63          1           0      -19.311611   -5.245304   -0.773527
     64          1           0      -18.406308   -4.296383   -3.434528
     65          1           0      -17.645163   -6.917376   -1.393228
     66          1           0      -16.455238   -5.761638   -0.840866
     67          1           0      -16.976584   -5.653249   -2.526700
     68          1           0      -20.895842   -3.021552   -2.838795
     69          1           0      -20.999868   -4.440464   -1.895118
     70          1           0      -20.247844   -5.589404   -4.213212
     71          1           0      -20.976961   -4.100434   -4.823898
     72          1           0      -21.980380   -5.094234   -3.774420
     73          1           0      -18.844050    1.900116   -5.612076
     74          1           0      -19.358537    0.223686   -5.451887
     75          1           0      -17.642833    0.750238   -5.817643
     76          1           0      -18.254619    4.457268   -1.191990
     77          1           0      -14.647497    7.140152   -1.913851
     78          1           0      -14.502874    6.513720   -0.220532
     79          1           0      -15.486960    7.887177   -0.622091
     80         12           0       17.582641   -0.650110    0.035365
     81          6           0       15.214094    1.801204    0.465314
     82          6           0       20.081842    1.803859    0.661189
     83          6           0       20.030974   -2.794944   -0.878433
     84          6           0       15.243844   -2.873812   -0.878865
     85          7           0       17.629047    1.561690    0.506462
     86          6           0       16.500462    2.329475    0.612117
     87          6           0       16.844158    3.755342    1.048830
     88          6           0       18.435096    3.736898    0.897383
     89          6           0       18.747678    2.286445    0.672353
     90          6           0       18.989803    4.722093   -0.195957
     91          6           0       16.378439    4.100094    2.536792
     92          6           0       15.722741    5.410126    2.901845
     93          1           0       16.332634    6.670760    2.400453
     94          7           0       19.787191   -0.559939   -0.053013
     95          6           0       20.584898    0.431768    0.400720
     96          6           0       21.952630    0.033705    0.418176
     97          6           0       21.972166   -1.334003   -0.000913
     98          6           0       20.553628   -1.579514   -0.398170
     99          6           0       22.987720    1.044241    0.794243
    100          6           0       23.168643   -2.240879   -0.233178
    101          8           0       23.082527   -3.302516   -0.858152
    102          6           0       24.538954   -1.848780    0.290975
    103          7           0       17.645383   -2.549355   -0.926362
    104          6           0       18.783467   -3.277691   -1.072347
    105          6           0       18.458353   -4.706900   -1.503267
    106          6           0       16.893500   -4.759423   -1.323671
    107          6           0       16.561830   -3.312468   -1.016304
    108          6           0       18.976323   -5.280743   -2.855156
    109          6           0       16.329777   -5.811383   -0.279637
    110          6           0       16.075209   -5.405600    1.156636
    111          7           0       15.658517   -0.569734   -0.270957
    112          6           0       14.745997   -1.566300   -0.507687
    113          6           0       13.409334   -1.100435   -0.582052
    114          6           0       13.528404    0.218772   -0.156160
    115          6           0       14.908130    0.483434    0.041067
    116          6           0       12.083068   -1.781590   -0.893478
    117          6           0       12.846347    1.408066    0.113121
    118          8           0       11.656720    1.636955   -0.005823
    119          6           0       13.908576    2.573329    0.528531
    120          6           0       13.787795    3.654189   -0.442038
    121          8           0       14.063782    3.581734   -1.655943
    122          8           0       13.278115    4.799274    0.084135
    123          6           0       12.809510    5.850209   -0.826195
    124          1           0       20.749485    2.617012    0.952304
    125          1           0       20.778849   -3.589911   -0.905853
    126          1           0       14.459800   -3.629399   -0.805703
    127          1           0       16.302273    4.450834    0.406660
    128          1           0       18.924990    4.083606    1.807429
    129          1           0       19.663569    5.419846    0.300134
    130          1           0       18.098500    5.147162   -0.657796
    131          1           0       19.647130    4.270859   -0.939819
    132          1           0       17.322290    4.015759    3.075720
    133          1           0       15.837548    3.264528    2.979796
    134          1           0       15.550201    5.453161    3.977219
    135          1           0       14.760526    5.402301    2.391082
    136          1           0       23.649623    0.519830    1.482463
    137          1           0       22.542248    1.862516    1.360546
    138          1           0       23.563223    1.474659   -0.026001
    139          1           0       24.526474   -1.432565    1.298737
    140          1           0       25.075280   -1.284014   -0.472815
    141          1           0       25.066596   -2.798255    0.386410
    142          1           0       19.016294   -5.309841   -0.786521
    143          1           0       16.379669   -5.130835   -2.209516
    144          1           0       18.149816   -5.401728   -3.555256
    145          1           0       19.392540   -6.262158   -2.628416
    146          1           0       19.726771   -4.573387   -3.206395
    147          1           0       17.037936   -6.638761   -0.265175
    148          1           0       15.373742   -6.201016   -0.630059
    149          1           0       16.560421   -6.081409    1.861269
    150          1           0       15.016605   -5.351372    1.414096
    151          1           0       16.501524   -4.405995    1.241377
    152          1           0       12.259374   -2.845310   -1.057759
    153          1           0       11.638653   -1.313635   -1.772255
    154          1           0       11.415469   -1.641182   -0.043826
    155          1           0       13.477051    2.893698    1.477263
    156          1           0       12.071371    6.521604   -0.387254
    157          1           0       12.502195    5.512753   -1.815579
    158          1           0       13.657427    6.527774   -0.927604
 ---------------------------------------------------------------------

 SCF Done:  E(RPBE1PBE) =  -4067.43885592     A.U. after   16 cycles

 Excitation energies and oscillator strengths:

 Excited State   1:      Singlet-A      1.8037 eV  687.38 nm  f=0.0000  <S**2>=0.000
     312 -> 313        0.70710
 This state for optimization and/or second-order correction.
 Total Energy, E(TD-HF/TD-DFT) =  -4067.37257086
 Copying the excited state density for this state as the 1-particle RhoCI density.

 Excited State   2:      Singlet-A      1.8775 eV  660.36 nm  f=0.3996  <S**2>=0.000
     309 -> 316        0.17170
     311 -> 313        0.69319
     311 <- 313       -0.11023

 Excited State   3:      Singlet-A      1.8897 eV  656.10 nm  f=0.3679  <S**2>=0.000
     310 -> 315        0.18003
     312 -> 314        0.68943
     312 <- 314       -0.10434

 Excited State   4:      Singlet-A      2.1601 eV  573.96 nm  f=0.0000  <S**2>=0.000
     311 -> 314        0.70711

 Excited State   5:      Singlet-A      2.2058 eV  562.09 nm  f=0.1656  <S**2>=0.000
     309 -> 313        0.67020
     311 -> 316       -0.21425

 The electronic state is 1-A.
 Alpha  occ. eigenvalues --  -46.92503 -46.92252 -19.26548 -19.25692 -19.19495
 Alpha  occ. eigenvalues --  -19.19233 -19.19047 -19.18919 -19.18744 -19.18539
 Alpha  occ. eigenvalues --  -14.41623 -14.41289 -14.41194 -14.41042 -14.39177
 Alpha  occ. eigenvalues --  -14.39157 -14.39150 -14.38870 -10.36522 -10.35914
 Alpha  occ. eigenvalues --  -10.32442 -10.32026 -10.31995 -10.31730 -10.29498
 Alpha  occ. eigenvalues --  -10.28849 -10.28822 -10.28715 -10.28526 -10.28299
 Alpha  occ. eigenvalues --  -10.28298 -10.28197 -10.28095 -10.27800 -10.27785
 Alpha  occ. eigenvalues --  -10.27689 -10.27688 -10.27679 -10.27678 -10.27647
 Alpha  occ. eigenvalues --  -10.26790 -10.26779 -10.26739 -10.26349 -10.26294
 Alpha  occ. eigenvalues --  -10.26063 -10.26051 -10.26036 -10.25929 -10.25910
 Alpha  occ. eigenvalues --  -10.25819 -10.25792 -10.25775 -10.25747 -10.25614
 Alpha  occ. eigenvalues --  -10.25578 -10.25365 -10.25354 -10.25223 -10.25195
 Alpha  occ. eigenvalues --  -10.25140 -10.25138 -10.25057 -10.24965 -10.24749
 Alpha  occ. eigenvalues --  -10.24597 -10.24485 -10.24291 -10.24273 -10.24091
 Alpha  occ. eigenvalues --  -10.23884 -10.23882 -10.23670 -10.23644 -10.23550
 Alpha  occ. eigenvalues --  -10.23505 -10.23470 -10.23403 -10.23316 -10.23199
 Alpha  occ. eigenvalues --  -10.22990 -10.22987 -10.22827 -10.22776 -10.22451
 Alpha  occ. eigenvalues --  -10.22414  -3.14691  -3.14259  -1.87515  -1.87122
 Alpha  occ. eigenvalues --   -1.87026  -1.86964  -1.86617  -1.86489  -1.11158
 Alpha  occ. eigenvalues --   -1.10611  -1.05683  -1.04712  -1.04131  -1.03573
 Alpha  occ. eigenvalues --   -1.01874  -1.00618  -1.00092  -0.99714  -0.99324
 Alpha  occ. eigenvalues --   -0.98779  -0.98692  -0.98130  -0.98031  -0.95570
 Alpha  occ. eigenvalues --   -0.86992  -0.86810  -0.83393  -0.83319  -0.82554
 Alpha  occ. eigenvalues --   -0.82533  -0.82458  -0.82171  -0.81990  -0.81692
 Alpha  occ. eigenvalues --   -0.81484  -0.81048  -0.80737  -0.80434  -0.78581
 Alpha  occ. eigenvalues --   -0.78222  -0.78038  -0.77807  -0.76936  -0.76554
 Alpha  occ. eigenvalues --   -0.76008  -0.75973  -0.75495  -0.75491  -0.74874
 Alpha  occ. eigenvalues --   -0.74607  -0.72730  -0.72667  -0.71827  -0.71801
 Alpha  occ. eigenvalues --   -0.71587  -0.71405  -0.70548  -0.70520  -0.69849
 Alpha  occ. eigenvalues --   -0.69218  -0.68013  -0.67038  -0.65991  -0.65954
 Alpha  occ. eigenvalues --   -0.64020  -0.63650  -0.63524  -0.62719  -0.62563
 Alpha  occ. eigenvalues --   -0.62442  -0.61537  -0.61337  -0.60233  -0.60040
 Alpha  occ. eigenvalues --   -0.59826  -0.59683  -0.59580  -0.59237  -0.58856
 Alpha  occ. eigenvalues --   -0.58768  -0.57287  -0.56844  -0.54724  -0.54409
 Alpha  occ. eigenvalues --   -0.54368  -0.54087  -0.53751  -0.53653  -0.53192
 Alpha  occ. eigenvalues --   -0.52880  -0.52871  -0.52440  -0.51887  -0.51840
 Alpha  occ. eigenvalues --   -0.50850  -0.50662  -0.50290  -0.49890  -0.49866
 Alpha  occ. eigenvalues --   -0.49589  -0.49332  -0.49241  -0.48607  -0.48492
 Alpha  occ. eigenvalues --   -0.48036  -0.47859  -0.47768  -0.47586  -0.47338
 Alpha  occ. eigenvalues --   -0.47235  -0.47123  -0.46910  -0.46759  -0.46620
 Alpha  occ. eigenvalues --   -0.46582  -0.46226  -0.46089  -0.45988  -0.45792
 Alpha  occ. eigenvalues --   -0.45704  -0.45387  -0.45065  -0.44840  -0.44822
 Alpha  occ. eigenvalues --   -0.44494  -0.44466  -0.44391  -0.44152  -0.43899
 Alpha  occ. eigenvalues --   -0.43875  -0.43672  -0.43526  -0.43416  -0.43373
 Alpha  occ. eigenvalues --   -0.43168  -0.43118  -0.43024  -0.42813  -0.42737
 Alpha  occ. eigenvalues --   -0.42565  -0.42529  -0.42135  -0.42093  -0.41832
 Alpha  occ. eigenvalues --   -0.41818  -0.41744  -0.41599  -0.41330  -0.41209
 Alpha  occ. eigenvalues --   -0.40933  -0.40929  -0.40722  -0.40625  -0.40612
 Alpha  occ. eigenvalues --   -0.40428  -0.40244  -0.40098  -0.39888  -0.39761
 Alpha  occ. eigenvalues --   -0.39716  -0.39293  -0.39232  -0.39109  -0.38837
 Alpha  occ. eigenvalues --   -0.38776  -0.38573  -0.38398  -0.38395  -0.38291
 Alpha  occ. eigenvalues --   -0.38204  -0.37971  -0.37957  -0.37803  -0.37739
 Alpha  occ. eigenvalues --   -0.37492  -0.37123  -0.36948  -0.36779  -0.36574
 Alpha  occ. eigenvalues --   -0.36573  -0.36365  -0.36321  -0.36185  -0.36004
 Alpha  occ. eigenvalues --   -0.35956  -0.35733  -0.35517  -0.35467  -0.35243
 Alpha  occ. eigenvalues --   -0.34961  -0.34833  -0.34751  -0.34489  -0.34478
 Alpha  occ. eigenvalues --   -0.33435  -0.33209  -0.33133  -0.32451  -0.32326
 Alpha  occ. eigenvalues --   -0.32164  -0.31697  -0.31671  -0.31630  -0.31115
 Alpha  occ. eigenvalues --   -0.31050  -0.30578  -0.29744  -0.29233  -0.28889
 Alpha  occ. eigenvalues --   -0.28642  -0.28465  -0.28000  -0.26984  -0.26664
 Alpha  occ. eigenvalues --   -0.26537  -0.26123  -0.25771  -0.25647  -0.25553
 Alpha  occ. eigenvalues --   -0.25519  -0.25395  -0.25097  -0.20826  -0.20784
 Alpha  occ. eigenvalues --   -0.19072  -0.18470
 Alpha virt. eigenvalues --   -0.11464  -0.10754  -0.05184  -0.04781  -0.03939
 Alpha virt. eigenvalues --   -0.03620  -0.01929  -0.01793  -0.00974  -0.00203
 Alpha virt. eigenvalues --    0.00160   0.00377   0.01348   0.01817   0.01972

 Mulliken charges:
               1
     1  Mg  12.000000
     2  C    6.000000
     3  C    6.000000
     4  C    6.000000
     5  C    6.000000
     6  N    7.000000
     7  C    6.000000
     8  C    6.000000
     9  C    6.000000
    10  C    6.000000
    11  C    6.000000
    12  C    6.000000
    13  C    6.000000
    14  H    1.000000
    15  N    7.000000
    16  C    6.000000
    17  C    6.000000
    18  C    6.000000
    19  C    6.000000
    20  C    6.000000
    21  C    6.000000
    22  O    8.000000
    23  C    6.000000
    24  N    7.000000
    25  C    6.000000
    26  C    6.000000
    27  C    6.000000
    28  C    6.000000
    29  C    6.000000
    30  C    6.000000
    31  C    6.000000
    32  N    7.000000
    33  C    6.000000
    34  C    6.000000
    35  C    6.000000
    36  C    6.000000
    37  C    6.000000
    38  C    6.000000
    39  O    8.000000
    40  C    6.000000
    41  C    6.000000
    42  O    8.000000
    43  O    8.000000
    44  C    6.000000
    45  H    1.000000
    46  H    1.000000
    47  H    1.000000
    48  H    1.000000
    49  H    1.000000
    50  H    1.000000
    51  H    1.000000
    52  H    1.000000
    53  H    1.000000
    54  H    1.000000
    55  H    1.000000
    56  H    1.000000
    57  H    1.000000
    58  H    1.000000
    59  H    1.000000
    60  H    1.000000
    61  H    1.000000
    62  H    1.000000
    63  H    1.000000
    64  H    1.000000
    65  H    1.000000
    66  H    1.000000
    67  H    1.000000
    68  H    1.000000
    69  H    1.000000
    70  H    1.000000
    71  H    1.000000
    72  H    1.000000
    73  H    1.000000
    74  H    1.000000
    75  H    1.000000
    76  H    1.000000
    77  H    1.000000
    78  H    1.000000
    79  H    1.000000
    80  Mg  12.000000
    81  C    6.000000
    82  C    6.000000
    83  C    6.000000
    84  C    6.000000
    85  N    7.000000
    86  C    6.000000
    87  C    6.000000
    88  C    6.000000
    89  C    6.000000
    90  C    6.000000
    91  C    6.000000
    92  C    6.000000
    93  H    1.000000
    94  N    7.000000
    95  C    6.000000
    96  C    6.000000
    97  C    6.000000
    98  C    6.000000
    99  C    6.000000
   100  C    6.000000
   101  O    8.000000
   102  C    6.000000
   103  N    7.000000
   104  C    6.000000
   105  C    6.000000
   106  C    6.000000
   107  C    6.000000
   108  C    6.000000
   109  C    6.000000
   110  C    6.000000
   111  N    7.000000
   112  C    6.000000
   113  C    6.000000
   114  C    6.000000
   115  C    6.000000
   116  C    6.000000
   117  C    6.000000
   118  O    8.000000
   119  C    6.000000
   120  C    6.000000
   121  O    8.000000
   122  O    8.000000
   123  C    6.000000
   124  H    1.000000
   125  H    1.000000
   126  H    1.000000
   127  H    1.000000
   128  H    1.000000
   129  H    1.000000
   130  H    1.000000
   131  H    1.000000
   132  H    1.000000
   133  H    1.000000
   134  H    1.000000
   135  H    1.000000
   136  H    1.000000
   137  H    1.000000
   138  H    1.000000
   139  H    1.000000
   140  H    1.000000
   141  H    1.000000
   142  H    1.000000
   143  H    1.000000
   144  H    1.000000
   145  H    1.000000
   146  H    1.000000
   147  H    1.000000
   148  H    1.000000
   149  H    1.000000
   150  H    1.000000
   151  H    1.000000
   152  H    1.000000
   153  H    1.000000
   154  H    1.000000
   155  H    1.000000
   156  H    1.000000
   157  H    1.000000
   158  H    1.000000
 Sum of Mulliken charges = 624.00000

 Dipole moment (field-independent basis, Debye):
    X=             -0.0000    Y=              0.0000    Z=             -0.0000  Tot=              0.0000
 Quadrupole moment (field-independent basis, Debye-Ang):
   XX=             -0.0000   YY=              0.0000   ZZ=             -0.0000
   XY=             -0.0000   XZ=              0.0000   YZ=              0.0000

 Normal termination of Gaussian 16 at Fri Oct 15 03:29:51 2021.
