 Gaussian 16, Revision A.03,
 Gaussian 16:  ES64L-G16RevA.03 25-Dec-2016

 --------------------------------------------------------
 #p PBE1PBE/Def2SVP td=(nstates=5) density=(transition=1)
 --------------------------------------------------------

 --------------------------------
 TDDFT excited states in gaussian
 --------------------------------
 Symbolic Z-matrix:
 Charge =  0 Multiplicity = 1

                         Standard orientation:
 ---------------------------------------------------------------------
 Center     Atomic      Atomic             Coordinates (Angstroms)
 Number     Number       Type             X           Y           Z
 ---------------------------------------------------------------------
      1         12           0      -28.467310    0.048372   -0.741607
      2          6           0      -24.996127   -0.289291    0.308069
      3          6           0      -28.824304   -3.310723   -0.126292
      4          6           0      -31.731534    0.566826   -0.233215
      5          6           0      -27.893939    3.326369   -1.428860
      6          7           0      -27.073370   -1.566390    0.205221
      7          6           0      -25.661524   -1.477393    0.482168
      8          6           0      -25.109939   -2.877837    0.763747
      9          6           0      -26.225364   -3.841761    0.262225
     10          6           0      -27.491499   -2.896268    0.070290
     11          6           0      -25.865679   -4.579766   -1.113153
     12          6           0      -24.552849   -3.134367    2.133494
     13          6           0      -24.937301   -2.143990    3.257968
     14          1           0      -24.547639   -2.239969    4.744374
     15          7           0      -30.105872   -1.241646   -0.377800
     16          6           0      -30.029068   -2.595018   -0.133535
     17          6           0      -31.423408   -3.127177   -0.027074
     18          6           0      -32.213650   -1.983449    0.054008
     19          6           0      -31.388196   -0.792167   -0.130521
     20          6           0      -31.677124   -4.587739    0.097639
     21          6           0      -33.747471   -1.990411    0.318614
     22          8           0      -34.278967   -3.060985    0.554128
     23          6           0      -34.590747   -0.765983    0.453118
     24          7           0      -29.570022    1.779029   -0.679369
     25          6           0      -30.957397    1.672831   -0.588212
     26          6           0      -31.627942    3.023583   -0.838657
     27          6           0      -30.478792    3.856600   -1.513790
     28          6           0      -29.275071    2.951136   -1.243375
     29          6           0      -32.933700    3.057915   -1.673826
     30          6           0      -30.297603    5.321060   -1.000376
     31          6           0      -30.778133    6.474536   -1.994813
     32          7           0      -26.788244    1.299168   -0.686555
     33          6           0      -26.707796    2.624851   -1.087380
     34          6           0      -25.323651    3.030054   -1.098307
     35          6           0      -24.684060    1.941975   -0.489064
     36          6           0      -25.637691    0.913659   -0.287990
     37          6           0      -24.846826    4.430356   -1.521167
     38          6           0      -23.423167    1.410568   -0.070775
     39          8           0      -22.324915    1.990926   -0.186697
     40          6           0      -23.508562   -0.124938    0.344057
     41          6           0      -22.853369   -0.183693    1.665949
     42          8           0      -23.071273    0.555226    2.631881
     43          8           0      -22.060472   -1.283078    1.654003
     44          6           0      -21.142235   -1.451344    2.823708
     45          1           0      -28.940181   -4.375068    0.086429
     46          1           0      -32.802062    0.718088   -0.078081
     47          1           0      -27.723015    4.347327   -1.775482
     48          1           0      -24.303777   -2.857029    0.030376
     49          1           0      -26.567145   -4.534251    1.031678
     50          1           0      -25.764700   -5.622452   -0.814590
     51          1           0      -24.963129   -4.138090   -1.536240
     52          1           0      -26.744134   -4.457331   -1.747734
     53          1           0      -23.476205   -3.243134    2.003969
     54          1           0      -24.953663   -4.129097    2.331195
     55          1           0      -26.026333   -2.099914    3.223864
     56          1           0      -24.549030   -1.153651    3.019274
     57          1           0      -32.044454   -4.740172    1.112076
     58          1           0      -30.739811   -5.111757   -0.086858
     59          1           0      -32.375553   -4.900427   -0.679377
     60          1           0      -34.399986   -0.098938    1.292947
     61          1           0      -35.638114   -0.996339    0.645985
     62          1           0      -34.472958   -0.336379   -0.541605
     63          1           0      -31.815558    3.273615    0.206200
     64          1           0      -30.703225    3.813381   -2.579790
     65          1           0      -33.836550    3.134104   -1.067042
     66          1           0      -33.041502    2.120753   -2.218889
     67          1           0      -32.837266    3.869826   -2.395488
     68          1           0      -29.278169    5.568919   -0.703388
     69          1           0      -30.858305    5.340288   -0.065763
     70          1           0      -31.306557    7.145976   -1.318493
     71          1           0      -31.434039    6.144447   -2.800516
     72          1           0      -29.884313    6.853021   -2.489451
     73          1           0      -23.841414    4.473179   -1.940574
     74          1           0      -24.848805    4.942456   -0.559566
     75          1           0      -25.453164    4.800737   -2.347480
     76          1           0      -23.007065   -0.729479   -0.413106
     77          1           0      -20.567487   -2.369800    2.699593
     78          1           0      -21.701757   -1.536855    3.755419
     79          1           0      -20.531327   -0.551971    2.760116
     80         12           0       27.932418    0.708826   -0.304822
     81          6           0       26.704558   -2.501659   -0.643318
     82          6           0       24.967099    1.580122    1.211111
     83          6           0       29.351447    3.712045    0.570527
     84          6           0       30.910541   -0.269564   -1.727750
     85          7           0       26.151269   -0.372830    0.397427
     86          6           0       25.860545   -1.681438    0.065598
     87          6           0       24.479892   -2.101171    0.563025
     88          6           0       23.819613   -0.699343    0.840576
     89          6           0       25.045115    0.202461    0.862575
     90          6           0       22.640373   -0.238991   -0.130865
     91          6           0       24.447970   -3.103977    1.760232
     92          6           0       23.470813   -4.253174    1.629559
     93          1           0       22.310927   -4.133349    2.605833
     94          7           0       27.236093    2.359974    0.747245
     95          6           0       26.011030    2.537198    1.254693
     96          6           0       25.872593    3.870394    1.814731
     97          6           0       27.062754    4.568057    1.693302
     98          6           0       27.982156    3.547408    1.028986
     99          6           0       24.536239    4.362755    2.549449
    100          6           0       27.327535    6.061131    2.084594
    101          8           0       26.404154    6.711161    2.651550
    102          6           0       28.638112    6.711334    1.856024
    103          7           0       30.002016    1.554272   -0.328854
    104          6           0       30.266815    2.817204   -0.085413
    105          6           0       31.597645    3.259624   -0.656894
    106          6           0       32.227044    2.002124   -1.346916
    107          6           0       30.966803    1.019345   -1.216516
    108          6           0       31.712856    4.629029   -1.399633
    109          6           0       33.525064    1.356208   -0.781405
    110          6           0       34.214344    0.445178   -1.776043
    111          7           0       28.689217   -1.066134   -1.044346
    112          6           0       29.923273   -1.311324   -1.689828
    113          6           0       29.901212   -2.661104   -2.183858
    114          6           0       28.635129   -3.190930   -1.834523
    115          6           0       27.998835   -2.179474   -1.120336
    116          6           0       30.912796   -3.298343   -3.124842
    117          6           0       27.858026   -4.321644   -1.963790
    118          8           0       28.027726   -5.435544   -2.379117
    119          6           0       26.570408   -3.987691   -1.045476
    120          6           0       26.839455   -4.747300    0.252660
    121          8           0       27.569360   -4.378487    1.152547
    122          8           0       26.112453   -5.924768    0.183351
    123          6           0       26.310554   -6.861881    1.284358
    124          1           0       23.992865    1.969267    1.513706
    125          1           0       29.734023    4.690455    0.867485
    126          1           0       31.733767   -0.677357   -2.318032
    127          1           0       23.946137   -2.531340   -0.283923
    128          1           0       23.533366   -0.695009    1.892940
    129          1           0       22.679614    0.844796   -0.022020
    130          1           0       21.641145   -0.484451    0.229703
    131          1           0       22.707749   -0.555913   -1.171507
    132          1           0       24.171563   -2.471403    2.604012
    133          1           0       25.408422   -3.458063    2.134170
    134          1           0       24.029454   -5.173285    1.802577
    135          1           0       23.023059   -4.309942    0.637196
    136          1           0       23.746861    3.614161    2.629253
    137          1           0       24.121374    5.235440    2.043954
    138          1           0       24.685771    4.584488    3.605221
    139          1           0       28.870544    6.696702    0.791662
    140          1           0       29.402166    6.323467    2.529860
    141          1           0       28.431938    7.770935    2.001958
    142          1           0       32.393853    3.413899    0.071650
    143          1           0       32.240451    2.085386   -2.433905
    144          1           0       30.789336    5.165939   -1.178632
    145          1           0       31.956145    4.537441   -2.458807
    146          1           0       32.507424    5.275183   -1.026196
    147          1           0       33.234054    0.859717    0.144191
    148          1           0       34.135819    2.206704   -0.478701
    149          1           0       35.284814    0.491169   -1.574290
    150          1           0       34.072928    0.707245   -2.825247
    151          1           0       33.942932   -0.587629   -1.557385
    152          1           0       30.594489   -4.258695   -3.530536
    153          1           0       31.852656   -3.392100   -2.582352
    154          1           0       31.120507   -2.652643   -3.978163
    155          1           0       25.640026   -4.205302   -1.570912
    156          1           0       27.336796   -7.229219    1.268128
    157          1           0       25.587427   -7.676352    1.258734
    158          1           0       26.207020   -6.334098    2.232003
 ---------------------------------------------------------------------

 SCF Done:  E(RPBE1PBE) =  -4067.33848781     A.U. after   17 cycles

 Excitation energies and oscillator strengths:

 Excited State   1:      Singlet-A      1.8047 eV  686.99 nm  f=0.3455  <S**2>=0.000
     309 -> 316       -0.15290
     312 -> 313        0.69769
     312 <- 313       -0.11785
 This state for optimization and/or second-order correction.
 Total Energy, E(TD-HF/TD-DFT) =  -4067.27216499
 Copying the excited state density for this state as the 1-particle RhoCI density.

 Excited State   2:      Singlet-A      1.8858 eV  657.45 nm  f=0.3602  <S**2>=0.000
     310 -> 315        0.14505
     311 -> 314        0.69237

 Excited State   3:      Singlet-A      1.9426 eV  638.24 nm  f=0.0000  <S**2>=0.000
     312 -> 314        0.70711

 Excited State   4:      Singlet-A      2.0692 eV  599.19 nm  f=0.0000  <S**2>=0.000
     311 -> 313        0.70711

 Excited State   5:      Singlet-A      2.2301 eV  555.97 nm  f=0.1180  <S**2>=0.000
     310 -> 314        0.65851
     311 -> 315       -0.22036
     311 -> 317       -0.11523

 The electronic state is 1-A.
 Alpha  occ. eigenvalues --  -46.92784 -46.92684 -19.26067 -19.25311 -19.20263
 Alpha  occ. eigenvalues --  -19.20064 -19.19742 -19.19084 -19.18463 -19.17604
 Alpha  occ. eigenvalues --  -14.41968 -14.41710 -14.41575 -14.41152 -14.39966
 Alpha  occ. eigenvalues --  -14.39262 -14.38500 -14.38408 -10.36290 -10.36227
 Alpha  occ. eigenvalues --  -10.33819 -10.32492 -10.30962 -10.30932 -10.30212
 Alpha  occ. eigenvalues --  -10.29674 -10.29463 -10.29371 -10.29262 -10.29015
 Alpha  occ. eigenvalues --  -10.29001 -10.28530 -10.28465 -10.28393 -10.28284
 Alpha  occ. eigenvalues --  -10.28175 -10.28109 -10.27836 -10.27108 -10.26855
 Alpha  occ. eigenvalues --  -10.26830 -10.26484 -10.26441 -10.26389 -10.26353
 Alpha  occ. eigenvalues --  -10.26218 -10.26213 -10.26113 -10.26041 -10.26007
 Alpha  occ. eigenvalues --  -10.25829 -10.25821 -10.25614 -10.25570 -10.25518
 Alpha  occ. eigenvalues --  -10.25467 -10.25394 -10.25314 -10.25254 -10.25127
 Alpha  occ. eigenvalues --  -10.25106 -10.25075 -10.24951 -10.24896 -10.24838
 Alpha  occ. eigenvalues --  -10.24744 -10.24552 -10.24545 -10.24524 -10.24517
 Alpha  occ. eigenvalues --  -10.24495 -10.24443 -10.24382 -10.24329 -10.24278
 Alpha  occ. eigenvalues --  -10.23984 -10.23904 -10.23824 -10.23645 -10.23618
 Alpha  occ. eigenvalues --  -10.23538 -10.23509 -10.23332 -10.23109 -10.22021
 Alpha  occ. eigenvalues --  -10.21431  -3.14805  -3.14752  -1.87628  -1.87563
 Alpha  occ. eigenvalues --   -1.87183  -1.87149  -1.87032  -1.86956  -1.10897
 Alpha  occ. eigenvalues --   -1.10357  -1.05242  -1.05026  -1.03473  -1.02880
 Alpha  occ. eigenvalues --   -1.02374  -1.01620  -0.99683  -0.99155  -0.98778
 Alpha  occ. eigenvalues --   -0.98367  -0.97889  -0.97271  -0.97200  -0.94868
 Alpha  occ. eigenvalues --   -0.86403  -0.86224  -0.83651  -0.83465  -0.83225
 Alpha  occ. eigenvalues --   -0.82887  -0.82750  -0.82166  -0.81368  -0.81093
 Alpha  occ. eigenvalues --   -0.80904  -0.80565  -0.80511  -0.80350  -0.78640
 Alpha  occ. eigenvalues --   -0.78599  -0.78077  -0.77924  -0.77222  -0.76767
 Alpha  occ. eigenvalues --   -0.76594  -0.76342  -0.75346  -0.75181  -0.74590
 Alpha  occ. eigenvalues --   -0.74531  -0.72285  -0.72082  -0.71973  -0.71338
 Alpha  occ. eigenvalues --   -0.70919  -0.70848  -0.70353  -0.69741  -0.69538
 Alpha  occ. eigenvalues --   -0.69472  -0.67544  -0.66932  -0.66105  -0.66086
 Alpha  occ. eigenvalues --   -0.64078  -0.64029  -0.63472  -0.63331  -0.62472
 Alpha  occ. eigenvalues --   -0.62161  -0.61601  -0.61323  -0.60565  -0.60015
 Alpha  occ. eigenvalues --   -0.59902  -0.59801  -0.59263  -0.59208  -0.58701
 Alpha  occ. eigenvalues --   -0.58133  -0.56760  -0.56387  -0.54347  -0.54139
 Alpha  occ. eigenvalues --   -0.54108  -0.53761  -0.53684  -0.53558  -0.52980
 Alpha  occ. eigenvalues --   -0.52520  -0.52518  -0.52057  -0.52041  -0.51807
 Alpha  occ. eigenvalues --   -0.51361  -0.50824  -0.50728  -0.50119  -0.49739
 Alpha  occ. eigenvalues --   -0.49684  -0.49183  -0.48789  -0.48710  -0.48332
 Alpha  occ. eigenvalues --   -0.48313  -0.48084  -0.48017  -0.47771  -0.47753
 Alpha  occ. eigenvalues --   -0.47454  -0.47204  -0.47139  -0.46974  -0.46597
 Alpha  occ. eigenvalues --   -0.46482  -0.46193  -0.45922  -0.45806  -0.45698
 Alpha  occ. eigenvalues --   -0.45505  -0.45465  -0.45327  -0.45216  -0.44738
 Alpha  occ. eigenvalues --   -0.44596  -0.44531  -0.44337  -0.44256  -0.43988
 Alpha  occ. eigenvalues --   -0.43968  -0.43735  -0.43643  -0.43369  -0.43356
 Alpha  occ. eigenvalues --   -0.43244  -0.42995  -0.42859  -0.42809  -0.42467
 Alpha  occ. eigenvalues --   -0.42277  -0.42249  -0.42008  -0.41869  -0.41594
 Alpha  occ. eigenvalues --   -0.41563  -0.41371  -0.41252  -0.41240  -0.41029
 Alpha  occ. eigenvalues --   -0.41002  -0.40810  -0.40589  -0.40492  -0.40224
 Alpha  occ. eigenvalues --   -0.40076  -0.40014  -0.39940  -0.39919  -0.39709
 Alpha  occ. eigenvalues --   -0.39565  -0.39432  -0.39309  -0.38869  -0.38819
 Alpha  occ. eigenvalues --   -0.38794  -0.38731  -0.38501  -0.38348  -0.38239
 Alpha  occ. eigenvalues --   -0.38230  -0.37846  -0.37666  -0.37570  -0.37493
 Alpha  occ. eigenvalues --   -0.37372  -0.37370  -0.37172  -0.37074  -0.37061
 Alpha  occ. eigenvalues --   -0.37041  -0.36851  -0.36793  -0.36666  -0.36447
 Alpha  occ. eigenvalues --   -0.35961  -0.35838  -0.35751  -0.35355  -0.35087
 Alpha  occ. eigenvalues --   -0.34902  -0.34887  -0.34330  -0.34179  -0.34038
 Alpha  occ. eigenvalues --   -0.33942  -0.33386  -0.33023  -0.32429  -0.32414
 Alpha  occ. eigenvalues --   -0.32157  -0.31591  -0.31537  -0.31408  -0.31390
 Alpha  occ. eigenvalues --   -0.30868  -0.30471  -0.29636  -0.29274  -0.29251
 Alpha  occ. eigenvalues --   -0.29049  -0.28690  -0.28305  -0.27208  -0.27097
 Alpha  occ. eigenvalues --   -0.26758  -0.26382  -0.25836  -0.25403  -0.25296
 Alpha  occ. eigenvalues --   -0.25278  -0.24924  -0.24297  -0.21268  -0.20857
 Alpha  occ. eigenvalues --   -0.18935  -0.18458
 Alpha virt. eigenvalues --   -0.11099  -0.11082  -0.05462  -0.05302  -0.03903
 Alpha virt. eigenvalues --   -0.03127  -0.02505  -0.02013  -0.01400  -0.00921
 Alpha virt. eigenvalues --    0.00159   0.00899   0.01020   0.01273   0.02072

 Mulliken charges:
               1
     1  Mg  12.000294
     2  C    6.027380
     3  C    6.009015
     4  C    5.969003
     5  C    5.992073
     6  N    7.023522
     7  C    5.974260
     8  C    6.003542
     9  C    5.997869
    10  C    6.011960
    11  C    5.997985
    12  C    6.001349
    13  C    6.005812
    14  H    0.998040
    15  N    6.991858
    16  C    6.031738
    17  C    6.027041
    18  C    6.002063
    19  C    6.044986
    20  C    5.995481
    21  C    6.011844
    22  O    8.015877
    23  C    5.998195
    24  N    6.991486
    25  C    6.039217
    26  C    5.989818
    27  C    6.011388
    28  C    5.968139
    29  C    6.000071
    30  C    6.006504
    31  C    5.998025
    32  N    6.999683
    33  C    5.969577
    34  C    5.976025
    35  C    5.998484
    36  C    5.964415
    37  C    5.998791
    38  C    5.983823
    39  O    7.967588
    40  C    5.993081
    41  C    5.996091
    42  O    7.998904
    43  O    7.997749
    44  C    5.999924
    45  H    1.013262
    46  H    1.005102
    47  H    0.984267
    48  H    1.004885
    49  H    0.999191
    50  H    1.005000
    51  H    1.013924
    52  H    0.997194
    53  H    1.002805
    54  H    0.992215
    55  H    0.990099
    56  H    1.006857
    57  H    1.017439
    58  H    1.014213
    59  H    1.017962
    60  H    1.010309
    61  H    1.010935
    62  H    1.007548
    63  H    1.000476
    64  H    0.993353
    65  H    0.997154
    66  H    0.995099
    67  H    1.008784
    68  H    1.005428
    69  H    0.991087
    70  H    0.995148
    71  H    0.994371
    72  H    1.002510
    73  H    0.985109
    74  H    0.984504
    75  H    0.987011
    76  H    0.994257
    77  H    0.995429
    78  H    0.995936
    79  H    1.001161
    80  Mg  12.000005
    81  C    5.999985
    82  C    5.999951
    83  C    6.000007
    84  C    6.000050
    85  N    6.999966
    86  C    5.999993
    87  C    6.000010
    88  C    5.999982
    89  C    6.000083
    90  C    5.999996
    91  C    6.000012
    92  C    5.999992
    93  H    1.000012
    94  N    7.000022
    95  C    6.000069
    96  C    6.000074
    97  C    6.000018
    98  C    6.000027
    99  C    5.999978
   100  C    6.000062
   101  O    8.000068
   102  C    5.999978
   103  N    6.999998
   104  C    6.000014
   105  C    5.999966
   106  C    6.000006
   107  C    5.999940
   108  C    6.000004
   109  C    6.000023
   110  C    6.000001
   111  N    6.999969
   112  C    5.999911
   113  C    5.999936
   114  C    6.000018
   115  C    5.999960
   116  C    6.000012
   117  C    5.999924
   118  O    7.999929
   119  C    6.000013
   120  C    5.999987
   121  O    7.999984
   122  O    8.000005
   123  C    6.000008
   124  H    1.000053
   125  H    1.000004
   126  H    0.999960
   127  H    1.000012
   128  H    1.000014
   129  H    1.000009
   130  H    1.000048
   131  H    1.000027
   132  H    0.999984
   133  H    0.999989
   134  H    0.999991
   135  H    1.000011
   136  H    1.000055
   137  H    1.000064
   138  H    1.000044
   139  H    1.000016
   140  H    1.000000
   141  H    1.000029
   142  H    1.000008
   143  H    0.999999
   144  H    1.000006
   145  H    1.000009
   146  H    0.999991
   147  H    0.999989
   148  H    0.999964
   149  H    0.999968
   150  H    0.999997
   151  H    1.000009
   152  H    0.999961
   153  H    0.999942
   154  H    0.999951
   155  H    0.999991
   156  H    0.999977
   157  H    0.999990
   158  H    0.999988
 Sum of Mulliken charges = 624.00000

 Dipole moment (field-independent basis, Debye):
    X=             -7.1322    Y=             -7.0043    Z=              1.0184  Tot=             10.0482
 Quadrupole moment (field-independent basis, Debye-Ang):
   XX=            402.0571   YY=              0.0553   ZZ=             -2.3124
   XY=            200.5967   XZ=            -28.0752   YZ=              5.3391

 Normal termination of Gaussian 16 at Wed Oct 13 23:42:42 2021.
