 Gaussian 16, Revision A.03,
 Gaussian 16:  ES64L-G16RevA.03 25-Dec-2016

 --------------------------------------------------------
 #p PBE1PBE/Def2SVP td=(nstates=5) density=(transition=1)
 --------------------------------------------------------

 --------------------------------
 TDDFT excited states in gaussian
 --------------------------------
 Symbolic Z-matrix:
 Charge =  0 Multiplicity = 1

                         Standard orientation:
 ---------------------------------------------------------------------
 Center     Atomic      Atomic             Coordinates (Angstroms)
 Number     Number       Type             X           Y           Z
 ---------------------------------------------------------------------
      1         12           0       -0.641139   -0.018099   -0.414255
      2          6           0        2.832037    0.059683    0.206533
      3          6           0       -0.558227   -3.492662   -0.117232
      4          6           0       -4.021768    0.058057    0.009926
      5          6           0       -0.558532    3.553510   -0.156102
      6          7           0        0.942442   -1.489788   -0.044226
      7          6           0        2.245287   -1.236369    0.202136
      8          6           0        3.012268   -2.547245    0.572980
      9          6           0        1.959865   -3.641931    0.076171
     10          6           0        0.637854   -2.824244   -0.087440
     11          6           0        2.177062   -4.405903   -1.249681
     12          6           0        3.280302   -2.558969    2.125477
     13          6           0        4.640309   -3.193391    2.528672
     14          1           0        4.611298   -4.107846    3.820408
     15          7           0       -2.159645   -1.554606   -0.294803
     16          6           0       -1.872570   -2.892681   -0.238660
     17          6           0       -3.112142   -3.572036   -0.226860
     18          6           0       -4.164441   -2.614847   -0.119224
     19          6           0       -3.490214   -1.274917   -0.181994
     20          6           0       -3.276577   -5.073506   -0.226896
     21          6           0       -5.601935   -2.893300    0.160623
     22          8           0       -6.007538   -4.020632    0.393759
     23          6           0       -6.631427   -1.891231    0.254596
     24          7           0       -2.067071    1.632585   -0.002191
     25          6           0       -3.442024    1.357903   -0.043240
     26          6           0       -4.232083    2.628941   -0.066961
     27          6           0       -3.150621    3.771833   -0.053632
     28          6           0       -1.852941    2.982527   -0.069352
     29          6           0       -5.139146    2.629771   -1.304093
     30          6           0       -3.399864    4.868065    1.049634
     31          6           0       -3.527963    6.285350    0.579647
     32          7           0        0.833111    1.566662   -0.082756
     33          6           0        0.690288    2.932421   -0.067144
     34          6           0        2.015112    3.589373   -0.022523
     35          6           0        2.850658    2.454348    0.151944
     36          6           0        2.110536    1.294216    0.021445
     37          6           0        2.360558    5.068751    0.044467
     38          6           0        4.200898    2.080064    0.478952
     39          8           0        5.186386    2.791940    0.727759
     40          6           0        4.297377    0.555125    0.516632
     41          6           0        5.335518    0.061805   -0.407493
     42          8           0        6.254689   -0.578165   -0.043972
     43          8           0        5.027771    0.244457   -1.724653
     44          6           0        5.969885   -0.497764   -2.590124
     45          1           0       -0.558436   -4.585035   -0.107423
     46          1           0       -5.110949    0.007240    0.050812
     47          1           0       -0.340012    4.615477   -0.021700
     48          1           0        3.948846   -2.559628    0.015241
     49          1           0        1.579582   -4.306960    0.851384
     50          1           0        2.789800   -3.815448   -1.931822
     51          1           0        1.278806   -4.727281   -1.776990
     52          1           0        2.756614   -5.290034   -0.986245
     53          1           0        2.459479   -3.041999    2.656364
     54          1           0        3.269008   -1.507026    2.410929
     55          1           0        5.281703   -2.326964    2.690931
     56          1           0        4.951917   -3.691201    1.610154
     57          1           0       -4.235099   -5.455006   -0.578971
     58          1           0       -3.121310   -5.343594    0.817285
     59          1           0       -2.453553   -5.654550   -0.643020
     60          1           0       -6.677867   -1.397208   -0.716757
     61          1           0       -6.434620   -1.199168    1.073889
     62          1           0       -7.578168   -2.388937    0.464730
     63          1           0       -4.766379    2.765857    0.872885
     64          1           0       -2.941755    4.280805   -0.994859
     65          1           0       -5.237722    1.647511   -1.766844
     66          1           0       -4.753523    3.282848   -2.086964
     67          1           0       -6.173084    2.781873   -0.995781
     68          1           0       -2.553877    4.765772    1.729308
     69          1           0       -4.355111    4.768725    1.563836
     70          1           0       -2.795374    6.872792    1.132460
     71          1           0       -4.504592    6.706102    0.819667
     72          1           0       -3.474688    6.385153   -0.504510
     73          1           0        2.297697    5.470434    1.056007
     74          1           0        1.785080    5.677211   -0.654308
     75          1           0        3.425114    5.039741   -0.187537
     76          1           0        4.677520    0.236491    1.486381
     77          1           0        5.678894   -0.317956   -3.625389
     78          1           0        5.945550   -1.563189   -2.361681
     79          1           0        6.990528   -0.117092   -2.573217
 ---------------------------------------------------------------------

 SCF Done:  E(RPBE1PBE) =  -2033.66457609     A.U. after   16 cycles

 Excitation energies and oscillator strengths:

 Excited State   1:      Singlet-A      1.8469 eV  671.31 nm  f=0.3925  <S**2>=0.000
     155 ->158        -0.16862
     156 ->157         0.69420
     156 <-157        -0.11315
 This state for optimization and/or second-order correction.
 Total Energy, E(TD-HF/TD-DFT) =  -2033.59670383
 Copying the excited state density for this state as the 1-particle RhoCI density.

 Excited State   2:      Singlet-A      2.2122 eV  560.46 nm  f=0.1081  <S**2>=0.000
     155 ->157         0.65187
     156 ->158         0.25464

 Excited State   3:      Singlet-A      2.7153 eV  456.61 nm  f=0.0020  <S**2>=0.000
     154 ->157         0.68710

 Excited State   4:      Singlet-A      2.8465 eV  435.56 nm  f=0.0041  <S**2>=0.000
     152 ->157         0.21760
     153 ->157         0.65393

 Excited State   5:      Singlet-A      2.8605 eV  433.44 nm  f=0.0005  <S**2>=0.000
     152 ->157         0.63075
     152 ->159        -0.16099
     153 ->157        -0.23046

 The electronic state is 1-A.
 Alpha  occ. eigenvalues --  -46.94202 -19.25715 -19.20115 -19.18990 -19.17635
 Alpha  occ. eigenvalues --  -14.42427 -14.42304 -14.39596 -14.38888 -10.35713
 Alpha  occ. eigenvalues --  -10.31835 -10.30699 -10.29934 -10.29680 -10.29660
 Alpha  occ. eigenvalues --  -10.29032 -10.28906 -10.28806 -10.27803 -10.27683
 Alpha  occ. eigenvalues --  -10.26871 -10.26856 -10.26850 -10.26627 -10.26296
 Alpha  occ. eigenvalues --  -10.26294 -10.26275 -10.26108 -10.26027 -10.25827
 Alpha  occ. eigenvalues --  -10.25573 -10.25319 -10.24989 -10.24585 -10.24523
 Alpha  occ. eigenvalues --  -10.24417 -10.24385 -10.24041 -10.23916 -10.23163
 Alpha  occ. eigenvalues --  -10.23051 -10.22830 -10.22654  -3.15941  -1.88792
 Alpha  occ. eigenvalues --   -1.88294  -1.88156  -1.12725  -1.04374  -1.03869
 Alpha  occ. eigenvalues --   -1.03597  -0.99740  -0.98405  -0.98031  -0.97273
 Alpha  occ. eigenvalues --   -0.86940  -0.83710  -0.83368  -0.82561  -0.82354
 Alpha  occ. eigenvalues --   -0.81275  -0.80221  -0.79176  -0.78934  -0.77016
 Alpha  occ. eigenvalues --   -0.76755  -0.75227  -0.74925  -0.73000  -0.71905
 Alpha  occ. eigenvalues --   -0.71195  -0.70793  -0.69818  -0.67604  -0.66990
 Alpha  occ. eigenvalues --   -0.63793  -0.63638  -0.62422  -0.61334  -0.60774
 Alpha  occ. eigenvalues --   -0.60158  -0.59595  -0.59226  -0.57829  -0.54681
 Alpha  occ. eigenvalues --   -0.54559  -0.53589  -0.53500  -0.52864  -0.51669
 Alpha  occ. eigenvalues --   -0.51014  -0.50618  -0.50181  -0.49639  -0.49114
 Alpha  occ. eigenvalues --   -0.48214  -0.47994  -0.47781  -0.47410  -0.47099
 Alpha  occ. eigenvalues --   -0.46885  -0.46315  -0.46024  -0.45884  -0.45575
 Alpha  occ. eigenvalues --   -0.44722  -0.44521  -0.44223  -0.43909  -0.43685
 Alpha  occ. eigenvalues --   -0.43254  -0.43091  -0.42791  -0.42256  -0.42002
 Alpha  occ. eigenvalues --   -0.41666  -0.41577  -0.41438  -0.41092  -0.41024
 Alpha  occ. eigenvalues --   -0.40510  -0.39939  -0.39814  -0.39670  -0.39490
 Alpha  occ. eigenvalues --   -0.39158  -0.38846  -0.38474  -0.38239  -0.37865
 Alpha  occ. eigenvalues --   -0.37673  -0.37508  -0.37068  -0.36639  -0.36171
 Alpha  occ. eigenvalues --   -0.35935  -0.35596  -0.35026  -0.34579  -0.34162
 Alpha  occ. eigenvalues --   -0.33649  -0.32897  -0.32557  -0.32242  -0.31957
 Alpha  occ. eigenvalues --   -0.31441  -0.29816  -0.29362  -0.29059  -0.27148
 Alpha  occ. eigenvalues --   -0.25983  -0.25717  -0.25064  -0.24612  -0.21457
 Alpha  occ. eigenvalues --   -0.19256
 Alpha virt. eigenvalues --   -0.11790  -0.05764  -0.03908  -0.02013  -0.01535
 Alpha virt. eigenvalues --    0.00573   0.01287   0.01419   0.02509   0.03905
 Alpha virt. eigenvalues --    0.04279   0.05187   0.05653   0.06210   0.06438

 Mulliken charges:
               1
     1  Mg  12.001635
     2  C    6.018720
     3  C    5.987536
     4  C    5.983292
     5  C    6.001803
     6  N    7.003563
     7  C    5.966983
     8  C    6.007955
     9  C    5.997580
    10  C    6.029024
    11  C    5.992467
    12  C    6.001716
    13  C    6.001277
    14  H    0.992705
    15  N    6.990911
    16  C    6.042405
    17  C    6.019641
    18  C    6.007257
    19  C    6.043218
    20  C    5.996895
    21  C    6.011691
    22  O    8.020321
    23  C    5.995728
    24  N    6.998470
    25  C    6.032476
    26  C    5.988427
    27  C    6.006686
    28  C    5.970129
    29  C    5.997574
    30  C    6.000655
    31  C    6.002059
    32  N    7.000561
    33  C    5.968057
    34  C    5.967040
    35  C    6.000565
    36  C    5.972423
    37  C    5.999807
    38  C    5.982239
    39  O    7.969174
    40  C    6.001534
    41  C    5.995880
    42  O    7.991516
    43  O    8.003455
    44  C    6.002552
    45  H    1.009407
    46  H    1.007285
    47  H    0.992206
    48  H    1.002061
    49  H    0.996923
    50  H    1.013243
    51  H    0.994853
    52  H    1.007640
    53  H    0.988957
    54  H    1.007833
    55  H    1.004730
    56  H    0.996888
    57  H    1.014014
    58  H    1.019680
    59  H    1.019491
    60  H    1.009127
    61  H    1.010528
    62  H    1.012153
    63  H    1.002382
    64  H    1.004151
    65  H    0.992645
    66  H    1.010054
    67  H    1.002188
    68  H    1.002690
    69  H    0.989811
    70  H    1.002198
    71  H    0.994345
    72  H    0.997996
    73  H    0.979826
    74  H    0.982719
    75  H    0.988623
    76  H    0.991299
    77  H    0.995841
    78  H    0.992810
    79  H    0.997801
 Sum of Mulliken charges = 312.00000

 Dipole moment (field-independent basis, Debye):
    X=             -7.3253    Y=             -7.6286    Z=             -0.4822  Tot=             10.5871
 Quadrupole moment (field-independent basis, Debye-Ang):
   XX=              7.2951   YY=             -0.3975   ZZ=             -0.7085
   XY=              5.9603   XZ=             -0.3505   YZ=              0.4261

 Normal termination of Gaussian 16 at Wed Oct 13 18:58:18 2021.
