 Gaussian 16, Revision A.03,
 Gaussian 16:  ES64L-G16RevA.03 25-Dec-2016

 --------------------------------------------------------
 #p PBE1PBE/Def2SVP td=(nstates=5) density=(transition=1)
 --------------------------------------------------------

 --------------------------------
 TDDFT excited states in gaussian
 --------------------------------
 Symbolic Z-matrix:
 Charge =  0 Multiplicity = 1

                         Standard orientation:
 ---------------------------------------------------------------------
 Center     Atomic      Atomic             Coordinates (Angstroms)
 Number     Number       Type             X           Y           Z
 ---------------------------------------------------------------------
      1         12           0       -4.481269   -0.185164    1.124764
      2          6           0       -4.858816    3.035839   -0.144143
      3          6           0       -2.039623    0.967278    3.256686
      4          6           0       -4.044963   -3.403503    2.049039
      5          6           0       -6.735638   -1.325107   -1.402697
      6          7           0       -3.515851    1.744470    1.400403
      7          6           0       -3.831891    2.929199    0.810519
      8          6           0       -3.037966    4.089807    1.424000
      9          6           0       -2.051309    3.315798    2.405710
     10          6           0       -2.601856    1.886963    2.349065
     11          6           0       -0.604312    3.379852    1.931933
     12          6           0       -3.864092    5.102766    2.294101
     13          6           0       -3.352093    6.516935    2.382994
     14          1           0       -1.981184    6.816980    1.969095
     15          7           0       -3.300671   -1.054270    2.506849
     16          6           0       -2.336482   -0.390212    3.291288
     17          6           0       -1.857589   -1.357645    4.243535
     18          6           0       -2.442544   -2.620491    3.972739
     19          6           0       -3.313443   -2.404446    2.791151
     20          6           0       -0.720096   -1.081702    5.203410
     21          6           0       -2.323277   -3.914335    4.662831
     22          8           0       -2.730889   -4.957326    4.197656
     23          6           0       -1.498041   -4.032155    5.995352
     24          7           0       -5.403478   -2.145864    0.548645
     25          6           0       -5.022915   -3.276471    1.064014
     26          6           0       -5.757321   -4.480729    0.401481
     27          6           0       -6.664887   -3.846998   -0.637114
     28          6           0       -6.244668   -2.334430   -0.574047
     29          6           0       -4.699347   -5.567530   -0.111131
     30          6           0       -8.162272   -4.119157   -0.380883
     31          6           0       -8.818197   -5.322245   -1.156276
     32          7           0       -5.744972    0.619358   -0.238180
     33          6           0       -6.606853    0.046584   -1.206208
     34          6           0       -7.254553    1.044015   -1.969707
     35          6           0       -6.502604    2.242856   -1.612593
     36          6           0       -5.642514    1.882206   -0.536202
     37          6           0       -8.169036    0.805210   -3.157276
     38          6           0       -6.383705    3.603500   -1.987704
     39          8           0       -6.983028    4.286153   -2.808964
     40          6           0       -5.284396    4.231399   -0.902246
     41          6           0       -4.244240    4.907315   -1.746508
     42          8           0       -3.563237    4.338527   -2.606256
     43          8           0       -4.210715    6.320010   -1.551500
     44          6           0       -3.204033    7.065791   -2.369830
     45          1           0       -1.273162    1.401794    3.902930
     46          1           0       -3.711984   -4.418887    2.272314
     47          1           0       -7.469364   -1.612023   -2.158389
     48          1           0       -2.504956    4.561514    0.598174
     49          1           0       -2.055103    3.720753    3.417603
     50          1           0       -0.471731    4.148688    1.171221
     51          1           0       -0.221816    2.410371    1.611553
     52          1           0        0.086280    3.772038    2.678543
     53          1           0       -3.950792    4.678840    3.293928
     54          1           0       -4.888689    5.062540    1.923745
     55          1           0       -3.352095    6.786063    3.439018
     56          1           0       -4.008763    7.169190    1.807222
     57          1           0        0.177084   -1.660258    4.983573
     58          1           0       -1.081589   -1.268400    6.215497
     59          1           0       -0.335794   -0.061856    5.211660
     60          1           0       -0.454097   -4.109182    5.690359
     61          1           0       -1.695099   -4.991213    6.474584
     62          1           0       -1.619229   -3.140059    6.608619
     63          1           0       -6.313674   -4.912246    1.233776
     64          1           0       -6.375629   -4.123234   -1.649910
     65          1           0       -4.831535   -5.758847   -1.175947
     66          1           0       -4.843308   -6.555786    0.326039
     67          1           0       -3.727760   -5.107992    0.075001
     68          1           0       -8.685333   -3.205631   -0.665873
     69          1           0       -8.275150   -4.241675    0.696415
     70          1           0       -9.134161   -4.951585   -2.132045
     71          1           0       -9.620319   -5.884552   -0.677864
     72          1           0       -7.937884   -5.936394   -1.342906
     73          1           0       -9.142153    0.651178   -2.691730
     74          1           0       -7.884095   -0.092136   -3.705255
     75          1           0       -8.097575    1.521204   -3.977031
     76          1           0       -5.807243    4.911240   -0.228391
     77          1           0       -3.411180    6.980814   -3.435979
     78          1           0       -2.148926    6.821684   -2.243452
     79          1           0       -3.444573    8.079308   -2.048861
     80         12           0        3.907754   -0.876484   -1.088996
     81          6           0        6.586556    1.110792   -0.244978
     82          6           0        1.870682    1.964852   -0.899960
     83          6           0        1.210193   -2.769107   -1.820792
     84          6           0        5.866698   -3.640400   -0.887601
     85          7           0        4.190808    1.264449   -0.353985
     86          6           0        5.450603    1.873478   -0.296873
     87          6           0        5.351857    3.411625   -0.320665
     88          6           0        3.793458    3.600746   -0.422031
     89          6           0        3.204391    2.220580   -0.619835
     90          6           0        3.198433    4.315920    0.784375
     91          6           0        6.120380    4.220388   -1.424900
     92          6           0        7.347611    5.163254   -0.932362
     93          1           0        7.104832    6.629258   -1.304367
     94          7           0        1.855280   -0.505469   -1.225500
     95          6           0        1.239819    0.756597   -1.243971
     96          6           0       -0.152480    0.665108   -1.695761
     97          6           0       -0.445245   -0.787215   -1.918226
     98          6           0        0.907233   -1.447380   -1.724765
     99          6           0       -1.059184    1.868505   -1.830993
    100          6           0       -1.671955   -1.478610   -2.287344
    101          8           0       -1.694107   -2.717898   -2.318171
    102          6           0       -2.975410   -0.755629   -2.578236
    103          7           0        3.616994   -2.856257   -1.223309
    104          6           0        2.426805   -3.454748   -1.676576
    105          6           0        2.528193   -5.005882   -1.971114
    106          6           0        4.086442   -5.230455   -1.610624
    107          6           0        4.554763   -3.807011   -1.232559
    108          6           0        1.530612   -5.918024   -1.100440
    109          6           0        4.878165   -5.843729   -2.816416
    110          6           0        5.940602   -6.854457   -2.517054
    111          7           0        5.852613   -1.203007   -0.541955
    112          6           0        6.548381   -2.415236   -0.560336
    113          6           0        7.939454   -2.206679   -0.344849
    114          6           0        8.018574   -0.765399   -0.306816
    115          6           0        6.714371   -0.257025   -0.355531
    116          6           0        9.068697   -3.148651   -0.305948
    117          6           0        8.915121    0.321014   -0.063501
    118          8           0       10.136684    0.429387    0.090258
    119          6           0        7.968110    1.590565    0.132430
    120          6           0        8.119671    2.089477    1.524922
    121          8           0        7.424887    1.904044    2.445246
    122          8           0        9.197250    2.968395    1.605945
    123          6           0        9.116761    3.939959    2.676797
    124          1           0        1.259055    2.869144   -0.926069
    125          1           0        0.437212   -3.478484   -2.123464
    126          1           0        6.527172   -4.506071   -0.969860
    127          1           0        5.672013    3.794004    0.647957
    128          1           0        3.519842    4.264067   -1.243015
    129          1           0        2.549489    3.621365    1.317153
    130          1           0        2.605426    5.104907    0.323413
    131          1           0        3.912556    4.802947    1.448066
    132          1           0        5.394433    4.846303   -1.944476
    133          1           0        6.585178    3.553958   -2.151627
    134          1           0        8.172498    4.799014   -1.544984
    135          1           0        7.500644    5.058480    0.141513
    136          1           0       -1.317586    2.177747   -0.817469
    137          1           0       -1.955977    1.554487   -2.362871
    138          1           0       -0.564015    2.739767   -2.260267
    139          1           0       -3.752769   -1.515575   -2.496279
    140          1           0       -2.997527   -0.260658   -3.549682
    141          1           0       -3.336229   -0.053177   -1.827183
    142          1           0        2.434502   -5.184674   -3.041770
    143          1           0        4.274139   -5.940786   -0.805129
    144          1           0        2.059068   -6.827962   -0.815338
    145          1           0        0.666435   -6.331667   -1.618822
    146          1           0        1.156907   -5.411496   -0.210344
    147          1           0        5.315355   -5.100006   -3.482430
    148          1           0        4.242080   -6.434878   -3.474953
    149          1           0        6.872465   -6.358537   -2.788241
    150          1           0        6.040563   -7.750321   -3.129872
    151          1           0        5.930204   -7.096071   -1.453718
    152          1           0        8.813879   -4.014392   -0.917845
    153          1           0        9.119136   -3.455240    0.738759
    154          1           0        9.986707   -2.600303   -0.518157
    155          1           0        8.259688    2.383377   -0.555978
    156          1           0        9.377130    3.367702    3.566556
    157          1           0        8.071413    4.245891    2.715511
    158          1           0        9.832278    4.750915    2.537852
 ---------------------------------------------------------------------

 SCF Done:  E(RPBE1PBE) =  -4067.39980934     A.U. after   17 cycles

 Excitation energies and oscillator strengths:

 Excited State   1:      Singlet-A      1.5759 eV  786.74 nm  f=0.0002  <S**2>=0.000
     312 -> 313        0.70434
 This state for optimization and/or second-order correction.
 Total Energy, E(TD-HF/TD-DFT) =  -4067.34189491
 Copying the excited state density for this state as the 1-particle RhoCI density.

 Excited State   2:      Singlet-A      1.7007 eV  729.00 nm  f=0.0049  <S**2>=0.000
     311 -> 314        0.68951
     312 -> 314       -0.12751

 Excited State   3:      Singlet-A      1.8102 eV  684.92 nm  f=0.2999  <S**2>=0.000
     310 -> 315        0.14485
     311 -> 313        0.13810
     311 -> 314        0.14213
     312 -> 314        0.66530
     312 <- 314       -0.10827

 Excited State   4:      Singlet-A      1.8455 eV  671.82 nm  f=0.4414  <S**2>=0.000
     309 -> 316        0.16883
     311 -> 313        0.67236
     312 -> 314       -0.15371

 Excited State   5:      Singlet-A      2.1820 eV  568.22 nm  f=0.0026  <S**2>=0.000
     310 -> 313        0.68550
     310 -> 314       -0.13698

 The electronic state is 1-A.
 Alpha  occ. eigenvalues --  -46.91627 -46.91292 -19.25592 -19.22967 -19.20610
 Alpha  occ. eigenvalues --  -19.19879 -19.19237 -19.19210 -19.18684 -19.18396
 Alpha  occ. eigenvalues --  -14.42451 -14.41963 -14.41521 -14.41346 -14.39871
 Alpha  occ. eigenvalues --  -14.39768 -14.39561 -14.38307 -10.36922 -10.35219
 Alpha  occ. eigenvalues --  -10.32342 -10.32169 -10.31960 -10.31509 -10.29368
 Alpha  occ. eigenvalues --  -10.29309 -10.29232 -10.29131 -10.29098 -10.28958
 Alpha  occ. eigenvalues --  -10.28817 -10.28583 -10.28574 -10.28438 -10.28432
 Alpha  occ. eigenvalues --  -10.28338 -10.28078 -10.27999 -10.27579 -10.27342
 Alpha  occ. eigenvalues --  -10.27231 -10.27172 -10.27146 -10.27019 -10.26988
 Alpha  occ. eigenvalues --  -10.26345 -10.26336 -10.26296 -10.26222 -10.26147
 Alpha  occ. eigenvalues --  -10.26095 -10.25877 -10.25862 -10.25813 -10.25592
 Alpha  occ. eigenvalues --  -10.25460 -10.25454 -10.25433 -10.25416 -10.25334
 Alpha  occ. eigenvalues --  -10.25260 -10.25153 -10.24894 -10.24857 -10.24821
 Alpha  occ. eigenvalues --  -10.24801 -10.24783 -10.24355 -10.24113 -10.24106
 Alpha  occ. eigenvalues --  -10.24063 -10.23986 -10.23868 -10.23836 -10.23818
 Alpha  occ. eigenvalues --  -10.23664 -10.23570 -10.23540 -10.23367 -10.23299
 Alpha  occ. eigenvalues --  -10.23254 -10.23136 -10.23057 -10.23010 -10.22771
 Alpha  occ. eigenvalues --  -10.22444  -3.13901  -3.13627  -1.86757  -1.86439
 Alpha  occ. eigenvalues --   -1.86267  -1.86144  -1.86012  -1.85868  -1.11665
 Alpha  occ. eigenvalues --   -1.08996  -1.05619  -1.04094  -1.03858  -1.03034
 Alpha  occ. eigenvalues --   -1.02704  -1.01483  -1.00129  -0.99424  -0.99008
 Alpha  occ. eigenvalues --   -0.98326  -0.98000  -0.96987  -0.96583  -0.94984
 Alpha  occ. eigenvalues --   -0.87043  -0.86976  -0.83801  -0.83477  -0.83370
 Alpha  occ. eigenvalues --   -0.82932  -0.82815  -0.82693  -0.82190  -0.81867
 Alpha  occ. eigenvalues --   -0.81677  -0.81498  -0.80928  -0.80399  -0.78851
 Alpha  occ. eigenvalues --   -0.78421  -0.77767  -0.77519  -0.76684  -0.76627
 Alpha  occ. eigenvalues --   -0.75865  -0.75644  -0.75147  -0.74944  -0.74490
 Alpha  occ. eigenvalues --   -0.74458  -0.72925  -0.72633  -0.71871  -0.71539
 Alpha  occ. eigenvalues --   -0.71424  -0.70991  -0.70635  -0.69639  -0.69518
 Alpha  occ. eigenvalues --   -0.69485  -0.67865  -0.67421  -0.66259  -0.66061
 Alpha  occ. eigenvalues --   -0.63963  -0.63466  -0.63446  -0.63069  -0.62896
 Alpha  occ. eigenvalues --   -0.62406  -0.61882  -0.61832  -0.60576  -0.60054
 Alpha  occ. eigenvalues --   -0.59853  -0.59785  -0.59669  -0.59476  -0.59398
 Alpha  occ. eigenvalues --   -0.58460  -0.56561  -0.55501  -0.54973  -0.54514
 Alpha  occ. eigenvalues --   -0.54387  -0.54185  -0.53972  -0.53518  -0.53498
 Alpha  occ. eigenvalues --   -0.53125  -0.52814  -0.52766  -0.52180  -0.52164
 Alpha  occ. eigenvalues --   -0.50973  -0.50842  -0.50057  -0.49789  -0.49562
 Alpha  occ. eigenvalues --   -0.49531  -0.48941  -0.48499  -0.48334  -0.48278
 Alpha  occ. eigenvalues --   -0.47909  -0.47678  -0.47625  -0.47487  -0.47432
 Alpha  occ. eigenvalues --   -0.47288  -0.47104  -0.46811  -0.46787  -0.46769
 Alpha  occ. eigenvalues --   -0.46525  -0.46177  -0.46146  -0.45980  -0.45922
 Alpha  occ. eigenvalues --   -0.45766  -0.45642  -0.45384  -0.45087  -0.44812
 Alpha  occ. eigenvalues --   -0.44659  -0.44533  -0.44419  -0.44409  -0.44113
 Alpha  occ. eigenvalues --   -0.44022  -0.43954  -0.43864  -0.43709  -0.43415
 Alpha  occ. eigenvalues --   -0.43356  -0.43330  -0.43121  -0.43079  -0.43000
 Alpha  occ. eigenvalues --   -0.42756  -0.42545  -0.42388  -0.42304  -0.42167
 Alpha  occ. eigenvalues --   -0.41980  -0.41844  -0.41786  -0.41669  -0.41578
 Alpha  occ. eigenvalues --   -0.41337  -0.41182  -0.40876  -0.40708  -0.40554
 Alpha  occ. eigenvalues --   -0.40352  -0.40100  -0.40030  -0.40017  -0.39876
 Alpha  occ. eigenvalues --   -0.39741  -0.39499  -0.39333  -0.39151  -0.39027
 Alpha  occ. eigenvalues --   -0.38929  -0.38879  -0.38514  -0.38377  -0.38283
 Alpha  occ. eigenvalues --   -0.38271  -0.38134  -0.37950  -0.37766  -0.37645
 Alpha  occ. eigenvalues --   -0.37389  -0.37323  -0.37219  -0.37049  -0.36985
 Alpha  occ. eigenvalues --   -0.36662  -0.36504  -0.36440  -0.36349  -0.36236
 Alpha  occ. eigenvalues --   -0.35987  -0.35904  -0.35797  -0.35588  -0.35435
 Alpha  occ. eigenvalues --   -0.35055  -0.35027  -0.34873  -0.34423  -0.34008
 Alpha  occ. eigenvalues --   -0.33722  -0.33656  -0.33021  -0.32809  -0.32609
 Alpha  occ. eigenvalues --   -0.32551  -0.32309  -0.32083  -0.31506  -0.31473
 Alpha  occ. eigenvalues --   -0.31130  -0.29937  -0.29918  -0.29625  -0.29440
 Alpha  occ. eigenvalues --   -0.29234  -0.29164  -0.28616  -0.27195  -0.27010
 Alpha  occ. eigenvalues --   -0.26200  -0.25894  -0.25774  -0.25753  -0.25448
 Alpha  occ. eigenvalues --   -0.25402  -0.25107  -0.24772  -0.21331  -0.21229
 Alpha  occ. eigenvalues --   -0.19382  -0.18984
 Alpha virt. eigenvalues --   -0.11730  -0.11582  -0.05693  -0.05461  -0.04229
 Alpha virt. eigenvalues --   -0.04147  -0.02246  -0.02113  -0.00700  -0.00472
 Alpha virt. eigenvalues --    0.00793   0.00901   0.01164   0.01189   0.01647

 Mulliken charges:
               1
     1  Mg  12.000069
     2  C    6.000390
     3  C    6.000587
     4  C    5.999161
     5  C    5.999951
     6  N    7.001040
     7  C    5.998990
     8  C    6.000514
     9  C    5.999486
    10  C    6.000808
    11  C    5.999860
    12  C    6.000059
    13  C    5.999965
    14  H    0.999922
    15  N    6.999655
    16  C    6.000927
    17  C    6.000740
    18  C    6.000515
    19  C    6.000919
    20  C    5.999793
    21  C    6.000353
    22  O    8.001002
    23  C    5.999909
    24  N    6.999763
    25  C    6.000818
    26  C    5.999937
    27  C    6.000137
    28  C    5.999248
    29  C    5.999832
    30  C    6.000100
    31  C    5.999971
    32  N    6.999843
    33  C    5.998921
    34  C    5.999219
    35  C    5.999765
    36  C    5.999097
    37  C    6.000062
    38  C    5.999518
    39  O    7.999097
    40  C    5.999780
    41  C    5.999859
    42  O    7.999729
    43  O    7.999965
    44  C    6.000019
    45  H    1.000721
    46  H    1.000075
    47  H    0.999683
    48  H    1.000100
    49  H    1.000208
    50  H    1.000659
    51  H    0.999361
    52  H    1.000306
    53  H    0.999711
    54  H    1.000335
    55  H    0.999949
    56  H    1.000180
    57  H    1.000695
    58  H    1.000583
    59  H    1.000509
    60  H    1.000331
    61  H    1.000486
    62  H    1.000141
    63  H    0.999938
    64  H    0.999984
    65  H    1.000242
    66  H    1.000060
    67  H    1.000042
    68  H    1.000205
    69  H    0.999730
    70  H    1.000071
    71  H    0.999899
    72  H    0.999828
    73  H    0.999570
    74  H    0.999458
    75  H    0.999612
    76  H    0.999793
    77  H    1.000014
    78  H    0.999790
    79  H    0.999935
    80  Mg  11.999823
    81  C    6.000171
    82  C    5.999921
    83  C    5.999694
    84  C    6.000034
    85  N    7.000043
    86  C    5.999527
    87  C    6.000167
    88  C    5.999983
    89  C    6.000206
    90  C    5.999834
    91  C    6.000019
    92  C    6.000049
    93  H    0.999867
    94  N    7.000134
    95  C    5.999848
    96  C    6.000799
    97  C    5.999892
    98  C    6.000097
    99  C    5.999921
   100  C    6.000231
   101  O    8.000619
   102  C    5.999784
   103  N    7.000048
   104  C    6.000146
   105  C    5.999931
   106  C    6.000150
   107  C    5.999508
   108  C    5.999970
   109  C    6.000100
   110  C    6.000002
   111  N    6.999977
   112  C    5.999522
   113  C    5.999610
   114  C    5.999956
   115  C    5.999649
   116  C    6.000036
   117  C    5.999740
   118  O    7.999555
   119  C    6.000051
   120  C    5.999988
   121  O    7.999828
   122  O    8.000010
   123  C    6.000039
   124  H    0.999936
   125  H    1.000003
   126  H    0.999821
   127  H    0.999873
   128  H    0.999944
   129  H    0.999782
   130  H    1.000127
   131  H    1.000204
   132  H    0.999882
   133  H    1.000020
   134  H    1.000034
   135  H    0.999992
   136  H    0.999751
   137  H    1.000514
   138  H    1.000641
   139  H    1.000579
   140  H    1.000276
   141  H    1.000258
   142  H    0.999998
   143  H    0.999855
   144  H    1.000095
   145  H    0.999961
   146  H    0.999779
   147  H    1.000003
   148  H    0.999827
   149  H    1.000069
   150  H    0.999916
   151  H    0.999958
   152  H    0.999766
   153  H    0.999705
   154  H    0.999818
   155  H    0.999851
   156  H    0.999939
   157  H    0.999903
   158  H    0.999941
 Sum of Mulliken charges = 624.00000

 Dipole moment (field-independent basis, Debye):
    X=             -0.0151    Y=             -0.0755    Z=              0.2180  Tot=              0.2312
 Quadrupole moment (field-independent basis, Debye-Ang):
   XX=             -2.8349   YY=             -0.1031   ZZ=              0.7082
   XY=              0.6353   XZ=             -0.7570   YZ=             -0.1942

 Normal termination of Gaussian 16 at Fri Oct 15 11:46:58 2021.
