 Gaussian 16, Revision A.03,
 Gaussian 16:  ES64L-G16RevA.03 25-Dec-2016

 --------------------------------------------------------
 #p PBE1PBE/Def2SVP td=(nstates=5) density=(transition=1)
 --------------------------------------------------------

 --------------------------------
 TDDFT excited states in gaussian
 --------------------------------
 Symbolic Z-matrix:
 Charge =  0 Multiplicity = 1

                         Standard orientation:
 ---------------------------------------------------------------------
 Center     Atomic      Atomic             Coordinates (Angstroms)
 Number     Number       Type             X           Y           Z
 ---------------------------------------------------------------------
      1         12           0      -13.290093   -0.431068    0.315282
      2          6           0      -13.254706    2.686691   -1.115837
      3          6           0      -11.624290    0.860729    3.019683
      4          6           0      -13.216145   -3.597740    1.727682
      5          6           0      -14.570031   -1.766147   -2.617240
      6          7           0      -12.456440    1.568520    0.899779
      7          6           0      -12.671145    2.691286    0.152300
      8          6           0      -12.131855    3.867351    0.810941
      9          6           0      -11.405903    3.346545    2.041297
     10          6           0      -11.802219    1.805839    2.010841
     11          6           0       -9.857157    3.563619    2.151764
     12          6           0      -13.250589    4.916014    1.132301
     13          6           0      -12.844051    6.429399    1.083693
     14          1           0      -11.375103    6.774500    1.397913
     15          7           0      -12.612840   -1.204658    2.191944
     16          6           0      -11.962501   -0.472735    3.170599
     17          6           0      -11.637327   -1.368187    4.299275
     18          6           0      -12.111006   -2.701457    3.933467
     19          6           0      -12.697455   -2.549687    2.590498
     20          6           0      -10.905917   -0.938992    5.560682
     21          6           0      -12.127498   -3.942142    4.795579
     22          8           0      -12.644736   -4.980938    4.348578
     23          6           0      -11.533437   -4.037765    6.150941
     24          7           0      -13.741774   -2.423255   -0.364196
     25          6           0      -13.676067   -3.502953    0.420079
     26          6           0      -14.280414   -4.727798   -0.286490
     27          6           0      -14.974460   -4.123239   -1.625720
     28          6           0      -14.459859   -2.647146   -1.487511
     29          6           0      -13.201515   -5.823868   -0.546443
     30          6           0      -16.526999   -4.165313   -1.651532
     31          6           0      -17.150137   -5.122705   -2.678414
     32          7           0      -13.762770    0.259978   -1.556430
     33          6           0      -14.267934   -0.399928   -2.679090
     34          6           0      -14.473370    0.561127   -3.785395
     35          6           0      -14.058734    1.769303   -3.176947
     36          6           0      -13.632883    1.532723   -1.842510
     37          6           0      -15.020916    0.315975   -5.104334
     38          6           0      -13.994210    3.230412   -3.387056
     39          8           0      -14.332926    3.920468   -4.311629
     40          6           0      -13.428425    3.864248   -2.066519
     41          6           0      -12.259753    4.689788   -2.410697
     42          8           0      -11.193660    4.154196   -2.754374
     43          8           0      -12.413608    6.023576   -2.185964
     44          6           0      -11.247569    6.893456   -2.303519
     45          1           0      -11.095147    1.303587    3.866060
     46          1           0      -13.150163   -4.592507    2.173806
     47          1           0      -15.090521   -2.207861   -3.469433
     48          1           0      -11.407909    4.325189    0.135978
     49          1           0      -11.895404    3.674124    2.959196
     50          1           0       -9.295078    4.101332    1.387507
     51          1           0       -9.390126    2.584644    2.256607
     52          1           0       -9.550218    4.033644    3.086416
     53          1           0      -13.725612    4.664683    2.080684
     54          1           0      -14.113699    4.712117    0.498885
     55          1           0      -13.472498    7.006186    1.762862
     56          1           0      -12.921892    6.857727    0.084843
     57          1           0      -10.749273    0.137273    5.624161
     58          1           0       -9.907911   -1.376080    5.603474
     59          1           0      -11.539812   -1.099229    6.432623
     60          1           0      -11.792648   -5.026152    6.529215
     61          1           0      -11.887173   -3.267405    6.837403
     62          1           0      -10.462389   -3.843478    6.091766
     63          1           0      -15.113029   -5.067068    0.329885
     64          1           0      -14.562580   -4.551772   -2.539335
     65          1           0      -13.507072   -6.819415   -0.224265
     66          1           0      -12.278457   -5.593463   -0.013787
     67          1           0      -13.007182   -5.751353   -1.616790
     68          1           0      -16.981020   -3.193768   -1.843028
     69          1           0      -16.941669   -4.445790   -0.683048
     70          1           0      -16.463341   -5.947650   -2.868176
     71          1           0      -17.289089   -4.572184   -3.608321
     72          1           0      -18.136420   -5.385867   -2.298419
     73          1           0      -15.377780    1.224415   -5.589097
     74          1           0      -15.838462   -0.404673   -5.104719
     75          1           0      -14.191177    0.054024   -5.761014
     76          1           0      -14.289007    4.445732   -1.734060
     77          1           0      -10.847903    6.973647   -3.314797
     78          1           0      -10.482775    6.621944   -1.575933
     79          1           0      -11.533420    7.916868   -2.061087
     80         12           0       12.597811   -0.854091   -0.372829
     81          6           0       14.843394    1.865144   -0.045534
     82          6           0       10.178378    1.297797    0.944108
     83          6           0       10.358101   -3.230821   -0.711045
     84          6           0       15.296615   -2.988442   -0.873759
     85          7           0       12.560217    1.324300    0.315811
     86          6           0       13.536573    2.269344    0.222268
     87          6           0       13.162988    3.675660    0.721378
     88          6           0       11.639634    3.361082    1.144702
     89          6           0       11.485269    1.912453    0.787163
     90          6           0       11.334921    3.568426    2.681035
     91          6           0       13.272746    4.768875   -0.391033
     92          6           0       14.298551    5.895583   -0.397288
     93          1           0       13.950465    7.278629   -0.931629
     94          7           0       10.522957   -0.961017   -0.022696
     95          6           0        9.713578    0.006031    0.590732
     96          6           0        8.403958   -0.579432    0.771537
     97          6           0        8.381233   -1.829110    0.157195
     98          6           0        9.777098   -2.034257   -0.276182
     99          6           0        7.313556    0.275578    1.321033
    100          6           0        7.272781   -2.873171    0.026981
    101          8           0        7.403007   -3.970672   -0.523654
    102          6           0        5.920069   -2.474404    0.469266
    103          7           0       12.768016   -2.858873   -0.637767
    104          6           0       11.697265   -3.643119   -0.966707
    105          6           0       12.162878   -4.983162   -1.630708
    106          6           0       13.681578   -4.889268   -1.561484
    107          6           0       13.960879   -3.505565   -0.911651
    108          6           0       11.524919   -6.256189   -0.984487
    109          6           0       14.273050   -5.037325   -2.971584
    110          6           0       15.463160   -5.908022   -3.150888
    111          7           0       14.664658   -0.688858   -0.355080
    112          6           0       15.638018   -1.623833   -0.601450
    113          6           0       16.945238   -1.039384   -0.565580
    114          6           0       16.733952    0.420710   -0.442561
    115          6           0       15.294019    0.549791   -0.325463
    116          6           0       18.275747   -1.800012   -0.697985
    117          6           0       17.351432    1.768813   -0.368003
    118          8           0       18.527610    2.123757   -0.555045
    119          6           0       16.127742    2.742111   -0.113423
    120          6           0       16.552763    3.356876    1.183413
    121          8           0       16.363848    2.944343    2.321349
    122          8           0       17.086150    4.531453    0.986610
    123          6           0       17.725533    5.247931    2.116852
    124          1           0        9.503904    2.112678    1.214020
    125          1           0        9.731290   -4.117066   -0.827147
    126          1           0       16.124780   -3.661525   -1.103602
    127          1           0       13.767501    3.883095    1.605236
    128          1           0       10.838474    3.867603    0.605591
    129          1           0       12.190481    3.638999    3.352146
    130          1           0       10.740109    2.735934    3.055240
    131          1           0       10.745932    4.478944    2.792758
    132          1           0       12.310084    5.279969   -0.411737
    133          1           0       13.441332    4.303162   -1.361175
    134          1           0       15.004437    5.510978   -1.133575
    135          1           0       14.629558    5.895216    0.641286
    136          1           0        6.500937    0.406807    0.607850
    137          1           0        7.685413    1.266485    1.582883
    138          1           0        6.852325   -0.137647    2.217522
    139          1           0        5.663914   -1.510144    0.030118
    140          1           0        5.882563   -2.236008    1.532312
    141          1           0        5.127717   -3.158953    0.168178
    142          1           0       11.768803   -4.872075   -2.640756
    143          1           0       14.102335   -5.723139   -0.999836
    144          1           0       10.725536   -6.045291   -0.274279
    145          1           0       12.235734   -6.875823   -0.439029
    146          1           0       11.219388   -6.951212   -1.766458
    147          1           0       14.534036   -4.010074   -3.222816
    148          1           0       13.585105   -5.441340   -3.713874
    149          1           0       16.202606   -5.263929   -3.626192
    150          1           0       15.190069   -6.813249   -3.693097
    151          1           0       15.955286   -6.209858   -2.226078
    152          1           0       18.617117   -2.091224    0.294690
    153          1           0       18.990503   -1.150208   -1.202713
    154          1           0       18.165465   -2.728351   -1.258879
    155          1           0       16.143182    3.478287   -0.916902
    156          1           0       17.047408    5.474527    2.938863
    157          1           0       18.229336    6.171260    1.831613
    158          1           0       18.560719    4.747777    2.606215
 ---------------------------------------------------------------------

 SCF Done:  E(RPBE1PBE) =  -4067.40966299     A.U. after   16 cycles

 Excitation energies and oscillator strengths:

 Excited State   1:      Singlet-A      1.8638 eV  665.22 nm  f=0.3787  <S**2>=0.000
     310 -> 315        0.18285
     311 -> 313        0.68859
 This state for optimization and/or second-order correction.
 Total Energy, E(TD-HF/TD-DFT) =  -4067.34116930
 Copying the excited state density for this state as the 1-particle RhoCI density.

 Excited State   2:      Singlet-A      1.8898 eV  656.06 nm  f=0.3636  <S**2>=0.000
     309 -> 316        0.17977
     312 -> 314        0.68845
     312 <- 314       -0.10420

 Excited State   3:      Singlet-A      1.8961 eV  653.90 nm  f=0.0000  <S**2>=0.000
     312 -> 313        0.70709

 Excited State   4:      Singlet-A      2.0245 eV  612.41 nm  f=0.0000  <S**2>=0.000
     311 -> 314        0.70710

 Excited State   5:      Singlet-A      2.2119 eV  560.54 nm  f=0.1028  <S**2>=0.000
     310 -> 313        0.65034
     311 -> 315       -0.26777

 The electronic state is 1-A.
 Alpha  occ. eigenvalues --  -46.92343 -46.91965 -19.26652 -19.25967 -19.19599
 Alpha  occ. eigenvalues --  -19.19509 -19.19377 -19.19324 -19.18622 -19.18503
 Alpha  occ. eigenvalues --  -14.41957 -14.41560 -14.41377 -14.41287 -14.39360
 Alpha  occ. eigenvalues --  -14.39246 -14.38960 -14.38862 -10.36624 -10.35720
 Alpha  occ. eigenvalues --  -10.32861 -10.32809 -10.32110 -10.32087 -10.29607
 Alpha  occ. eigenvalues --  -10.29221 -10.29152 -10.28945 -10.28859 -10.28802
 Alpha  occ. eigenvalues --  -10.28491 -10.28416 -10.28393 -10.28388 -10.28188
 Alpha  occ. eigenvalues --  -10.28045 -10.27886 -10.27768 -10.27738 -10.26995
 Alpha  occ. eigenvalues --  -10.26905 -10.26880 -10.26880 -10.26843 -10.26616
 Alpha  occ. eigenvalues --  -10.26487 -10.26440 -10.26397 -10.26141 -10.26139
 Alpha  occ. eigenvalues --  -10.25925 -10.25924 -10.25884 -10.25854 -10.25731
 Alpha  occ. eigenvalues --  -10.25708 -10.25670 -10.25351 -10.25345 -10.25303
 Alpha  occ. eigenvalues --  -10.25283 -10.25154 -10.25065 -10.24936 -10.24893
 Alpha  occ. eigenvalues --  -10.24843 -10.24685 -10.24661 -10.24184 -10.24135
 Alpha  occ. eigenvalues --  -10.23947 -10.23858 -10.23757 -10.23717 -10.23623
 Alpha  occ. eigenvalues --  -10.23555 -10.23532 -10.23448 -10.23398 -10.23367
 Alpha  occ. eigenvalues --  -10.23302 -10.23081 -10.23065 -10.22934 -10.22845
 Alpha  occ. eigenvalues --  -10.22357  -3.14350  -3.14139  -1.87212  -1.86981
 Alpha  occ. eigenvalues --   -1.86707  -1.86579  -1.86516  -1.86366  -1.12656
 Alpha  occ. eigenvalues --   -1.11262  -1.05775  -1.04524  -1.03656  -1.03362
 Alpha  occ. eigenvalues --   -1.01978  -1.01360  -1.00044  -0.99807  -0.98782
 Alpha  occ. eigenvalues --   -0.98450  -0.98120  -0.97441  -0.96299  -0.95660
 Alpha  occ. eigenvalues --   -0.86903  -0.86320  -0.83839  -0.83491  -0.83225
 Alpha  occ. eigenvalues --   -0.82953  -0.82638  -0.82075  -0.81872  -0.81572
 Alpha  occ. eigenvalues --   -0.81140  -0.81089  -0.80523  -0.79523  -0.78691
 Alpha  occ. eigenvalues --   -0.78317  -0.77894  -0.77893  -0.77181  -0.76676
 Alpha  occ. eigenvalues --   -0.76646  -0.76061  -0.75585  -0.75203  -0.74964
 Alpha  occ. eigenvalues --   -0.74849  -0.72879  -0.72819  -0.71924  -0.71873
 Alpha  occ. eigenvalues --   -0.71679  -0.71211  -0.70614  -0.70602  -0.69495
 Alpha  occ. eigenvalues --   -0.69307  -0.67129  -0.66799  -0.66235  -0.66046
 Alpha  occ. eigenvalues --   -0.63622  -0.63498  -0.62798  -0.62654  -0.62534
 Alpha  occ. eigenvalues --   -0.62248  -0.61426  -0.61268  -0.60330  -0.60218
 Alpha  occ. eigenvalues --   -0.59908  -0.59724  -0.59673  -0.59398  -0.58948
 Alpha  occ. eigenvalues --   -0.58786  -0.57383  -0.57098  -0.55268  -0.54460
 Alpha  occ. eigenvalues --   -0.54177  -0.54010  -0.53843  -0.53631  -0.53287
 Alpha  occ. eigenvalues --   -0.53120  -0.52971  -0.52433  -0.52291  -0.51926
 Alpha  occ. eigenvalues --   -0.51138  -0.50752  -0.50390  -0.50215  -0.49978
 Alpha  occ. eigenvalues --   -0.49628  -0.49342  -0.48904  -0.48819  -0.48593
 Alpha  occ. eigenvalues --   -0.48437  -0.48124  -0.47913  -0.47672  -0.47430
 Alpha  occ. eigenvalues --   -0.47422  -0.47247  -0.47001  -0.46899  -0.46747
 Alpha  occ. eigenvalues --   -0.46671  -0.46306  -0.46171  -0.46106  -0.45883
 Alpha  occ. eigenvalues --   -0.45800  -0.45339  -0.44983  -0.44920  -0.44624
 Alpha  occ. eigenvalues --   -0.44584  -0.44480  -0.44388  -0.44226  -0.43994
 Alpha  occ. eigenvalues --   -0.43930  -0.43617  -0.43564  -0.43487  -0.43207
 Alpha  occ. eigenvalues --   -0.43147  -0.43123  -0.42877  -0.42836  -0.42648
 Alpha  occ. eigenvalues --   -0.42615  -0.42384  -0.42213  -0.42184  -0.41922
 Alpha  occ. eigenvalues --   -0.41840  -0.41427  -0.41279  -0.41011  -0.40989
 Alpha  occ. eigenvalues --   -0.40813  -0.40716  -0.40655  -0.40520  -0.40346
 Alpha  occ. eigenvalues --   -0.40338  -0.40223  -0.40021  -0.39981  -0.39816
 Alpha  occ. eigenvalues --   -0.39808  -0.39531  -0.39384  -0.39198  -0.39161
 Alpha  occ. eigenvalues --   -0.38873  -0.38805  -0.38661  -0.38483  -0.38378
 Alpha  occ. eigenvalues --   -0.38082  -0.38048  -0.37898  -0.37895  -0.37713
 Alpha  occ. eigenvalues --   -0.37593  -0.37387  -0.37048  -0.36707  -0.36676
 Alpha  occ. eigenvalues --   -0.36419  -0.36400  -0.36316  -0.36115  -0.36049
 Alpha  occ. eigenvalues --   -0.35822  -0.35729  -0.35608  -0.35353  -0.35324
 Alpha  occ. eigenvalues --   -0.35037  -0.34928  -0.34823  -0.34568  -0.34429
 Alpha  occ. eigenvalues --   -0.33428  -0.33215  -0.32916  -0.32543  -0.32262
 Alpha  occ. eigenvalues --   -0.32254  -0.31790  -0.31742  -0.31731  -0.31358
 Alpha  occ. eigenvalues --   -0.31142  -0.30879  -0.29694  -0.29322  -0.28983
 Alpha  occ. eigenvalues --   -0.28866  -0.28564  -0.28094  -0.27268  -0.26755
 Alpha  occ. eigenvalues --   -0.26328  -0.25953  -0.25861  -0.25730  -0.25711
 Alpha  occ. eigenvalues --   -0.25610  -0.25187  -0.24696  -0.20875  -0.20824
 Alpha  occ. eigenvalues --   -0.18786  -0.18560
 Alpha virt. eigenvalues --   -0.11069  -0.10844  -0.05396  -0.05273  -0.04396
 Alpha virt. eigenvalues --   -0.03711  -0.02285  -0.01882  -0.00303  -0.00173
 Alpha virt. eigenvalues --    0.00289   0.01058   0.01244   0.01611   0.01783

 Mulliken charges:
               1
     1  Mg  12.000094
     2  C    6.001445
     3  C    6.000094
     4  C    5.998271
     5  C    5.999767
     6  N    7.000680
     7  C    5.998211
     8  C    6.000758
     9  C    5.999699
    10  C    6.001608
    11  C    5.999825
    12  C    6.000282
    13  C    5.999986
    14  H    0.999913
    15  N    6.999636
    16  C    6.001843
    17  C    6.001563
    18  C    6.000774
    19  C    6.001971
    20  C    5.999764
    21  C    6.000646
    22  O    8.001531
    23  C    5.999765
    24  N    6.999229
    25  C    6.002063
    26  C    5.999449
    27  C    6.000555
    28  C    5.998383
    29  C    5.999839
    30  C    6.000525
    31  C    5.999954
    32  N    7.000227
    33  C    5.998315
    34  C    5.998240
    35  C    6.000040
    36  C    5.998268
    37  C    6.000302
    38  C    5.998862
    39  O    7.998254
    40  C    5.999789
    41  C    5.999852
    42  O    8.000078
    43  O    7.999804
    44  C    6.000134
    45  H    1.000914
    46  H    1.000080
    47  H    0.999007
    48  H    1.000097
    49  H    0.999841
    50  H    1.000953
    51  H    1.000187
    52  H    1.000260
    53  H    0.999344
    54  H    1.000162
    55  H    0.999661
    56  H    1.000151
    57  H    1.000956
    58  H    1.001536
    59  H    1.000832
    60  H    1.000625
    61  H    1.000183
    62  H    1.000735
    63  H    0.999713
    64  H    0.999897
    65  H    0.999864
    66  H    0.999908
    67  H    1.000578
    68  H    1.000044
    69  H    0.999158
    70  H    0.999703
    71  H    1.000088
    72  H    0.999484
    73  H    0.998971
    74  H    0.998912
    75  H    0.998885
    76  H    0.999522
    77  H    0.999952
    78  H    0.999909
    79  H    0.999600
    80  Mg  12.004675
    81  C    5.980342
    82  C    6.001023
    83  C    6.025893
    84  C    5.993917
    85  N    6.988664
    86  C    6.032453
    87  C    5.984772
    88  C    6.010865
    89  C    5.969520
    90  C    6.004210
    91  C    5.997270
    92  C    5.997884
    93  H    1.005779
    94  N    7.007036
    95  C    5.967198
    96  C    5.981870
    97  C    5.981075
    98  C    5.973872
    99  C    6.005701
   100  C    5.987131
   101  O    7.971041
   102  C    6.004614
   103  N    7.009915
   104  C    5.959062
   105  C    6.005845
   106  C    5.992696
   107  C    6.027261
   108  C    6.002777
   109  C    5.997936
   110  C    5.999862
   111  N    6.999651
   112  C    6.028347
   113  C    6.030921
   114  C    6.000753
   115  C    6.030594
   116  C    5.999977
   117  C    6.018119
   118  O    8.026740
   119  C    6.001266
   120  C    6.000850
   121  O    8.007830
   122  O    8.000802
   123  C    5.997414
   124  H    0.987408
   125  H    0.997055
   126  H    1.009774
   127  H    1.000889
   128  H    1.000828
   129  H    0.987299
   130  H    1.004455
   131  H    0.993484
   132  H    1.008631
   133  H    0.998845
   134  H    0.995408
   135  H    1.000011
   136  H    0.982557
   137  H    0.984994
   138  H    0.981988
   139  H    0.994634
   140  H    0.992855
   141  H    0.986314
   142  H    1.000299
   143  H    1.002503
   144  H    1.006065
   145  H    0.992610
   146  H    0.996860
   147  H    0.996196
   148  H    1.010565
   149  H    0.996821
   150  H    1.005999
   151  H    0.999043
   152  H    1.019442
   153  H    1.014243
   154  H    1.017535
   155  H    1.008006
   156  H    1.006029
   157  H    1.004071
   158  H    1.000859
 Sum of Mulliken charges = 624.00000

 Dipole moment (field-independent basis, Debye):
    X=             10.3120    Y=              0.4528    Z=             -0.7939  Tot=             10.3524
 Quadrupole moment (field-independent basis, Debye-Ang):
   XX=            246.5692   YY=              1.6890   ZZ=              0.2470
   XY=              1.7978   XZ=            -23.9730   YZ=              0.0292

 Normal termination of Gaussian 16 at Fri Oct 15 03:30:38 2021.
