 Gaussian 16, Revision A.03,
 Gaussian 16:  ES64L-G16RevA.03 25-Dec-2016

 --------------------------------------------------------
 #p PBE1PBE/Def2SVP td=(nstates=5) density=(transition=1)
 --------------------------------------------------------

 --------------------------------
 TDDFT excited states in gaussian
 --------------------------------
 Symbolic Z-matrix:
 Charge =  0 Multiplicity = 1

                         Standard orientation:
 ---------------------------------------------------------------------
 Center     Atomic      Atomic             Coordinates (Angstroms)
 Number     Number       Type             X           Y           Z
 ---------------------------------------------------------------------
      1         12           0      -29.764479    0.575977    0.443918
      2          6           0      -28.410211   -2.350664   -0.763150
      3          6           0      -26.670394    2.008123    0.244203
      4          6           0      -31.286464    3.506707    0.359654
      5          6           0      -32.878720   -1.042318    0.544456
      6          7           0      -27.890020   -0.029478   -0.644606
      7          6           0      -27.505661   -1.319051   -0.827042
      8          6           0      -26.046189   -1.449759   -1.148404
      9          6           0      -25.496519   -0.184892   -0.412862
     10          6           0      -26.762394    0.627239   -0.182434
     11          6           0      -24.684076   -0.529544    0.868216
     12          6           0      -25.762440   -1.380915   -2.732288
     13          6           0      -24.563216   -2.300189   -3.255060
     14          1           0      -23.530061   -1.400551   -3.886947
     15          7           0      -29.045098    2.491757    0.518241
     16          6           0      -27.779279    2.930882    0.343800
     17          6           0      -27.729962    4.387111    0.377766
     18          6           0      -29.065749    4.833681    0.444658
     19          6           0      -29.867247    3.577724    0.437591
     20          6           0      -26.385211    5.146212    0.269676
     21          6           0      -29.451652    6.278848    0.294793
     22          8           0      -28.591825    7.114700    0.193343
     23          6           0      -30.901035    6.794039    0.208403
     24          7           0      -31.820638    1.206714    0.582316
     25          6           0      -32.155012    2.417809    0.509815
     26          6           0      -33.622584    2.622284    0.427803
     27          6           0      -34.175832    1.144981    0.501561
     28          6           0      -32.923753    0.381918    0.543717
     29          6           0      -34.130246    3.626021    1.517578
     30          6           0      -35.077873    0.777092   -0.765977
     31          6           0      -36.045620   -0.452259   -0.633766
     32          7           0      -30.534773   -1.303978    0.080882
     33          6           0      -31.799763   -1.830458    0.269374
     34          6           0      -31.790335   -3.253055    0.069155
     35          6           0      -30.426922   -3.525279   -0.301429
     36          6           0      -29.761195   -2.317170   -0.378158
     37          6           0      -32.930879   -4.207943    0.216455
     38          6           0      -29.522586   -4.573342   -0.627619
     39          8           0      -29.612915   -5.801748   -0.749735
     40          6           0      -28.232909   -3.842247   -1.127873
     41          6           0      -27.074527   -4.547638   -0.505171
     42          8           0      -26.431859   -5.461764   -1.040484
     43          8           0      -26.869749   -4.072433    0.760751
     44          6           0      -25.741878   -4.821632    1.382420
     45          1           0      -25.713565    2.524231    0.350606
     46          1           0      -31.760732    4.485778    0.271169
     47          1           0      -33.861552   -1.509598    0.446157
     48          1           0      -25.745657   -2.360882   -0.632612
     49          1           0      -24.784772    0.322737   -1.064093
     50          1           0      -23.649369   -0.215928    0.732963
     51          1           0      -24.660605   -1.616812    0.948652
     52          1           0      -25.202150   -0.079783    1.714642
     53          1           0      -25.650187   -0.384479   -3.159357
     54          1           0      -26.638664   -1.714730   -3.287143
     55          1           0      -25.013851   -2.894531   -4.050051
     56          1           0      -24.108880   -3.030507   -2.585399
     57          1           0      -26.313011    5.835384   -0.571628
     58          1           0      -25.508207    4.498048    0.260705
     59          1           0      -26.261487    5.696879    1.201582
     60          1           0      -31.474001    6.622131    1.119002
     61          1           0      -31.454180    6.405624   -0.647107
     62          1           0      -30.799920    7.843276   -0.070713
     63          1           0      -33.761653    3.019726   -0.577495
     64          1           0      -34.698515    0.831053    1.404765
     65          1           0      -34.611848    4.447833    0.988140
     66          1           0      -33.317967    3.987354    2.148504
     67          1           0      -34.984741    3.267124    2.091067
     68          1           0      -34.443936    0.583816   -1.631607
     69          1           0      -35.655557    1.676491   -0.974122
     70          1           0      -37.122874   -0.335878   -0.749217
     71          1           0      -35.975250   -0.887781    0.362026
     72          1           0      -35.765849   -1.229149   -1.345312
     73          1           0      -33.844908   -3.813479    0.659926
     74          1           0      -32.446683   -4.960425    0.837586
     75          1           0      -32.994495   -4.578794   -0.806623
     76          1           0      -28.123749   -3.816650   -2.212617
     77          1           0      -26.054958   -5.846468    1.579340
     78          1           0      -25.518517   -4.483844    2.394427
     79          1           0      -24.880418   -4.727136    0.720986
     80         12           0       30.161042    0.151132   -0.272599
     81          6           0       28.122247   -1.805378    1.785926
     82          6           0       29.812514    2.716950    2.008155
     83          6           0       31.532505    2.304197   -2.538534
     84          6           0       29.865643   -2.265737   -2.735213
     85          7           0       29.168968    0.334783    1.668763
     86          6           0       28.598094   -0.642599    2.384404
     87          6           0       28.334603   -0.290437    3.855779
     88          6           0       28.709462    1.240996    3.880261
     89          6           0       29.386592    1.479331    2.417450
     90          6           0       27.569284    2.243365    4.161234
     91          6           0       29.107253   -1.141848    4.863468
     92          6           0       28.409335   -1.248286    6.231554
     93          1           0       27.083744   -0.507766    6.458130
     94          7           0       30.718313    2.182655   -0.250941
     95          6           0       30.548208    3.079196    0.829174
     96          6           0       31.127866    4.354291    0.457483
     97          6           0       31.584699    4.275138   -0.910858
     98          6           0       31.326469    2.885719   -1.285660
     99          6           0       31.258579    5.467670    1.460067
    100          6           0       32.367079    5.339158   -1.804218
    101          8           0       32.819935    5.095538   -2.896309
    102          6           0       32.513827    6.726933   -1.218895
    103          7           0       30.540653    0.070497   -2.343265
    104          6           0       31.147114    1.057717   -3.063469
    105          6           0       31.412609    0.631363   -4.554250
    106          6           0       30.936736   -0.820334   -4.537160
    107          6           0       30.414646   -1.006213   -3.124898
    108          6           0       30.884808    1.497058   -5.768419
    109          6           0       32.092828   -1.792899   -4.868645
    110          6           0       33.068671   -2.203548   -3.743700
    111          7           0       29.334037   -1.763290   -0.469789
    112          6           0       29.288357   -2.634978   -1.526786
    113          6           0       28.598621   -3.832119   -1.179731
    114          6           0       28.087498   -3.557908    0.167772
    115          6           0       28.534098   -2.337694    0.497175
    116          6           0       28.359584   -5.069539   -1.925719
    117          6           0       27.215713   -4.030272    1.234470
    118          8           0       26.654276   -5.121788    1.376580
    119          6           0       27.188866   -2.938549    2.344438
    120          6           0       25.829020   -2.483642    2.615549
    121          8           0       25.179633   -1.700171    1.930924
    122          8           0       25.296549   -3.238247    3.630616
    123          6           0       23.833781   -3.278530    3.822354
    124          1           0       29.627589    3.475448    2.771931
    125          1           0       32.134061    2.922355   -3.208165
    126          1           0       29.853041   -3.069266   -3.474509
    127          1           0       27.269439   -0.299664    4.085844
    128          1           0       29.556811    1.468714    4.525993
    129          1           0       28.006104    2.806455    4.985797
    130          1           0       26.666985    1.721534    4.479166
    131          1           0       27.353882    2.836296    3.272255
    132          1           0       30.125345   -0.782323    5.007946
    133          1           0       29.226158   -2.157048    4.483930
    134          1           0       29.192605   -0.861406    6.883737
    135          1           0       28.301923   -2.284915    6.554058
    136          1           0       30.676945    5.148585    2.325006
    137          1           0       30.867949    6.386866    1.022984
    138          1           0       32.292744    5.666103    1.745514
    139          1           0       31.629227    7.364600   -1.223857
    140          1           0       33.348698    7.212037   -1.724616
    141          1           0       32.811790    6.504468   -0.194343
    142          1           0       32.498518    0.712941   -4.595838
    143          1           0       30.144875   -0.891175   -5.281966
    144          1           0       30.367573    0.929679   -6.541244
    145          1           0       31.747299    1.938219   -6.266996
    146          1           0       30.283138    2.308387   -5.357656
    147          1           0       32.636506   -1.322155   -5.686844
    148          1           0       31.599978   -2.674968   -5.278545
    149          1           0       34.049927   -2.187759   -4.217344
    150          1           0       32.908771   -3.219210   -3.382541
    151          1           0       33.004664   -1.589140   -2.846335
    152          1           0       28.498752   -5.901498   -1.236257
    153          1           0       28.988988   -5.220422   -2.802804
    154          1           0       27.300185   -5.158258   -2.167031
    155          1           0       27.647681   -3.427341    3.203768
    156          1           0       23.309230   -2.619345    3.129800
    157          1           0       23.623313   -2.925623    4.832238
    158          1           0       23.633870   -4.334434    3.643565
 ---------------------------------------------------------------------

 SCF Done:  E(RPBE1PBE) =  -4067.37948891     A.U. after   17 cycles

 Excitation energies and oscillator strengths:

 Excited State   1:      Singlet-A      1.7987 eV  689.31 nm  f=0.3462  <S**2>=0.000
     309 -> 315        0.16145
     312 -> 313        0.69481
     312 <- 313       -0.10915
 This state for optimization and/or second-order correction.
 Total Energy, E(TD-HF/TD-DFT) =  -4067.31338923
 Copying the excited state density for this state as the 1-particle RhoCI density.

 Excited State   2:      Singlet-A      1.8755 eV  661.08 nm  f=0.3927  <S**2>=0.000
     310 -> 316        0.17473
     311 -> 314        0.69087
     311 <- 314       -0.10932

 Excited State   3:      Singlet-A      1.9722 eV  628.65 nm  f=0.0000  <S**2>=0.000
     312 -> 314        0.70711

 Excited State   4:      Singlet-A      1.9993 eV  620.13 nm  f=0.0000  <S**2>=0.000
     311 -> 313        0.70711

 Excited State   5:      Singlet-A      2.1488 eV  577.00 nm  f=0.1398  <S**2>=0.000
     310 -> 314        0.66655
     311 -> 316       -0.21033

 The electronic state is 1-A.
 Alpha  occ. eigenvalues --  -46.92573 -46.91662 -19.26286 -19.24553 -19.20068
 Alpha  occ. eigenvalues --  -19.19430 -19.19404 -19.19205 -19.19000 -19.18454
 Alpha  occ. eigenvalues --  -14.41697 -14.41497 -14.41469 -14.41454 -14.39729
 Alpha  occ. eigenvalues --  -14.39085 -14.38435 -14.37917 -10.35822 -10.35652
 Alpha  occ. eigenvalues --  -10.33264 -10.32600 -10.32284 -10.31472 -10.29754
 Alpha  occ. eigenvalues --  -10.29002 -10.29000 -10.28597 -10.28594 -10.28445
 Alpha  occ. eigenvalues --  -10.28437 -10.28391 -10.28297 -10.28179 -10.28099
 Alpha  occ. eigenvalues --  -10.27976 -10.27870 -10.27513 -10.26614 -10.26596
 Alpha  occ. eigenvalues --  -10.26506 -10.26377 -10.26344 -10.26223 -10.26145
 Alpha  occ. eigenvalues --  -10.26135 -10.26085 -10.25975 -10.25913 -10.25869
 Alpha  occ. eigenvalues --  -10.25776 -10.25647 -10.25589 -10.25496 -10.25470
 Alpha  occ. eigenvalues --  -10.25407 -10.25343 -10.25326 -10.25244 -10.25228
 Alpha  occ. eigenvalues --  -10.25212 -10.25125 -10.25071 -10.24802 -10.24718
 Alpha  occ. eigenvalues --  -10.24613 -10.24609 -10.24583 -10.24414 -10.24343
 Alpha  occ. eigenvalues --  -10.24337 -10.24137 -10.23983 -10.23905 -10.23825
 Alpha  occ. eigenvalues --  -10.23753 -10.23753 -10.23607 -10.23556 -10.23460
 Alpha  occ. eigenvalues --  -10.23452 -10.23319 -10.23245 -10.22876 -10.22558
 Alpha  occ. eigenvalues --  -10.22542  -3.14726  -3.13767  -1.87552  -1.87114
 Alpha  occ. eigenvalues --   -1.86940  -1.86609  -1.86138  -1.85996  -1.10805
 Alpha  occ. eigenvalues --   -1.09846  -1.06403  -1.06257  -1.03652  -1.03109
 Alpha  occ. eigenvalues --   -1.01667  -1.01456  -1.01363  -0.99061  -0.99039
 Alpha  occ. eigenvalues --   -0.98525  -0.97973  -0.97684  -0.97143  -0.95627
 Alpha  occ. eigenvalues --   -0.87060  -0.86468  -0.84088  -0.83450  -0.83043
 Alpha  occ. eigenvalues --   -0.82926  -0.82515  -0.82444  -0.81629  -0.81395
 Alpha  occ. eigenvalues --   -0.81190  -0.80789  -0.80712  -0.80409  -0.78503
 Alpha  occ. eigenvalues --   -0.78479  -0.78188  -0.77687  -0.76586  -0.76528
 Alpha  occ. eigenvalues --   -0.76086  -0.75860  -0.75322  -0.75164  -0.74692
 Alpha  occ. eigenvalues --   -0.74537  -0.72815  -0.72444  -0.71951  -0.71417
 Alpha  occ. eigenvalues --   -0.71134  -0.71092  -0.70343  -0.70209  -0.69777
 Alpha  occ. eigenvalues --   -0.69382  -0.67207  -0.66895  -0.66615  -0.65536
 Alpha  occ. eigenvalues --   -0.64892  -0.64160  -0.63635  -0.62847  -0.62576
 Alpha  occ. eigenvalues --   -0.62118  -0.62026  -0.61337  -0.60452  -0.59783
 Alpha  occ. eigenvalues --   -0.59428  -0.59253  -0.59118  -0.59045  -0.58942
 Alpha  occ. eigenvalues --   -0.58285  -0.57063  -0.55983  -0.54923  -0.54285
 Alpha  occ. eigenvalues --   -0.54210  -0.53726  -0.53664  -0.53599  -0.53380
 Alpha  occ. eigenvalues --   -0.52845  -0.52572  -0.52303  -0.51976  -0.51431
 Alpha  occ. eigenvalues --   -0.51277  -0.50770  -0.50405  -0.50291  -0.49987
 Alpha  occ. eigenvalues --   -0.49688  -0.49531  -0.49190  -0.48818  -0.48268
 Alpha  occ. eigenvalues --   -0.48249  -0.47816  -0.47535  -0.47454  -0.47256
 Alpha  occ. eigenvalues --   -0.47143  -0.46792  -0.46778  -0.46690  -0.46450
 Alpha  occ. eigenvalues --   -0.46402  -0.46282  -0.46252  -0.45918  -0.45777
 Alpha  occ. eigenvalues --   -0.45508  -0.45362  -0.45142  -0.44795  -0.44762
 Alpha  occ. eigenvalues --   -0.44756  -0.44499  -0.44204  -0.44128  -0.44094
 Alpha  occ. eigenvalues --   -0.43938  -0.43871  -0.43660  -0.43635  -0.43605
 Alpha  occ. eigenvalues --   -0.43307  -0.43164  -0.42961  -0.42896  -0.42760
 Alpha  occ. eigenvalues --   -0.42422  -0.42361  -0.42316  -0.42012  -0.41781
 Alpha  occ. eigenvalues --   -0.41576  -0.41424  -0.41423  -0.41036  -0.41015
 Alpha  occ. eigenvalues --   -0.40993  -0.40867  -0.40653  -0.40523  -0.40520
 Alpha  occ. eigenvalues --   -0.40384  -0.40054  -0.39997  -0.39779  -0.39775
 Alpha  occ. eigenvalues --   -0.39470  -0.39399  -0.39208  -0.39114  -0.39057
 Alpha  occ. eigenvalues --   -0.38911  -0.38700  -0.38636  -0.38446  -0.38314
 Alpha  occ. eigenvalues --   -0.38234  -0.38029  -0.37997  -0.37880  -0.37637
 Alpha  occ. eigenvalues --   -0.37555  -0.37459  -0.37452  -0.37244  -0.37036
 Alpha  occ. eigenvalues --   -0.36897  -0.36843  -0.36795  -0.36336  -0.36237
 Alpha  occ. eigenvalues --   -0.36116  -0.35934  -0.35742  -0.35729  -0.35542
 Alpha  occ. eigenvalues --   -0.35097  -0.34968  -0.34820  -0.34596  -0.33618
 Alpha  occ. eigenvalues --   -0.33479  -0.33322  -0.33235  -0.32799  -0.32684
 Alpha  occ. eigenvalues --   -0.32665  -0.31907  -0.31800  -0.31727  -0.31494
 Alpha  occ. eigenvalues --   -0.31194  -0.30601  -0.30192  -0.29546  -0.29077
 Alpha  occ. eigenvalues --   -0.28964  -0.28479  -0.28375  -0.26837  -0.26601
 Alpha  occ. eigenvalues --   -0.26333  -0.26279  -0.26097  -0.25728  -0.25335
 Alpha  occ. eigenvalues --   -0.25182  -0.24740  -0.24382  -0.21032  -0.20499
 Alpha  occ. eigenvalues --   -0.18883  -0.18745
 Alpha virt. eigenvalues --   -0.11313  -0.11277  -0.05326  -0.04868  -0.03986
 Alpha virt. eigenvalues --   -0.03622  -0.02266  -0.01919  -0.00797  -0.00166
 Alpha virt. eigenvalues --    0.00250   0.00703   0.01096   0.01201   0.01711

 Mulliken charges:
               1
     1  Mg  12.000680
     2  C    6.012689
     3  C    5.992330
     4  C    5.984615
     5  C    6.003351
     6  N    7.008600
     7  C    5.966129
     8  C    6.010217
     9  C    5.986086
    10  C    6.032192
    11  C    5.997016
    12  C    5.998894
    13  C    6.002202
    14  H    0.991151
    15  N    6.995177
    16  C    6.035577
    17  C    6.022144
    18  C    6.013578
    19  C    6.029496
    20  C    5.996209
    21  C    6.008929
    22  O    8.019201
    23  C    5.998282
    24  N    7.000434
    25  C    6.029086
    26  C    5.991861
    27  C    6.010168
    28  C    5.965630
    29  C    5.997350
    30  C    6.006352
    31  C    6.001348
    32  N    6.999596
    33  C    5.973093
    34  C    5.968351
    35  C    6.000038
    36  C    5.975652
    37  C    5.999172
    38  C    5.984048
    39  O    7.971366
    40  C    6.001355
    41  C    5.995993
    42  O    7.993229
    43  O    8.000872
    44  C    6.000820
    45  H    1.010306
    46  H    1.006308
    47  H    0.991698
    48  H    1.002878
    49  H    1.005179
    50  H    1.003442
    51  H    1.015029
    52  H    0.999582
    53  H    0.989378
    54  H    1.005011
    55  H    1.002088
    56  H    1.000463
    57  H    1.017340
    58  H    1.017233
    59  H    1.016974
    60  H    1.010606
    61  H    1.011041
    62  H    1.010772
    63  H    0.997969
    64  H    0.998346
    65  H    0.999970
    66  H    0.994114
    67  H    1.008752
    68  H    0.997178
    69  H    0.988112
    70  H    0.994241
    71  H    1.001521
    72  H    1.003518
    73  H    0.982793
    74  H    0.984983
    75  H    0.982979
    76  H    0.991714
    77  H    1.000076
    78  H    0.993711
    79  H    0.994134
    80  Mg  12.000005
    81  C    6.000022
    82  C    5.999976
    83  C    6.000008
    84  C    6.000041
    85  N    7.000021
    86  C    6.000006
    87  C    5.999984
    88  C    6.000000
    89  C    5.999980
    90  C    6.000002
    91  C    5.999993
    92  C    6.000003
    93  H    0.999987
    94  N    6.999985
    95  C    5.999982
    96  C    5.999980
    97  C    5.999983
    98  C    5.999962
    99  C    6.000008
   100  C    5.999977
   101  O    7.999971
   102  C    6.000004
   103  N    6.999986
   104  C    5.999978
   105  C    6.000018
   106  C    5.999991
   107  C    6.000023
   108  C    5.999993
   109  C    5.999994
   110  C    5.999990
   111  N    7.000018
   112  C    6.000006
   113  C    6.000040
   114  C    5.999989
   115  C    6.000013
   116  C    5.999997
   117  C    6.000034
   118  O    8.000035
   119  C    5.999987
   120  C    6.000005
   121  O    7.999997
   122  O    8.000004
   123  C    5.999997
   124  H    0.999978
   125  H    0.999996
   126  H    1.000020
   127  H    0.999997
   128  H    1.000001
   129  H    0.999993
   130  H    0.999977
   131  H    0.999994
   132  H    1.000015
   133  H    1.000000
   134  H    1.000007
   135  H    1.000006
   136  H    0.999971
   137  H    0.999961
   138  H    0.999974
   139  H    0.999973
   140  H    0.999978
   141  H    1.000000
   142  H    1.000005
   143  H    1.000004
   144  H    0.999989
   145  H    1.000004
   146  H    0.999996
   147  H    1.000020
   148  H    1.000003
   149  H    1.000019
   150  H    1.000001
   151  H    1.000003
   152  H    1.000042
   153  H    1.000036
   154  H    1.000036
   155  H    1.000015
   156  H    0.999994
   157  H    1.000003
   158  H    1.000014
 Sum of Mulliken charges = 624.00000

 Dipole moment (field-independent basis, Debye):
    X=              3.6694    Y=              9.3493    Z=              0.7946  Tot=             10.0750
 Quadrupole moment (field-independent basis, Debye-Ang):
   XX=           -220.7425   YY=             10.9305   ZZ=             -0.8016
   XY=           -275.7017   XZ=            -21.8297   YZ=              1.1566

 Normal termination of Gaussian 16 at Fri Oct 15 08:19:33 2021.
