 Gaussian 16, Revision A.03,
 Gaussian 16:  ES64L-G16RevA.03 25-Dec-2016

 --------------------------------------------------------
 #p PBE1PBE/Def2SVP td=(nstates=5) density=(transition=1)
 --------------------------------------------------------

 --------------------------------
 TDDFT excited states in gaussian
 --------------------------------
 Symbolic Z-matrix:
 Charge =  0 Multiplicity = 1

                         Standard orientation:
 ---------------------------------------------------------------------
 Center     Atomic      Atomic             Coordinates (Angstroms)
 Number     Number       Type             X           Y           Z
 ---------------------------------------------------------------------
      1         12           0       29.142389    0.118483   -0.450447
      2          6           0       25.903745   -0.961154    0.443954
      3          6           0       27.736559    2.985898   -1.853749
      4          6           0       32.238594    1.539049   -0.351017
      5          6           0       30.371055   -2.623926    1.498766
      6          7           0       27.093662    0.863672   -0.691130
      7          6           0       25.961011    0.287170   -0.236084
      8          6           0       24.724488    1.214038   -0.472960
      9          6           0       25.339903    2.244004   -1.528016
     10          6           0       26.880917    2.017235   -1.397845
     11          6           0       25.000119    2.136106   -3.031883
     12          6           0       24.302877    1.861962    0.899871
     13          6           0       22.768979    2.043129    1.070200
     14          1           0       22.312679    3.395477    1.754744
     15          7           0       29.954674    1.969112   -1.222682
     16          6           0       29.184625    2.949094   -1.790719
     17          6           0       30.071687    3.962713   -2.219552
     18          6           0       31.386548    3.652511   -1.761246
     19          6           0       31.272442    2.304261   -1.110757
     20          6           0       29.662756    5.216372   -2.956142
     21          6           0       32.576169    4.550634   -1.781589
     22          8           0       32.503473    5.709773   -2.156901
     23          6           0       33.888270    4.189679   -1.311558
     24          7           0       31.026896   -0.455591    0.572739
     25          6           0       32.195514    0.262925    0.279999
     26          6           0       33.400346   -0.458141    0.798399
     27          6           0       32.829195   -1.767807    1.457564
     28          6           0       31.340861   -1.639835    1.182408
     29          6           0       34.371983   -0.705369   -0.362661
     30          6           0       33.346933   -2.017546    2.924063
     31          6           0       34.045496   -3.317784    3.183652
     32          7           0       28.339413   -1.538748    0.734284
     33          6           0       28.979034   -2.561064    1.391319
     34          6           0       27.998885   -3.562260    1.866342
     35          6           0       26.786377   -2.894479    1.548927
     36          6           0       27.049498   -1.756102    0.810291
     37          6           0       28.225473   -4.834946    2.667158
     38          6           0       25.366930   -2.952361    1.776941
     39          8           0       24.697485   -3.771452    2.425626
     40          6           0       24.704742   -1.760798    1.085675
     41          6           0       23.665633   -2.202524    0.136866
     42          8           0       22.540125   -1.869108    0.229872
     43          8           0       24.161810   -2.858888   -0.952160
     44          6           0       23.111828   -3.038819   -1.978159
     45          1           0       27.327953    3.857494   -2.370215
     46          1           0       33.218521    2.010873   -0.438737
     47          1           0       30.551378   -3.485235    2.146237
     48          1           0       23.918255    0.603728   -0.880287
     49          1           0       25.356965    3.285094   -1.206031
     50          1           0       24.730868    1.110626   -3.287410
     51          1           0       25.765509    2.479574   -3.727879
     52          1           0       24.107324    2.744037   -3.174375
     53          1           0       24.820509    2.808814    1.056196
     54          1           0       24.674598    1.167540    1.653393
     55          1           0       22.483701    1.190305    1.686411
     56          1           0       22.396878    1.882468    0.058114
     57          1           0       30.442000    5.713875   -3.533666
     58          1           0       29.304359    5.869683   -2.161090
     59          1           0       28.733346    5.167776   -3.523570
     60          1           0       34.222005    3.352215   -1.925576
     61          1           0       33.875396    3.956575   -0.246465
     62          1           0       34.551611    5.042919   -1.453493
     63          1           0       33.840550    0.083308    1.635407
     64          1           0       32.930011   -2.699349    0.900204
     65          1           0       34.146936   -0.109193   -1.247318
     66          1           0       34.346380   -1.742645   -0.696583
     67          1           0       35.347419   -0.287995   -0.114584
     68          1           0       32.454846   -1.932417    3.544586
     69          1           0       34.133440   -1.332271    3.238025
     70          1           0       33.529231   -3.797559    4.014714
     71          1           0       35.075902   -3.167825    3.506486
     72          1           0       34.152605   -3.933906    2.290840
     73          1           0       28.322338   -4.647759    3.736780
     74          1           0       29.059381   -5.433171    2.297820
     75          1           0       27.259403   -5.325207    2.547578
     76          1           0       24.129231   -1.189509    1.812906
     77          1           0       23.560581   -3.564898   -2.821155
     78          1           0       22.711520   -2.075268   -2.293169
     79          1           0       22.311817   -3.718924   -1.687727
     80         12           0      -29.085692    0.297188    0.341226
     81          6           0      -26.238461   -1.730371   -0.110982
     82          6           0      -30.129816   -0.773128   -2.774677
     83          6           0      -31.834192    2.307157    0.586918
     84          6           0      -27.790431    1.510239    3.190801
     85          7           0      -28.279340   -1.139389   -1.263424
     86          6           0      -27.166986   -1.968845   -1.186791
     87          6           0      -27.186596   -2.985506   -2.310527
     88          6           0      -28.241092   -2.400180   -3.318784
     89          6           0      -28.918854   -1.407943   -2.400722
     90          6           0      -27.652496   -1.804641   -4.657494
     91          6           0      -27.624807   -4.384868   -1.853457
     92          6           0      -26.910066   -5.554519   -2.538609
     93          1           0      -27.203979   -5.825476   -4.040364
     94          7           0      -30.788628    0.647874   -0.861549
     95          6           0      -30.950881    0.121295   -2.097220
     96          6           0      -32.128782    0.679210   -2.677891
     97          6           0      -32.784738    1.497811   -1.694708
     98          6           0      -31.787440    1.550306   -0.640328
     99          6           0      -32.561917    0.351712   -4.079934
    100          6           0      -34.094085    2.286104   -1.732439
    101          8           0      -34.577479    2.807961   -0.703583
    102          6           0      -34.852767    2.556064   -3.026885
    103          7           0      -29.752906    1.621659    1.724562
    104          6           0      -30.891326    2.413907    1.610793
    105          6           0      -30.951722    3.348620    2.775047
    106          6           0      -29.709749    3.103737    3.705529
    107          6           0      -29.038670    1.989392    2.886336
    108          6           0      -31.223715    4.837010    2.401921
    109          6           0      -30.034776    2.653424    5.146268
    110          6           0      -30.044864    3.809970    6.164478
    111          7           0      -27.396542    0.039389    1.336848
    112          6           0      -26.967934    0.545303    2.563251
    113          6           0      -25.649236   -0.042027    3.005815
    114          6           0      -25.366528   -0.901290    1.931626
    115          6           0      -26.447025   -0.866318    0.992614
    116          6           0      -24.895500    0.271455    4.285426
    117          6           0      -24.356340   -1.840965    1.469133
    118          8           0      -23.272538   -2.166460    1.955419
    119          6           0      -24.978313   -2.498293    0.164727
    120          6           0      -23.888396   -2.360758   -0.916452
    121          8           0      -23.168820   -1.400232   -1.097509
    122          8           0      -23.741014   -3.590042   -1.556116
    123          6           0      -22.719423   -3.570110   -2.603208
    124          1           0      -30.468320   -1.191997   -3.724434
    125          1           0      -32.673920    2.979689    0.772817
    126          1           0      -27.387023    2.042381    4.054426
    127          1           0      -26.242611   -3.090083   -2.844804
    128          1           0      -28.969613   -3.123078   -3.686002
    129          1           0      -26.582485   -1.951661   -4.807125
    130          1           0      -27.757464   -0.729459   -4.800655
    131          1           0      -28.096942   -2.293440   -5.524484
    132          1           0      -28.695405   -4.530981   -1.995021
    133          1           0      -27.406035   -4.530778   -0.795463
    134          1           0      -27.039885   -6.487708   -1.990692
    135          1           0      -25.827406   -5.444530   -2.480127
    136          1           0      -31.639138    0.509536   -4.638412
    137          1           0      -33.310979    0.993944   -4.542898
    138          1           0      -32.878661   -0.679870   -4.231894
    139          1           0      -34.185412    2.951212   -3.792960
    140          1           0      -35.601178    3.278477   -2.701479
    141          1           0      -35.287588    1.639654   -3.425896
    142          1           0      -31.898713    3.153666    3.279255
    143          1           0      -28.996340    3.927488    3.752901
    144          1           0      -31.252535    4.905239    1.314223
    145          1           0      -30.396166    5.446312    2.764274
    146          1           0      -32.195922    5.045902    2.849578
    147          1           0      -29.367008    1.825729    5.384213
    148          1           0      -31.062555    2.297006    5.218484
    149          1           0      -30.239349    4.751693    5.650843
    150          1           0      -29.107347    4.013193    6.682367
    151          1           0      -30.872629    3.641630    6.854004
    152          1           0      -25.443807   -0.195796    5.103623
    153          1           0      -24.812899    1.328617    4.537009
    154          1           0      -23.912822   -0.184510    4.165894
    155          1           0      -25.257523   -3.548115    0.252249
    156          1           0      -23.084234   -3.295503   -3.593417
    157          1           0      -22.313984   -4.581668   -2.586576
    158          1           0      -21.872144   -2.891212   -2.506821
 ---------------------------------------------------------------------

 SCF Done:  E(RPBE1PBE) =  -4067.38396314     A.U. after   16 cycles

 Excitation energies and oscillator strengths:

 Excited State   1:      Singlet-A      1.8192 eV  681.53 nm  f=0.0000  <S**2>=0.000
     312 -> 313        0.70711
 This state for optimization and/or second-order correction.
 Total Energy, E(TD-HF/TD-DFT) =  -4067.31710843
 Copying the excited state density for this state as the 1-particle RhoCI density.

 Excited State   2:      Singlet-A      1.8469 eV  671.32 nm  f=0.3859  <S**2>=0.000
     309 -> 315       -0.16823
     311 -> 313        0.69214
     311 <- 313       -0.11280

 Excited State   3:      Singlet-A      1.8492 eV  670.48 nm  f=0.3729  <S**2>=0.000
     310 -> 316        0.18050
     312 -> 314        0.68937
     312 <- 314       -0.10417

 Excited State   4:      Singlet-A      2.1667 eV  572.24 nm  f=0.0000  <S**2>=0.000
     311 -> 314        0.70711

 Excited State   5:      Singlet-A      2.2121 eV  560.47 nm  f=0.1080  <S**2>=0.000
     309 -> 313        0.65181
     311 -> 315        0.25472

 The electronic state is 1-A.
 Alpha  occ. eigenvalues --  -46.94189 -46.91066 -19.26398 -19.25701 -19.20607
 Alpha  occ. eigenvalues --  -19.20100 -19.19359 -19.19328 -19.18977 -19.17623
 Alpha  occ. eigenvalues --  -14.42415 -14.42291 -14.42025 -14.40958 -14.39587
 Alpha  occ. eigenvalues --  -14.39583 -14.39060 -14.38875 -10.36698 -10.35699
 Alpha  occ. eigenvalues --  -10.32889 -10.32267 -10.31822 -10.30687 -10.29921
 Alpha  occ. eigenvalues --  -10.29668 -10.29648 -10.29292 -10.29018 -10.28894
 Alpha  occ. eigenvalues --  -10.28793 -10.28699 -10.28451 -10.28360 -10.28218
 Alpha  occ. eigenvalues --  -10.28187 -10.28154 -10.27791 -10.27670 -10.27070
 Alpha  occ. eigenvalues --  -10.27066 -10.26858 -10.26844 -10.26838 -10.26619
 Alpha  occ. eigenvalues --  -10.26614 -10.26593 -10.26453 -10.26390 -10.26284
 Alpha  occ. eigenvalues --  -10.26279 -10.26264 -10.26171 -10.26146 -10.26127
 Alpha  occ. eigenvalues --  -10.26094 -10.26014 -10.25815 -10.25753 -10.25560
 Alpha  occ. eigenvalues --  -10.25307 -10.25108 -10.25032 -10.24977 -10.24971
 Alpha  occ. eigenvalues --  -10.24574 -10.24510 -10.24496 -10.24403 -10.24373
 Alpha  occ. eigenvalues --  -10.24308 -10.24040 -10.24030 -10.24015 -10.23927
 Alpha  occ. eigenvalues --  -10.23903 -10.23775 -10.23732 -10.23602 -10.23498
 Alpha  occ. eigenvalues --  -10.23161 -10.23152 -10.23038 -10.23025 -10.22818
 Alpha  occ. eigenvalues --  -10.22643  -3.15929  -3.13422  -1.88780  -1.88282
 Alpha  occ. eigenvalues --   -1.88143  -1.86263  -1.85773  -1.85690  -1.12711
 Alpha  occ. eigenvalues --   -1.11040  -1.04362  -1.03995  -1.03855  -1.03584
 Alpha  occ. eigenvalues --   -1.03535  -1.02988  -0.99727  -0.99250  -0.98393
 Alpha  occ. eigenvalues --   -0.98234  -0.98019  -0.97803  -0.97261  -0.96090
 Alpha  occ. eigenvalues --   -0.86929  -0.86927  -0.83699  -0.83670  -0.83356
 Alpha  occ. eigenvalues --   -0.83311  -0.82579  -0.82549  -0.82341  -0.81814
 Alpha  occ. eigenvalues --   -0.81263  -0.81213  -0.80492  -0.80209  -0.79164
 Alpha  occ. eigenvalues --   -0.78922  -0.78635  -0.77886  -0.77003  -0.76743
 Alpha  occ. eigenvalues --   -0.76571  -0.75837  -0.75249  -0.75214  -0.74912
 Alpha  occ. eigenvalues --   -0.74383  -0.72988  -0.72692  -0.71892  -0.71785
 Alpha  occ. eigenvalues --   -0.71558  -0.71182  -0.70779  -0.70455  -0.69805
 Alpha  occ. eigenvalues --   -0.69402  -0.67592  -0.67151  -0.66978  -0.66068
 Alpha  occ. eigenvalues --   -0.63781  -0.63703  -0.63627  -0.63254  -0.62637
 Alpha  occ. eigenvalues --   -0.62409  -0.61666  -0.61321  -0.60762  -0.60172
 Alpha  occ. eigenvalues --   -0.60145  -0.59918  -0.59583  -0.59214  -0.58999
 Alpha  occ. eigenvalues --   -0.58765  -0.57815  -0.57141  -0.54890  -0.54668
 Alpha  occ. eigenvalues --   -0.54619  -0.54547  -0.53577  -0.53506  -0.53488
 Alpha  occ. eigenvalues --   -0.53155  -0.52851  -0.52273  -0.52027  -0.51657
 Alpha  occ. eigenvalues --   -0.51002  -0.50617  -0.50605  -0.50168  -0.50006
 Alpha  occ. eigenvalues --   -0.49722  -0.49626  -0.49101  -0.49050  -0.48374
 Alpha  occ. eigenvalues --   -0.48202  -0.48083  -0.47981  -0.47770  -0.47690
 Alpha  occ. eigenvalues --   -0.47480  -0.47397  -0.47146  -0.47087  -0.46873
 Alpha  occ. eigenvalues --   -0.46686  -0.46417  -0.46302  -0.46197  -0.46012
 Alpha  occ. eigenvalues --   -0.45872  -0.45800  -0.45562  -0.45123  -0.44710
 Alpha  occ. eigenvalues --   -0.44623  -0.44567  -0.44509  -0.44394  -0.44210
 Alpha  occ. eigenvalues --   -0.43993  -0.43897  -0.43686  -0.43672  -0.43508
 Alpha  occ. eigenvalues --   -0.43242  -0.43141  -0.43079  -0.42788  -0.42778
 Alpha  occ. eigenvalues --   -0.42705  -0.42243  -0.42187  -0.42099  -0.41990
 Alpha  occ. eigenvalues --   -0.41654  -0.41565  -0.41489  -0.41426  -0.41375
 Alpha  occ. eigenvalues --   -0.41237  -0.41078  -0.41011  -0.40979  -0.40625
 Alpha  occ. eigenvalues --   -0.40498  -0.40245  -0.39926  -0.39801  -0.39725
 Alpha  occ. eigenvalues --   -0.39657  -0.39478  -0.39401  -0.39289  -0.39183
 Alpha  occ. eigenvalues --   -0.39145  -0.39020  -0.38834  -0.38462  -0.38394
 Alpha  occ. eigenvalues --   -0.38298  -0.38226  -0.37954  -0.37921  -0.37853
 Alpha  occ. eigenvalues --   -0.37660  -0.37495  -0.37469  -0.37155  -0.37054
 Alpha  occ. eigenvalues --   -0.36754  -0.36626  -0.36551  -0.36402  -0.36159
 Alpha  occ. eigenvalues --   -0.36066  -0.35923  -0.35882  -0.35584  -0.35445
 Alpha  occ. eigenvalues --   -0.35172  -0.35015  -0.34658  -0.34566  -0.34149
 Alpha  occ. eigenvalues --   -0.33694  -0.33637  -0.33321  -0.32930  -0.32883
 Alpha  occ. eigenvalues --   -0.32543  -0.32229  -0.32220  -0.31943  -0.31853
 Alpha  occ. eigenvalues --   -0.31665  -0.31429  -0.30344  -0.29852  -0.29803
 Alpha  occ. eigenvalues --   -0.29349  -0.29047  -0.28433  -0.27135  -0.26696
 Alpha  occ. eigenvalues --   -0.26313  -0.26056  -0.25971  -0.25784  -0.25703
 Alpha  occ. eigenvalues --   -0.25525  -0.25052  -0.24600  -0.21444  -0.20851
 Alpha  occ. eigenvalues --   -0.19244  -0.18693
 Alpha virt. eigenvalues --   -0.11777  -0.11055  -0.05752  -0.05240  -0.04222
 Alpha virt. eigenvalues --   -0.03896  -0.02627  -0.02001  -0.01522   0.00310
 Alpha virt. eigenvalues --    0.00523   0.00588   0.01300   0.01340   0.01432

 Mulliken charges:
               1
     1  Mg  12.000000
     2  C    6.000000
     3  C    6.000000
     4  C    6.000000
     5  C    6.000000
     6  N    7.000000
     7  C    6.000000
     8  C    6.000000
     9  C    6.000000
    10  C    6.000000
    11  C    6.000000
    12  C    6.000000
    13  C    6.000000
    14  H    1.000000
    15  N    7.000000
    16  C    6.000000
    17  C    6.000000
    18  C    6.000000
    19  C    6.000000
    20  C    6.000000
    21  C    6.000000
    22  O    8.000000
    23  C    6.000000
    24  N    7.000000
    25  C    6.000000
    26  C    6.000000
    27  C    6.000000
    28  C    6.000000
    29  C    6.000000
    30  C    6.000000
    31  C    6.000000
    32  N    7.000000
    33  C    6.000000
    34  C    6.000000
    35  C    6.000000
    36  C    6.000000
    37  C    6.000000
    38  C    6.000000
    39  O    8.000000
    40  C    6.000000
    41  C    6.000000
    42  O    8.000000
    43  O    8.000000
    44  C    6.000000
    45  H    1.000000
    46  H    1.000000
    47  H    1.000000
    48  H    1.000000
    49  H    1.000000
    50  H    1.000000
    51  H    1.000000
    52  H    1.000000
    53  H    1.000000
    54  H    1.000000
    55  H    1.000000
    56  H    1.000000
    57  H    1.000000
    58  H    1.000000
    59  H    1.000000
    60  H    1.000000
    61  H    1.000000
    62  H    1.000000
    63  H    1.000000
    64  H    1.000000
    65  H    1.000000
    66  H    1.000000
    67  H    1.000000
    68  H    1.000000
    69  H    1.000000
    70  H    1.000000
    71  H    1.000000
    72  H    1.000000
    73  H    1.000000
    74  H    1.000000
    75  H    1.000000
    76  H    1.000000
    77  H    1.000000
    78  H    1.000000
    79  H    1.000000
    80  Mg  12.000000
    81  C    6.000000
    82  C    6.000000
    83  C    6.000000
    84  C    6.000000
    85  N    7.000000
    86  C    6.000000
    87  C    6.000000
    88  C    6.000000
    89  C    6.000000
    90  C    6.000000
    91  C    6.000000
    92  C    6.000000
    93  H    1.000000
    94  N    7.000000
    95  C    6.000000
    96  C    6.000000
    97  C    6.000000
    98  C    6.000000
    99  C    6.000000
   100  C    6.000000
   101  O    8.000000
   102  C    6.000000
   103  N    7.000000
   104  C    6.000000
   105  C    6.000000
   106  C    6.000000
   107  C    6.000000
   108  C    6.000000
   109  C    6.000000
   110  C    6.000000
   111  N    7.000000
   112  C    6.000000
   113  C    6.000000
   114  C    6.000000
   115  C    6.000000
   116  C    6.000000
   117  C    6.000000
   118  O    8.000000
   119  C    6.000000
   120  C    6.000000
   121  O    8.000000
   122  O    8.000000
   123  C    6.000000
   124  H    1.000000
   125  H    1.000000
   126  H    1.000000
   127  H    1.000000
   128  H    1.000000
   129  H    1.000000
   130  H    1.000000
   131  H    1.000000
   132  H    1.000000
   133  H    1.000000
   134  H    1.000000
   135  H    1.000000
   136  H    1.000000
   137  H    1.000000
   138  H    1.000000
   139  H    1.000000
   140  H    1.000000
   141  H    1.000000
   142  H    1.000000
   143  H    1.000000
   144  H    1.000000
   145  H    1.000000
   146  H    1.000000
   147  H    1.000000
   148  H    1.000000
   149  H    1.000000
   150  H    1.000000
   151  H    1.000000
   152  H    1.000000
   153  H    1.000000
   154  H    1.000000
   155  H    1.000000
   156  H    1.000000
   157  H    1.000000
   158  H    1.000000
 Sum of Mulliken charges = 624.00000

 Dipole moment (field-independent basis, Debye):
    X=              0.0000    Y=              0.0000    Z=             -0.0000  Tot=              0.0000
 Quadrupole moment (field-independent basis, Debye-Ang):
   XX=              0.0000   YY=              0.0000   ZZ=              0.0000
   XY=              0.0000   XZ=             -0.0000   YZ=             -0.0000

 Normal termination of Gaussian 16 at Thu Oct 14 06:23:13 2021.
