 Gaussian 16, Revision A.03,
 Gaussian 16:  ES64L-G16RevA.03 25-Dec-2016

 --------------------------------------------------------
 #p PBE1PBE/Def2SVP td=(nstates=5) density=(transition=1)
 --------------------------------------------------------

 --------------------------------
 TDDFT excited states in gaussian
 --------------------------------
 Symbolic Z-matrix:
 Charge =  0 Multiplicity = 1

                         Standard orientation:
 ---------------------------------------------------------------------
 Center     Atomic      Atomic             Coordinates (Angstroms)
 Number     Number       Type             X           Y           Z
 ---------------------------------------------------------------------
      1         12           0       -4.909220    0.693172   -0.299321
      2          6           0       -2.861189   -2.129461   -0.917640
      3          6           0       -7.590022   -1.549978   -0.312670
      4          6           0       -6.940786    3.179910    0.385083
      5          6           0       -2.249888    2.772450   -1.132677
      6          7           0       -5.138334   -1.566112   -0.552635
      7          6           0       -4.170833   -2.520427   -0.644041
      8          6           0       -4.665148   -3.974184   -0.737023
      9          6           0       -6.246868   -3.674176   -0.653807
     10          6           0       -6.297549   -2.181322   -0.515938
     11          6           0       -7.062322   -4.121559   -1.930931
     12          6           0       -4.152633   -4.870943    0.436764
     13          6           0       -3.165329   -6.020710    0.278482
     14          1           0       -3.276912   -7.280911    1.126386
     15          7           0       -6.978116    0.822582    0.077470
     16          6           0       -7.929865   -0.200077   -0.044632
     17          6           0       -9.232582    0.398648    0.142509
     18          6           0       -9.066420    1.732906    0.505512
     19          6           0       -7.611578    1.951713    0.387621
     20          6           0      -10.427872   -0.491867    0.157666
     21          6           0      -10.082019    2.827179    0.832331
     22          8           0       -9.791452    3.994855    1.109405
     23          6           0      -11.495459    2.414407    0.959879
     24          7           0       -4.699483    2.705772   -0.453463
     25          6           0       -5.605215    3.575556    0.087717
     26          6           0       -4.965920    4.987753    0.312242
     27          6           0       -3.564428    4.823570   -0.261275
     28          6           0       -3.499618    3.341194   -0.723107
     29          6           0       -5.815232    6.160037   -0.279037
     30          6           0       -2.522821    5.180210    0.810175
     31          6           0       -1.363105    6.020749    0.416248
     32          7           0       -2.974518    0.445529   -1.002937
     33          6           0       -1.996005    1.369127   -1.270861
     34          6           0       -0.770895    0.735511   -1.657288
     35          6           0       -0.981187   -0.715203   -1.450270
     36          6           0       -2.368963   -0.804786   -1.038161
     37          6           0        0.506425    1.454245   -2.124426
     38          6           0       -0.400106   -2.080357   -1.504306
     39          8           0        0.774873   -2.445625   -1.678577
     40          6           0       -1.615326   -3.033162   -1.150836
     41          6           0       -1.654954   -3.871119   -2.390441
     42          8           0       -2.236309   -3.646149   -3.445043
     43          8           0       -1.061981   -5.016896   -2.194374
     44          6           0       -0.840621   -5.935897   -3.337192
     45          1           0       -8.299063   -2.370999   -0.190250
     46          1           0       -7.506511    4.097258    0.558949
     47          1           0       -1.407747    3.441010   -1.321228
     48          1           0       -4.401455   -4.349316   -1.726676
     49          1           0       -6.799825   -4.051981    0.206752
     50          1           0       -6.492197   -4.336453   -2.834331
     51          1           0       -7.767401   -3.339874   -2.211477
     52          1           0       -7.634231   -5.013927   -1.675913
     53          1           0       -5.037125   -5.332952    0.875609
     54          1           0       -3.667040   -4.257626    1.194738
     55          1           0       -2.255694   -5.547436    0.648470
     56          1           0       -3.216153   -6.205950   -0.794507
     57          1           0      -10.938897   -0.470526    1.119226
     58          1           0      -10.149621   -1.526445   -0.044732
     59          1           0      -11.180557   -0.215326   -0.580015
     60          1           0      -11.562723    1.547390    1.617162
     61          1           0      -11.895235    2.004445    0.032293
     62          1           0      -12.147824    3.170302    1.395912
     63          1           0       -4.981816    5.061661    1.399494
     64          1           0       -3.382734    5.535247   -1.066464
     65          1           0       -6.807074    5.865955   -0.622040
     66          1           0       -5.351534    6.651819   -1.133358
     67          1           0       -5.844285    6.986830    0.430507
     68          1           0       -2.169347    4.199429    1.125768
     69          1           0       -2.918053    5.728830    1.664751
     70          1           0       -0.491239    5.435756    0.708111
     71          1           0       -1.449507    7.013554    0.857698
     72          1           0       -1.229651    6.145061   -0.658602
     73          1           0        0.475190    1.562791   -3.207931
     74          1           0        1.365496    0.869491   -1.795899
     75          1           0        0.578649    2.466476   -1.725991
     76          1           0       -1.306101   -3.625696   -0.289991
     77          1           0       -1.757342   -6.268820   -3.822666
     78          1           0       -0.249885   -6.818256   -3.091855
     79          1           0       -0.238339   -5.557453   -4.162541
     80         12           0        4.792205    0.610425    0.241167
     81          6           0        2.534717   -1.809105    1.164985
     82          6           0        7.230731   -1.954806   -0.123261
     83          6           0        7.252113    2.894971   -0.158046
     84          6           0        2.586982    3.048319    0.907728
     85          7           0        4.862753   -1.635407    0.500803
     86          6           0        3.785579   -2.377515    0.904946
     87          6           0        4.107180   -3.873446    0.878440
     88          6           0        5.688428   -3.833179    0.649540
     89          6           0        5.957589   -2.393148    0.323924
     90          6           0        6.527472   -4.421254    1.842801
     91          6           0        3.345444   -4.672760   -0.275091
     92          6           0        2.703109   -6.019528   -0.044852
     93          1           0        3.481310   -7.060389    0.678731
     94          7           0        6.963276    0.517469   -0.150992
     95          6           0        7.697738   -0.580601   -0.434719
     96          6           0        9.002186   -0.232034   -0.888995
     97          6           0        9.033727    1.197209   -0.942944
     98          6           0        7.726020    1.581152   -0.332349
     99          6           0        9.986005   -1.326724   -1.149332
    100          6           0       10.196816    2.110722   -1.290293
    101          8           0       10.188851    3.318606   -1.033326
    102          6           0       11.438130    1.547865   -1.960040
    103          7           0        4.954515    2.717234    0.507620
    104          6           0        6.052148    3.434888    0.150979
    105          6           0        5.747162    4.931806    0.166857
    106          6           0        4.180946    4.949166    0.341332
    107          6           0        3.874820    3.486157    0.594412
    108          6           0        6.516329    5.903070    1.110373
    109          6           0        3.340104    5.616495   -0.825744
    110          6           0        2.798919    4.772666   -1.960388
    111          7           0        2.991259    0.664925    0.986936
    112          6           0        2.096826    1.699365    1.095571
    113          6           0        0.839157    1.304519    1.616714
    114          6           0        0.938219   -0.083305    1.617398
    115          6           0        2.253421   -0.420105    1.205816
    116          6           0       -0.423148    2.071435    1.988692
    117          6           0        0.284303   -1.284451    1.903361
    118          8           0       -0.834237   -1.443075    2.356634
    119          6           0        1.294909   -2.538705    1.649866
    120          6           0        1.454808   -3.245879    2.914455
    121          8           0        1.987252   -2.789651    3.945641
    122          8           0        0.909415   -4.491023    2.910678
    123          6           0        0.715635   -5.183635    4.189542
    124          1           0        7.864022   -2.829249   -0.284520
    125          1           0        7.939777    3.643772   -0.556111
    126          1           0        1.763312    3.752507    0.778590
    127          1           0        3.762065   -4.315166    1.814128
    128          1           0        5.984747   -4.463311   -0.189218
    129          1           0        7.114723   -5.252828    1.454798
    130          1           0        5.786545   -4.659620    2.606090
    131          1           0        7.305252   -3.764741    2.234041
    132          1           0        4.140440   -4.782576   -1.012879
    133          1           0        2.672174   -4.016377   -0.825414
    134          1           0        2.300241   -6.404858   -0.981478
    135          1           0        1.878626   -5.831307    0.641877
    136          1           0       10.447807   -1.063734   -2.100302
    137          1           0        9.475149   -2.276651   -1.308647
    138          1           0       10.752556   -1.478432   -0.388642
    139          1           0       11.227846    0.828639   -2.752170
    140          1           0       12.161935    1.251438   -1.199632
    141          1           0       11.875223    2.406787   -2.470156
    142          1           0        6.096859    5.261593   -0.811669
    143          1           0        3.854535    5.595248    1.155412
    144          1           0        5.859147    6.257311    1.904424
    145          1           0        6.814085    6.751621    0.494641
    146          1           0        7.365860    5.334915    1.487721
    147          1           0        3.977960    6.383085   -1.263617
    148          1           0        2.463907    6.114087   -0.409460
    149          1           0        3.076220    5.176510   -2.934386
    150          1           0        1.714626    4.655549   -1.938922
    151          1           0        3.253727    3.792438   -1.817434
    152          1           0       -0.277452    3.128138    1.761264
    153          1           0       -0.634443    1.919863    3.047521
    154          1           0       -1.252464    1.675023    1.403542
    155          1           0        0.684080   -3.141288    0.977019
    156          1           0       -0.060628   -5.948627    4.167366
    157          1           0        0.615125   -4.539620    5.062666
    158          1           0        1.603162   -5.805919    4.305300
 ---------------------------------------------------------------------

 SCF Done:  E(RPBE1PBE) =  -4067.40293020     A.U. after   16 cycles

 Excitation energies and oscillator strengths:

 Excited State   1:      Singlet-A      1.6101 eV  770.05 nm  f=0.0625  <S**2>=0.000
     312 -> 313        0.66435
     312 -> 314        0.23045
 This state for optimization and/or second-order correction.
 Total Energy, E(TD-HF/TD-DFT) =  -4067.34376076
 Copying the excited state density for this state as the 1-particle RhoCI density.

 Excited State   2:      Singlet-A      1.7065 eV  726.54 nm  f=0.1185  <S**2>=0.000
     311 -> 313        0.51485
     311 -> 314       -0.43069
     312 -> 314       -0.20088

 Excited State   3:      Singlet-A      1.8341 eV  675.98 nm  f=0.7429  <S**2>=0.000
     309 -> 315       -0.11477
     311 -> 313        0.27707
     311 -> 314        0.52388
     312 -> 313        0.16142
     312 -> 314       -0.32720

 Excited State   4:      Singlet-A      1.8929 eV  655.01 nm  f=0.0128  <S**2>=0.000
     309 -> 315       -0.12107
     310 -> 317       -0.13218
     311 -> 313        0.37286
     311 -> 314        0.17648
     312 -> 313       -0.14712
     312 -> 314        0.53314

 Excited State   5:      Singlet-A      2.0525 eV  604.06 nm  f=0.0150  <S**2>=0.000
     310 -> 313        0.69359

 The electronic state is 1-A.
 Alpha  occ. eigenvalues --  -46.91935 -46.91917 -19.26320 -19.25420 -19.20106
 Alpha  occ. eigenvalues --  -19.19534 -19.18770 -19.18659 -19.18620 -19.18351
 Alpha  occ. eigenvalues --  -14.41917 -14.41597 -14.40994 -14.40527 -14.39359
 Alpha  occ. eigenvalues --  -14.38921 -14.38630 -14.38618 -10.35980 -10.35498
 Alpha  occ. eigenvalues --  -10.33366 -10.32832 -10.32020 -10.31341 -10.29588
 Alpha  occ. eigenvalues --  -10.29218 -10.29013 -10.28876 -10.28668 -10.28472
 Alpha  occ. eigenvalues --  -10.28458 -10.28087 -10.28083 -10.27902 -10.27770
 Alpha  occ. eigenvalues --  -10.27311 -10.27209 -10.27172 -10.27139 -10.27055
 Alpha  occ. eigenvalues --  -10.26914 -10.26813 -10.26658 -10.26613 -10.26429
 Alpha  occ. eigenvalues --  -10.26130 -10.26038 -10.25855 -10.25814 -10.25751
 Alpha  occ. eigenvalues --  -10.25432 -10.25384 -10.25382 -10.25363 -10.25258
 Alpha  occ. eigenvalues --  -10.25221 -10.25148 -10.25081 -10.25079 -10.25074
 Alpha  occ. eigenvalues --  -10.25030 -10.25023 -10.24812 -10.24806 -10.24667
 Alpha  occ. eigenvalues --  -10.24639 -10.23995 -10.23929 -10.23847 -10.23841
 Alpha  occ. eigenvalues --  -10.23834 -10.23739 -10.23563 -10.23503 -10.23479
 Alpha  occ. eigenvalues --  -10.23459 -10.23381 -10.23131 -10.23039 -10.22960
 Alpha  occ. eigenvalues --  -10.22940 -10.22914 -10.22846 -10.22429 -10.22306
 Alpha  occ. eigenvalues --  -10.21871  -3.14111  -3.14107  -1.86947  -1.86934
 Alpha  occ. eigenvalues --   -1.86485  -1.86445  -1.86384  -1.86337  -1.12973
 Alpha  occ. eigenvalues --   -1.10293  -1.04547  -1.04398  -1.04075  -1.03711
 Alpha  occ. eigenvalues --   -1.01640  -1.00247  -1.00009  -0.99547  -0.98803
 Alpha  occ. eigenvalues --   -0.98474  -0.98247  -0.97496  -0.97491  -0.96351
 Alpha  occ. eigenvalues --   -0.86416  -0.86359  -0.83993  -0.83212  -0.82906
 Alpha  occ. eigenvalues --   -0.82883  -0.82213  -0.81887  -0.81679  -0.81460
 Alpha  occ. eigenvalues --   -0.81227  -0.81140  -0.80168  -0.79577  -0.78736
 Alpha  occ. eigenvalues --   -0.78108  -0.77987  -0.77684  -0.77266  -0.76682
 Alpha  occ. eigenvalues --   -0.76385  -0.75440  -0.75309  -0.75015  -0.74892
 Alpha  occ. eigenvalues --   -0.74126  -0.72907  -0.72199  -0.72050  -0.71455
 Alpha  occ. eigenvalues --   -0.71189  -0.70845  -0.70760  -0.70088  -0.69540
 Alpha  occ. eigenvalues --   -0.69331  -0.67498  -0.66857  -0.66278  -0.65471
 Alpha  occ. eigenvalues --   -0.63755  -0.63541  -0.63132  -0.62866  -0.62338
 Alpha  occ. eigenvalues --   -0.61837  -0.61288  -0.60861  -0.60177  -0.59848
 Alpha  occ. eigenvalues --   -0.59470  -0.59297  -0.59130  -0.58836  -0.58822
 Alpha  occ. eigenvalues --   -0.58221  -0.57302  -0.56475  -0.55305  -0.54259
 Alpha  occ. eigenvalues --   -0.54042  -0.53894  -0.53718  -0.53169  -0.53104
 Alpha  occ. eigenvalues --   -0.52734  -0.52588  -0.52148  -0.51830  -0.51431
 Alpha  occ. eigenvalues --   -0.51181  -0.50420  -0.50368  -0.49717  -0.49466
 Alpha  occ. eigenvalues --   -0.49186  -0.49092  -0.49039  -0.48975  -0.48464
 Alpha  occ. eigenvalues --   -0.48244  -0.47937  -0.47683  -0.47485  -0.47249
 Alpha  occ. eigenvalues --   -0.47183  -0.46965  -0.46894  -0.46739  -0.46680
 Alpha  occ. eigenvalues --   -0.46278  -0.46234  -0.46050  -0.45857  -0.45395
 Alpha  occ. eigenvalues --   -0.45179  -0.45022  -0.44803  -0.44598  -0.44511
 Alpha  occ. eigenvalues --   -0.44237  -0.44200  -0.44097  -0.43877  -0.43818
 Alpha  occ. eigenvalues --   -0.43654  -0.43528  -0.43350  -0.43188  -0.43111
 Alpha  occ. eigenvalues --   -0.42982  -0.42903  -0.42780  -0.42718  -0.42691
 Alpha  occ. eigenvalues --   -0.42480  -0.42329  -0.42274  -0.42027  -0.41759
 Alpha  occ. eigenvalues --   -0.41592  -0.41236  -0.41231  -0.41060  -0.40933
 Alpha  occ. eigenvalues --   -0.40645  -0.40550  -0.40456  -0.40375  -0.40351
 Alpha  occ. eigenvalues --   -0.40261  -0.40131  -0.40066  -0.39903  -0.39676
 Alpha  occ. eigenvalues --   -0.39619  -0.39338  -0.39149  -0.38976  -0.38828
 Alpha  occ. eigenvalues --   -0.38747  -0.38395  -0.38334  -0.38185  -0.38159
 Alpha  occ. eigenvalues --   -0.38027  -0.37800  -0.37666  -0.37525  -0.37506
 Alpha  occ. eigenvalues --   -0.37336  -0.36854  -0.36563  -0.36494  -0.36415
 Alpha  occ. eigenvalues --   -0.36329  -0.36278  -0.36140  -0.35835  -0.35783
 Alpha  occ. eigenvalues --   -0.35631  -0.35547  -0.35403  -0.34986  -0.34890
 Alpha  occ. eigenvalues --   -0.34858  -0.34654  -0.34389  -0.34337  -0.33495
 Alpha  occ. eigenvalues --   -0.33430  -0.33171  -0.32941  -0.32703  -0.32293
 Alpha  occ. eigenvalues --   -0.31758  -0.31635  -0.31610  -0.30953  -0.30829
 Alpha  occ. eigenvalues --   -0.30300  -0.30272  -0.29705  -0.29166  -0.28878
 Alpha  occ. eigenvalues --   -0.28357  -0.28064  -0.27588  -0.27305  -0.26557
 Alpha  occ. eigenvalues --   -0.26347  -0.26288  -0.26178  -0.25828  -0.25656
 Alpha  occ. eigenvalues --   -0.25124  -0.24994  -0.24654  -0.20843  -0.20210
 Alpha  occ. eigenvalues --   -0.18834  -0.18515
 Alpha virt. eigenvalues --   -0.11246  -0.10839  -0.05416  -0.04725  -0.04243
 Alpha virt. eigenvalues --   -0.03352  -0.02458  -0.01421  -0.00311   0.00145
 Alpha virt. eigenvalues --    0.00587   0.01059   0.01516   0.01756   0.02290

 Mulliken charges:
               1
     1  Mg  12.000376
     2  C    6.002378
     3  C    6.000574
     4  C    5.998880
     5  C    6.000821
     6  N    7.000780
     7  C    5.997197
     8  C    6.001789
     9  C    5.998482
    10  C    6.003763
    11  C    5.999263
    12  C    5.999935
    13  C    5.999820
    14  H    1.001012
    15  N    6.999213
    16  C    6.003884
    17  C    6.002390
    18  C    6.002579
    19  C    6.002898
    20  C    5.999177
    21  C    6.001891
    22  O    8.003786
    23  C    5.999261
    24  N    6.999486
    25  C    6.004369
    26  C    5.999148
    27  C    6.000683
    28  C    5.997508
    29  C    5.999336
    30  C    5.999943
    31  C    5.999953
    32  N    7.000590
    33  C    5.996275
    34  C    5.997552
    35  C    5.999028
    36  C    5.995842
    37  C    5.999211
    38  C    5.999473
    39  O    8.000573
    40  C    5.999828
    41  C    6.000034
    42  O    7.999811
    43  O    8.000072
    44  C    5.999761
    45  H    1.002297
    46  H    1.001416
    47  H    1.000161
    48  H    1.000677
    49  H    1.000605
    50  H    1.002009
    51  H    0.999809
    52  H    1.001597
    53  H    0.999776
    54  H    0.999783
    55  H    1.000485
    56  H    1.000377
    57  H    1.002675
    58  H    1.002075
    59  H    1.002803
    60  H    1.000921
    61  H    1.001242
    62  H    1.002344
    63  H    1.000557
    64  H    1.000896
    65  H    0.999728
    66  H    1.001646
    67  H    1.001260
    68  H    0.999203
    69  H    0.999966
    70  H    1.000249
    71  H    1.000578
    72  H    1.000920
    73  H    1.001917
    74  H    1.000590
    75  H    0.999011
    76  H    0.999693
    77  H    0.999629
    78  H    1.000637
    79  H    1.000720
    80  Mg  11.998640
    81  C    5.997407
    82  C    5.999677
    83  C    6.004313
    84  C    6.002343
    85  N    6.999102
    86  C    6.001815
    87  C    5.998673
    88  C    6.002916
    89  C    5.993368
    90  C    6.000899
    91  C    5.998938
    92  C    6.000336
    93  H    1.000363
    94  N    7.000783
    95  C    5.993011
    96  C    5.996052
    97  C    5.996608
    98  C    5.993009
    99  C    6.000914
   100  C    5.997405
   101  O    7.993918
   102  C    6.001449
   103  N    7.003234
   104  C    5.992047
   105  C    6.002115
   106  C    5.999500
   107  C    6.000280
   108  C    6.000022
   109  C    5.999789
   110  C    5.999295
   111  N    7.001107
   112  C    6.000580
   113  C    6.010278
   114  C    5.997481
   115  C    6.003667
   116  C    5.998753
   117  C    6.005042
   118  O    8.005568
   119  C    6.000464
   120  C    6.000882
   121  O    8.001051
   122  O    8.000236
   123  C    5.999620
   124  H    0.996358
   125  H    0.998720
   126  H    1.000491
   127  H    0.998186
   128  H    0.998408
   129  H    0.998440
   130  H    0.996685
   131  H    0.999918
   132  H    1.001532
   133  H    0.999087
   134  H    0.999341
   135  H    0.998385
   136  H    0.996347
   137  H    0.996940
   138  H    0.995445
   139  H    0.998433
   140  H    0.997741
   141  H    0.996718
   142  H    0.999446
   143  H    0.998862
   144  H    0.997595
   145  H    0.998747
   146  H    1.000566
   147  H    1.000866
   148  H    0.998611
   149  H    1.000701
   150  H    0.998664
   151  H    1.001038
   152  H    1.002328
   153  H    1.001975
   154  H    1.002177
   155  H    1.000384
   156  H    0.999929
   157  H    0.999782
   158  H    1.001330
 Sum of Mulliken charges = 624.00000

 Dipole moment (field-independent basis, Debye):
    X=             -4.4931    Y=              0.1836    Z=              0.4904  Tot=              4.5235
 Quadrupole moment (field-independent basis, Debye-Ang):
   XX=             -8.2287   YY=              0.2264   ZZ=              0.4396
   XY=             -2.2598   XZ=              1.4287   YZ=              0.6163

 Normal termination of Gaussian 16 at Fri Oct 15 14:48:53 2021.
