 Gaussian 16, Revision A.03,
 Gaussian 16:  ES64L-G16RevA.03 25-Dec-2016

 ---------------------------------------------------------
 #p PBE1PBE/Def2SVP td=(nstates=5, root=1) density=current
 ---------------------------------------------------------

 --------------------------------
 TDDFT excited states in gaussian
 --------------------------------
 Symbolic Z-matrix:
 Charge =  0 Multiplicity = 1

                         Standard orientation:
 ---------------------------------------------------------------------
 Center     Atomic      Atomic             Coordinates (Angstroms)
 Number     Number       Type             X           Y           Z
 ---------------------------------------------------------------------
      1         12           0       -0.700716    0.024386   -0.461074
      2          6           0        2.808914   -0.123085   -0.356417
      3          6           0       -0.777813   -3.407703   -0.268796
      4          6           0       -3.931510    0.297229    0.197008
      5          6           0       -0.483058    3.569206   -0.392384
      6          7           0        0.818711   -1.531924   -0.075143
      7          6           0        2.229035   -1.376785   -0.070517
      8          6           0        2.945541   -2.653914   -0.230470
      9          6           0        1.752420   -3.701938   -0.300570
     10          6           0        0.503247   -2.836553   -0.248060
     11          6           0        1.884850   -4.674001   -1.497889
     12          6           0        3.809095   -3.037569    0.932289
     13          6           0        3.276416   -2.695260    2.331660
     14          1           0        3.536082   -3.644657    3.565519
     15          7           0       -2.209145   -1.361889   -0.114232
     16          6           0       -2.037040   -2.694494   -0.204814
     17          6           0       -3.327787   -3.328111   -0.102514
     18          6           0       -4.279991   -2.280975   -0.040363
     19          6           0       -3.507510   -1.028557   -0.012620
     20          6           0       -3.581627   -4.810359   -0.041106
     21          6           0       -5.797643   -2.457487   -0.000569
     22          8           0       -6.300650   -3.564000   -0.009443
     23          6           0       -6.835822   -1.387605    0.165763
     24          7           0       -1.975248    1.665937    0.109825
     25          6           0       -3.325768    1.522206    0.285308
     26          6           0       -4.055131    2.905824    0.274121
     27          6           0       -2.862722    3.902552    0.393822
     28          6           0       -1.706229    3.010727   -0.001622
     29          6           0       -4.895379    3.205203   -0.990818
     30          6           0       -2.503217    4.394896    1.874620
     31          6           0       -2.273647    5.851088    2.060222
     32          7           0        0.750702    1.432610   -0.491612
     33          6           0        0.668286    2.760622   -0.649122
     34          6           0        1.992788    3.309382   -1.128114
     35          6           0        2.833033    2.152573   -1.063120
     36          6           0        2.066267    1.076879   -0.532434
     37          6           0        2.390664    4.721528   -1.532843
     38          6           0        4.204183    1.743528   -1.164810
     39          8           0        5.206581    2.383858   -1.439983
     40          6           0        4.227692    0.221838   -0.732847
     41          6           0        5.011573    0.143202    0.560777
     42          8           0        4.699337    0.564889    1.625051
     43          8           0        6.136679   -0.618872    0.328172
     44          6           0        6.839990   -1.019800    1.550847
     45          1           0       -0.793033   -4.490594   -0.407327
     46          1           0       -5.016109    0.410937    0.236982
     47          1           0       -0.509648    4.654945   -0.505934
     48          1           0        3.560840   -2.576397   -1.126844
     49          1           0        1.584285   -4.296442    0.597368
     50          1           0        1.712792   -5.626563   -0.996453
     51          1           0        2.893472   -4.554290   -1.893593
     52          1           0        1.102779   -4.539561   -2.245411
     53          1           0        4.857533   -2.762530    0.814232
     54          1           0        3.984641   -4.108536    1.036197
     55          1           0        2.203802   -2.555107    2.193435
     56          1           0        3.696823   -1.702917    2.495747
     57          1           0       -4.288185   -5.054059    0.752989
     58          1           0       -2.635623   -5.343979    0.049886
     59          1           0       -4.033882   -5.039418   -1.006337
     60          1           0       -6.830671   -0.874827    1.127064
     61          1           0       -7.745959   -1.986544    0.201083
     62          1           0       -6.967270   -0.774127   -0.726206
     63          1           0       -4.726427    2.932387    1.132370
     64          1           0       -2.940163    4.754273   -0.282449
     65          1           0       -4.415370    4.014088   -1.541339
     66          1           0       -5.958929    3.275397   -0.763293
     67          1           0       -4.849522    2.337649   -1.648136
     68          1           0       -1.652591    3.843549    2.274648
     69          1           0       -3.371256    4.096605    2.462773
     70          1           0       -2.919474    6.291128    2.819790
     71          1           0       -2.370462    6.428086    1.140258
     72          1           0       -1.266568    6.058627    2.420900
     73          1           0        3.204986    5.012694   -0.869345
     74          1           0        1.483418    5.326234   -1.562105
     75          1           0        2.846348    4.622410   -2.517964
     76          1           0        4.653534   -0.420593   -1.503265
     77          1           0        6.176178   -1.128368    2.408447
     78          1           0        7.543759   -0.203831    1.715472
     79          1           0        7.455153   -1.874171    1.269793
 ---------------------------------------------------------------------

 SCF Done:  E(RPBE1PBE) =  -2033.67926389     A.U. after   16 cycles

 Excitation energies and oscillator strengths:

 Excited State   1:      Singlet-A      1.8294 eV  677.74 nm  f=0.3622  <S**2>=0.000
     155 ->158         0.16653
     156 ->157         0.69542
     156 <-157        -0.11482
 This state for optimization and/or second-order correction.
 Total Energy, E(TD-HF/TD-DFT) =  -2033.61203594
 Copying the excited state density for this state as the 1-particle RhoCI density.

 Excited State   2:      Singlet-A      2.2828 eV  543.12 nm  f=0.1000  <S**2>=0.000
     155 ->157         0.63937
     156 ->158        -0.28990

 Excited State   3:      Singlet-A      2.9801 eV  416.04 nm  f=0.0002  <S**2>=0.000
     154 ->157         0.68032
     154 ->159         0.12528

 Excited State   4:      Singlet-A      3.0110 eV  411.78 nm  f=0.0008  <S**2>=0.000
     151 ->157        -0.17629
     153 ->157         0.66246

 Excited State   5:      Singlet-A      3.0838 eV  402.05 nm  f=0.0009  <S**2>=0.000
     151 ->157        -0.16398
     152 ->157         0.66518

 The electronic state is 1-A.
 Alpha  occ. eigenvalues --  -46.91964 -19.25259 -19.20591 -19.19360 -19.18425
 Alpha  occ. eigenvalues --  -14.41884 -14.41412 -14.39250 -14.39120 -10.36239
 Alpha  occ. eigenvalues --  -10.32138 -10.31727 -10.28999 -10.28665 -10.28616
 Alpha  occ. eigenvalues --  -10.28491 -10.28438 -10.28353 -10.28067 -10.27587
 Alpha  occ. eigenvalues --  -10.27075 -10.26490 -10.26330 -10.26147 -10.26119
 Alpha  occ. eigenvalues --  -10.25935 -10.25935 -10.25797 -10.25642 -10.25352
 Alpha  occ. eigenvalues --  -10.25063 -10.24720 -10.24446 -10.24123 -10.24081
 Alpha  occ. eigenvalues --  -10.24055 -10.24043 -10.23969 -10.23597 -10.22915
 Alpha  occ. eigenvalues --  -10.22897 -10.22797 -10.22780  -3.14185  -1.86987
 Alpha  occ. eigenvalues --   -1.86565  -1.86426  -1.11994  -1.05118  -1.04703
 Alpha  occ. eigenvalues --   -1.03780  -0.99212  -0.98682  -0.97912  -0.97261
 Alpha  occ. eigenvalues --   -0.87537  -0.84144  -0.83739  -0.82699  -0.81842
 Alpha  occ. eigenvalues --   -0.80635  -0.80108  -0.79007  -0.78461  -0.76996
 Alpha  occ. eigenvalues --   -0.75892  -0.75155  -0.74806  -0.72292  -0.71796
 Alpha  occ. eigenvalues --   -0.71131  -0.70355  -0.69506  -0.67169  -0.66090
 Alpha  occ. eigenvalues --   -0.63937  -0.63288  -0.63029  -0.61523  -0.60292
 Alpha  occ. eigenvalues --   -0.59620  -0.59060  -0.58900  -0.56655  -0.54516
 Alpha  occ. eigenvalues --   -0.54075  -0.53520  -0.53405  -0.52690  -0.52008
 Alpha  occ. eigenvalues --   -0.51111  -0.50532  -0.49966  -0.49667  -0.49195
 Alpha  occ. eigenvalues --   -0.48684  -0.47611  -0.47566  -0.46887  -0.46769
 Alpha  occ. eigenvalues --   -0.46620  -0.46257  -0.45943  -0.45772  -0.45533
 Alpha  occ. eigenvalues --   -0.44618  -0.44226  -0.43995  -0.43937  -0.43522
 Alpha  occ. eigenvalues --   -0.43422  -0.43196  -0.43071  -0.42226  -0.41887
 Alpha  occ. eigenvalues --   -0.41805  -0.41601  -0.41454  -0.41099  -0.40694
 Alpha  occ. eigenvalues --   -0.40599  -0.40247  -0.39972  -0.39477  -0.39164
 Alpha  occ. eigenvalues --   -0.38842  -0.38698  -0.38415  -0.38032  -0.37656
 Alpha  occ. eigenvalues --   -0.37375  -0.37169  -0.37038  -0.37003  -0.36717
 Alpha  occ. eigenvalues --   -0.36065  -0.35654  -0.35269  -0.34790  -0.34033
 Alpha  occ. eigenvalues --   -0.33422  -0.32835  -0.32250  -0.32089  -0.31453
 Alpha  occ. eigenvalues --   -0.30743  -0.29906  -0.29409  -0.28666  -0.26998
 Alpha  occ. eigenvalues --   -0.26086  -0.25504  -0.25249  -0.25130  -0.21224
 Alpha  occ. eigenvalues --   -0.18702
 Alpha virt. eigenvalues --   -0.11236  -0.05317  -0.04000  -0.01905  -0.01323
 Alpha virt. eigenvalues --    0.00884   0.01015   0.01410   0.03471   0.04197
 Alpha virt. eigenvalues --    0.04596   0.05525   0.06118   0.06366   0.06830

 Mulliken charges:
               1
     1  Mg   0.966740
     2  C   -0.083552
     3  C   -0.074189
     4  C   -0.072489
     5  C   -0.071238
     6  N   -0.411414
     7  C    0.074182
     8  C   -0.081057
     9  C   -0.157006
    10  C    0.084102
    11  C    0.028123
    12  C   -0.039127
    13  C   -0.136148
    14  H    0.049441
    15  N   -0.474443
    16  C    0.168629
    17  C   -0.211399
    18  C   -0.057149
    19  C    0.178201
    20  C    0.099323
    21  C    0.019066
    22  O   -0.244417
    23  C   -0.018674
    24  N   -0.398958
    25  C    0.076290
    26  C   -0.107213
    27  C   -0.143047
    28  C    0.057425
    29  C    0.035361
    30  C    0.004351
    31  C   -0.060669
    32  N   -0.470021
    33  C    0.156133
    34  C   -0.202413
    35  C   -0.043313
    36  C    0.185234
    37  C    0.087024
    38  C    0.134532
    39  O   -0.220694
    40  C   -0.114297
    41  C    0.285688
    42  O   -0.217302
    43  O   -0.377714
    44  C    0.114027
    45  H    0.003594
    46  H   -0.017486
    47  H    0.004949
    48  H    0.056106
    49  H    0.067953
    50  H    0.044383
    51  H    0.052074
    52  H    0.053727
    53  H    0.034319
    54  H    0.033609
    55  H    0.064018
    56  H    0.071933
    57  H    0.068741
    58  H    0.025484
    59  H    0.060250
    60  H    0.067505
    61  H    0.045651
    62  H    0.056359
    63  H    0.045029
    64  H    0.044359
    65  H    0.046032
    66  H    0.051613
    67  H    0.037186
    68  H    0.067626
    69  H    0.035012
    70  H    0.044761
    71  H    0.032746
    72  H    0.042668
    73  H    0.074070
    74  H    0.043405
    75  H    0.063155
    76  H    0.068303
    77  H    0.077809
    78  H    0.059371
    79  H    0.057756
 Sum of Mulliken charges =  -0.00000

 Dipole moment (field-independent basis, Debye):
    X=             -1.4049    Y=              0.8105    Z=             -1.0910  Tot=              1.9548
 Quadrupole moment (field-independent basis, Debye-Ang):
   XX=           -272.0793   YY=           -240.4356   ZZ=           -256.5891
   XY=            -49.8671   XZ=              4.8267   YZ=              2.6675

 Normal termination of Gaussian 16 at Wed Oct 13 12:34:31 2021.
