 Gaussian 16, Revision A.03,
 Gaussian 16:  ES64L-G16RevA.03 25-Dec-2016

 --------------------------------------------------------
 #p PBE1PBE/Def2SVP td=(nstates=5) density=(transition=1)
 --------------------------------------------------------

 --------------------------------
 TDDFT excited states in gaussian
 --------------------------------
 Symbolic Z-matrix:
 Charge =  0 Multiplicity = 1

                         Standard orientation:
 ---------------------------------------------------------------------
 Center     Atomic      Atomic             Coordinates (Angstroms)
 Number     Number       Type             X           Y           Z
 ---------------------------------------------------------------------
      1         12           0       26.114426    0.805430    0.282516
      2          6           0       26.778186   -2.636234   -0.102895
      3          6           0       23.784369    0.554826   -2.231335
      4          6           0       25.479398    4.094007    0.532561
      5          6           0       28.874868    1.124291    2.408890
      6          7           0       25.347813   -0.898302   -0.853657
      7          6           0       25.678631   -2.185172   -0.911223
      8          6           0       24.872186   -3.061312   -1.892342
      9          6           0       24.174307   -1.859197   -2.694899
     10          6           0       24.496795   -0.624505   -1.889176
     11          6           0       24.638988   -1.733563   -4.125501
     12          6           0       23.795593   -4.051261   -1.177838
     13          6           0       23.484829   -5.300189   -2.007931
     14          1           0       23.851287   -6.634244   -1.308020
     15          7           0       24.681145    2.155037   -0.599639
     16          6           0       23.830789    1.822181   -1.683009
     17          6           0       22.901607    2.919284   -1.833732
     18          6           0       23.352285    3.959417   -1.025891
     19          6           0       24.546129    3.440508   -0.287471
     20          6           0       21.805182    2.961001   -2.881373
     21          6           0       22.807480    5.347933   -0.780995
     22          8           0       23.326458    6.054514    0.033088
     23          6           0       21.581470    5.854429   -1.473021
     24          7           0       27.140746    2.424005    1.149674
     25          6           0       26.638789    3.692354    1.182093
     26          6           0       27.587782    4.514159    2.097956
     27          6           0       28.220693    3.517383    3.052307
     28          6           0       28.121202    2.246772    2.175710
     29          6           0       28.678864    5.160300    1.245382
     30          6           0       27.550813    3.409187    4.371990
     31          6           0       26.047863    3.288780    4.424225
     32          7           0       27.544280   -0.455696    1.062136
     33          6           0       28.615324   -0.213619    1.901626
     34          6           0       29.312373   -1.483370    2.158471
     35          6           0       28.602543   -2.440059    1.412169
     36          6           0       27.574684   -1.787362    0.788093
     37          6           0       30.517673   -1.666513    2.975572
     38          6           0       28.434229   -3.844858    1.153115
     39          8           0       29.067794   -4.849750    1.591014
     40          6           0       27.187795   -3.998140    0.159155
     41          6           0       27.721784   -4.638730   -1.095765
     42          8           0       28.712423   -4.260179   -1.647160
     43          8           0       26.934671   -5.696222   -1.626886
     44          6           0       27.280305   -6.105966   -3.022045
     45          1           0       23.078054    0.507280   -3.062089
     46          1           0       25.371994    5.180519    0.566271
     47          1           0       29.634035    1.117173    3.194130
     48          1           0       25.545838   -3.709735   -2.453943
     49          1           0       23.113196   -2.109849   -2.665873
     50          1           0       23.887842   -2.239008   -4.732251
     51          1           0       25.660744   -2.084565   -4.271658
     52          1           0       24.492538   -0.677911   -4.353856
     53          1           0       22.855179   -3.522359   -1.019899
     54          1           0       24.135331   -4.331770   -0.180641
     55          1           0       24.050694   -5.099795   -2.917967
     56          1           0       22.447106   -5.324974   -2.339975
     57          1           0       21.665963    1.917908   -3.162874
     58          1           0       22.289670    3.468982   -3.714749
     59          1           0       20.873774    3.374276   -2.493820
     60          1           0       20.829378    5.252652   -0.962515
     61          1           0       21.540327    5.639194   -2.540425
     62          1           0       21.457942    6.922750   -1.292165
     63          1           0       27.119689    5.342337    2.628911
     64          1           0       29.253278    3.727583    3.329046
     65          1           0       29.677061    4.723007    1.221229
     66          1           0       28.777457    6.194248    1.575873
     67          1           0       28.316910    5.206593    0.217645
     68          1           0       27.842479    4.216974    5.043609
     69          1           0       27.964989    2.495950    4.798851
     70          1           0       25.847004    2.277721    4.779673
     71          1           0       25.399486    3.425016    3.558183
     72          1           0       25.683229    3.959484    5.202073
     73          1           0       31.356382   -1.212979    2.447497
     74          1           0       30.583755   -2.747498    3.098361
     75          1           0       30.440854   -1.135930    3.925566
     76          1           0       26.459750   -4.580093    0.724595
     77          1           0       28.175419   -6.727878   -3.022538
     78          1           0       27.439611   -5.259490   -3.691581
     79          1           0       26.562494   -6.757373   -3.519738
     80         12           0      -26.787796   -0.171562   -0.089155
     81          6           0      -23.357383   -0.700417   -0.303600
     82          6           0      -26.682434   -1.505927    3.109603
     83          6           0      -29.908358    0.767377    0.463742
     84          6           0      -26.676662    1.585107   -3.069137
     85          7           0      -25.197053   -0.852381    1.305952
     86          6           0      -23.889031   -1.111512    0.951234
     87          6           0      -23.132563   -1.850490    2.015175
     88          6           0      -24.317675   -2.419599    2.913460
     89          6           0      -25.473167   -1.532331    2.469783
     90          6           0      -24.606324   -3.990086    3.045170
     91          6           0      -22.018482   -0.997502    2.781495
     92          6           0      -22.278019    0.526254    2.974495
     93          1           0      -21.887309    1.055390    4.333524
     94          7           0      -28.093327   -0.235241    1.602903
     95          6           0      -27.855503   -0.851654    2.837688
     96          6           0      -28.960305   -0.670818    3.738993
     97          6           0      -29.936812    0.026472    2.988459
     98          6           0      -29.353952    0.255011    1.632731
     99          6           0      -29.000422   -1.422968    5.070194
    100          6           0      -31.318613    0.382746    3.582452
    101          8           0      -31.600257    0.163134    4.764911
    102          6           0      -32.297644    0.947236    2.641186
    103          7           0      -28.018928    1.116561   -1.137240
    104          6           0      -29.366983    1.104632   -0.820874
    105          6           0      -30.240892    1.811025   -1.880591
    106          6           0      -29.086299    2.251441   -2.871112
    107          6           0      -27.856206    1.675595   -2.324959
    108          6           0      -31.335424    1.048596   -2.558192
    109          6           0      -28.924085    3.851884   -2.974542
    110          6           0      -28.804054    4.293369   -4.409870
    111          7           0      -25.369938    0.207198   -1.568507
    112          6           0      -25.475654    0.943620   -2.733842
    113          6           0      -24.170054    0.972399   -3.431977
    114          6           0      -23.292648    0.321994   -2.496063
    115          6           0      -24.076651   -0.098723   -1.415491
    116          6           0      -23.736405    1.730667   -4.620181
    117          6           0      -21.903380   -0.049515   -2.153016
    118          8           0      -20.876612    0.195599   -2.742976
    119          6           0      -21.899942   -0.752804   -0.757592
    120          6           0      -21.292560   -2.080309   -0.859230
    121          8           0      -20.283570   -2.533104   -0.318001
    122          8           0      -21.915600   -2.732869   -1.955224
    123          6           0      -21.480231   -4.125375   -2.195411
    124          1           0      -26.655673   -2.152360    3.989882
    125          1           0      -30.983954    0.954769    0.449818
    126          1           0      -26.766696    2.092883   -4.031074
    127          1           0      -22.563448   -2.668641    1.573908
    128          1           0      -23.999817   -2.071708    3.896655
    129          1           0      -23.885643   -4.647466    2.559108
    130          1           0      -25.547301   -4.303260    2.593048
    131          1           0      -24.481628   -4.290784    4.085790
    132          1           0      -21.038262   -1.158099    2.333836
    133          1           0      -21.911023   -1.458978    3.763093
    134          1           0      -23.322170    0.767641    2.773208
    135          1           0      -21.687663    1.094271    2.256040
    136          1           0      -29.534791   -0.893075    5.859348
    137          1           0      -27.987635   -1.505968    5.463626
    138          1           0      -29.508732   -2.364612    4.861425
    139          1           0      -32.607016    0.161907    1.952156
    140          1           0      -31.862800    1.805844    2.128558
    141          1           0      -33.140925    1.249773    3.261966
    142          1           0      -30.578734    2.752520   -1.446889
    143          1           0      -29.307998    1.663445   -3.761714
    144          1           0      -31.658671    1.673029   -3.391238
    145          1           0      -32.181496    1.028882   -1.871235
    146          1           0      -30.990738    0.052543   -2.838510
    147          1           0      -28.053812    4.110642   -2.371549
    148          1           0      -29.679252    4.460865   -2.475978
    149          1           0      -27.784688    4.645772   -4.565525
    150          1           0      -29.343327    5.220790   -4.605526
    151          1           0      -28.933935    3.437212   -5.071542
    152          1           0      -24.502558    2.341086   -5.100505
    153          1           0      -23.444846    0.984278   -5.358280
    154          1           0      -23.048405    2.438017   -4.157568
    155          1           0      -21.309194   -0.092869   -0.122727
    156          1           0      -22.432173   -4.632982   -2.355272
    157          1           0      -20.923161   -4.679189   -1.439670
    158          1           0      -21.046410   -4.102367   -3.195268
 ---------------------------------------------------------------------

 SCF Done:  E(RPBE1PBE) =  -4067.37127890     A.U. after   16 cycles

 Excitation energies and oscillator strengths:

 Excited State   1:      Singlet-A      1.8249 eV  679.39 nm  f=0.3578  <S**2>=0.000
     310 -> 316       -0.17190
     311 -> 313        0.69447
     311 <- 313       -0.10917
 This state for optimization and/or second-order correction.
 Total Energy, E(TD-HF/TD-DFT) =  -4067.30421400
 Copying the excited state density for this state as the 1-particle RhoCI density.

 Excited State   2:      Singlet-A      1.8711 eV  662.63 nm  f=0.3584  <S**2>=0.000
     309 -> 315       -0.17707
     312 -> 314        0.68992
     312 <- 314       -0.10399

 Excited State   3:      Singlet-A      1.9641 eV  631.25 nm  f=0.0000  <S**2>=0.000
     312 -> 313        0.70711

 Excited State   4:      Singlet-A      2.0435 eV  606.73 nm  f=0.0000  <S**2>=0.000
     311 -> 314        0.70711

 Excited State   5:      Singlet-A      2.1781 eV  569.23 nm  f=0.1120  <S**2>=0.000
     310 -> 313        0.65714
     311 -> 316        0.25114

 The electronic state is 1-A.
 Alpha  occ. eigenvalues --  -46.92516 -46.92015 -19.25164 -19.25038 -19.20782
 Alpha  occ. eigenvalues --  -19.20240 -19.19193 -19.19129 -19.19025 -19.18715
 Alpha  occ. eigenvalues --  -14.42701 -14.41771 -14.41702 -14.41053 -14.39264
 Alpha  occ. eigenvalues --  -14.39227 -14.38907 -14.38876 -10.36760 -10.36448
 Alpha  occ. eigenvalues --  -10.32373 -10.32191 -10.32101 -10.32045 -10.29349
 Alpha  occ. eigenvalues --  -10.29329 -10.29016 -10.28983 -10.28930 -10.28808
 Alpha  occ. eigenvalues --  -10.28549 -10.28497 -10.28286 -10.28271 -10.28252
 Alpha  occ. eigenvalues --  -10.27973 -10.27933 -10.27921 -10.27481 -10.26944
 Alpha  occ. eigenvalues --  -10.26738 -10.26707 -10.26663 -10.26488 -10.26366
 Alpha  occ. eigenvalues --  -10.26365 -10.26313 -10.26306 -10.26106 -10.26056
 Alpha  occ. eigenvalues --  -10.26005 -10.25947 -10.25943 -10.25896 -10.25812
 Alpha  occ. eigenvalues --  -10.25754 -10.25588 -10.25560 -10.25385 -10.25233
 Alpha  occ. eigenvalues --  -10.24970 -10.24898 -10.24885 -10.24871 -10.24860
 Alpha  occ. eigenvalues --  -10.24782 -10.24620 -10.24567 -10.24566 -10.24509
 Alpha  occ. eigenvalues --  -10.24442 -10.24381 -10.23767 -10.23716 -10.23650
 Alpha  occ. eigenvalues --  -10.23642 -10.23362 -10.23337 -10.23291 -10.23239
 Alpha  occ. eigenvalues --  -10.23230 -10.23059 -10.22801 -10.22563 -10.22395
 Alpha  occ. eigenvalues --  -10.21891  -3.14621  -3.14092  -1.87446  -1.87011
 Alpha  occ. eigenvalues --   -1.86956  -1.86837  -1.86443  -1.86332  -1.10354
 Alpha  occ. eigenvalues --   -1.09563  -1.06616  -1.05208  -1.04045  -1.02226
 Alpha  occ. eigenvalues --   -1.01747  -1.01554  -0.99817  -0.99708  -0.98378
 Alpha  occ. eigenvalues --   -0.97959  -0.97864  -0.97825  -0.96985  -0.96401
 Alpha  occ. eigenvalues --   -0.87403  -0.86845  -0.84247  -0.83975  -0.83705
 Alpha  occ. eigenvalues --   -0.83539  -0.82977  -0.82301  -0.81979  -0.81972
 Alpha  occ. eigenvalues --   -0.81282  -0.81270  -0.80784  -0.80454  -0.79057
 Alpha  occ. eigenvalues --   -0.78878  -0.78786  -0.77888  -0.76972  -0.76811
 Alpha  occ. eigenvalues --   -0.76598  -0.76547  -0.75485  -0.75213  -0.74520
 Alpha  occ. eigenvalues --   -0.74212  -0.72969  -0.72709  -0.71801  -0.71660
 Alpha  occ. eigenvalues --   -0.71489  -0.71116  -0.70564  -0.70532  -0.70116
 Alpha  occ. eigenvalues --   -0.69322  -0.67135  -0.66993  -0.66601  -0.65739
 Alpha  occ. eigenvalues --   -0.64040  -0.63769  -0.63685  -0.63280  -0.62605
 Alpha  occ. eigenvalues --   -0.62290  -0.61385  -0.61267  -0.60885  -0.60188
 Alpha  occ. eigenvalues --   -0.59427  -0.59390  -0.59097  -0.58819  -0.58569
 Alpha  occ. eigenvalues --   -0.57881  -0.57096  -0.56377  -0.54815  -0.54754
 Alpha  occ. eigenvalues --   -0.54443  -0.54001  -0.53743  -0.53602  -0.53563
 Alpha  occ. eigenvalues --   -0.53057  -0.52915  -0.52272  -0.52136  -0.51795
 Alpha  occ. eigenvalues --   -0.50912  -0.50901  -0.50383  -0.50314  -0.49926
 Alpha  occ. eigenvalues --   -0.49661  -0.49229  -0.49135  -0.49054  -0.48637
 Alpha  occ. eigenvalues --   -0.48482  -0.48402  -0.48094  -0.47918  -0.47683
 Alpha  occ. eigenvalues --   -0.47628  -0.47280  -0.47108  -0.47045  -0.46743
 Alpha  occ. eigenvalues --   -0.46511  -0.46506  -0.46279  -0.46027  -0.45931
 Alpha  occ. eigenvalues --   -0.45741  -0.45461  -0.45409  -0.45342  -0.45081
 Alpha  occ. eigenvalues --   -0.44806  -0.44722  -0.44591  -0.44319  -0.44287
 Alpha  occ. eigenvalues --   -0.44230  -0.43946  -0.43901  -0.43829  -0.43705
 Alpha  occ. eigenvalues --   -0.43508  -0.43207  -0.43008  -0.42962  -0.42817
 Alpha  occ. eigenvalues --   -0.42810  -0.42425  -0.42378  -0.42171  -0.41918
 Alpha  occ. eigenvalues --   -0.41912  -0.41667  -0.41428  -0.41265  -0.41047
 Alpha  occ. eigenvalues --   -0.40999  -0.40947  -0.40745  -0.40483  -0.40411
 Alpha  occ. eigenvalues --   -0.40169  -0.40130  -0.39992  -0.39910  -0.39825
 Alpha  occ. eigenvalues --   -0.39726  -0.39594  -0.39536  -0.39431  -0.39109
 Alpha  occ. eigenvalues --   -0.38851  -0.38755  -0.38556  -0.38379  -0.38297
 Alpha  occ. eigenvalues --   -0.38006  -0.37973  -0.37856  -0.37821  -0.37708
 Alpha  occ. eigenvalues --   -0.37630  -0.37350  -0.37307  -0.37269  -0.37020
 Alpha  occ. eigenvalues --   -0.36799  -0.36673  -0.36619  -0.36541  -0.36389
 Alpha  occ. eigenvalues --   -0.36116  -0.35868  -0.35813  -0.35352  -0.35253
 Alpha  occ. eigenvalues --   -0.35185  -0.34887  -0.34693  -0.34434  -0.34078
 Alpha  occ. eigenvalues --   -0.33537  -0.33274  -0.32983  -0.32685  -0.32461
 Alpha  occ. eigenvalues --   -0.32327  -0.32092  -0.31974  -0.31623  -0.31435
 Alpha  occ. eigenvalues --   -0.31202  -0.30587  -0.30326  -0.29797  -0.29732
 Alpha  occ. eigenvalues --   -0.29519  -0.28910  -0.28796  -0.27110  -0.26935
 Alpha  occ. eigenvalues --   -0.25966  -0.25906  -0.25772  -0.25567  -0.25552
 Alpha  occ. eigenvalues --   -0.25364  -0.25282  -0.25242  -0.21023  -0.21013
 Alpha  occ. eigenvalues --   -0.18944  -0.18890
 Alpha virt. eigenvalues --   -0.11420  -0.11184  -0.05734  -0.05233  -0.03800
 Alpha virt. eigenvalues --   -0.03554  -0.02216  -0.01978  -0.01132  -0.00526
 Alpha virt. eigenvalues --    0.00054   0.00751   0.00776   0.00951   0.01365

 Mulliken charges:
               1
     1  Mg  11.995503
     2  C    6.017079
     3  C    5.988112
     4  C    5.986274
     5  C    6.009918
     6  N    7.011363
     7  C    5.961632
     8  C    6.013687
     9  C    5.983640
    10  C    6.037304
    11  C    5.996446
    12  C    6.001017
    13  C    6.000192
    14  H    1.003467
    15  N    6.993048
    16  C    6.042324
    17  C    6.012393
    18  C    6.020990
    19  C    6.027028
    20  C    5.999613
    21  C    6.011361
    22  O    8.028279
    23  C    5.997349
    24  N    6.999138
    25  C    6.025989
    26  C    5.996615
    27  C    6.003944
    28  C    5.972589
    29  C    6.001675
    30  C    6.006021
    31  C    5.999602
    32  N    6.998204
    33  C    5.962366
    34  C    5.967201
    35  C    5.999859
    36  C    5.973546
    37  C    6.000504
    38  C    5.986687
    39  O    7.970978
    40  C    5.996860
    41  C    5.994415
    42  O    7.998060
    43  O    7.997102
    44  C    6.002086
    45  H    1.010381
    46  H    1.004261
    47  H    0.992129
    48  H    1.002284
    49  H    1.005450
    50  H    1.007903
    51  H    1.013642
    52  H    0.994275
    53  H    0.989355
    54  H    1.006005
    55  H    0.997158
    56  H    0.994697
    57  H    1.014091
    58  H    1.014232
    59  H    1.013656
    60  H    1.007541
    61  H    1.007078
    62  H    1.013660
    63  H    0.998711
    64  H    0.999586
    65  H    1.011286
    66  H    1.001451
    67  H    0.993614
    68  H    0.992942
    69  H    1.006359
    70  H    1.005942
    71  H    0.984756
    72  H    0.997280
    73  H    0.979091
    74  H    0.987265
    75  H    0.980612
    76  H    0.994132
    77  H    0.998530
    78  H    0.994701
    79  H    0.994483
    80  Mg  11.999979
    81  C    6.000084
    82  C    5.999903
    83  C    5.999817
    84  C    6.000068
    85  N    7.000034
    86  C    5.999830
    87  C    6.000073
    88  C    5.999915
    89  C    6.000185
    90  C    5.999975
    91  C    6.000010
    92  C    6.000045
    93  H    0.999928
    94  N    6.999915
    95  C    6.000301
    96  C    6.000045
    97  C    6.000133
    98  C    6.000225
    99  C    5.999987
   100  C    6.000074
   101  O    8.000134
   102  C    6.000013
   103  N    7.000018
   104  C    6.000225
   105  C    5.999902
   106  C    6.000052
   107  C    5.999788
   108  C    5.999982
   109  C    6.000004
   110  C    6.000002
   111  N    7.000096
   112  C    5.999812
   113  C    5.999842
   114  C    5.999923
   115  C    5.999850
   116  C    5.999996
   117  C    5.999934
   118  O    7.999756
   119  C    6.000015
   120  C    5.999924
   121  O    7.999952
   122  O    8.000029
   123  C    5.999993
   124  H    1.000124
   125  H    1.000067
   126  H    0.999894
   127  H    0.999997
   128  H    1.000033
   129  H    1.000076
   130  H    1.000016
   131  H    1.000031
   132  H    0.999996
   133  H    0.999957
   134  H    0.999974
   135  H    1.000006
   136  H    1.000105
   137  H    1.000093
   138  H    1.000130
   139  H    1.000055
   140  H    1.000035
   141  H    1.000090
   142  H    1.000017
   143  H    0.999997
   144  H    1.000057
   145  H    0.999996
   146  H    1.000039
   147  H    0.999992
   148  H    0.999938
   149  H    1.000006
   150  H    0.999976
   151  H    1.000008
   152  H    0.999882
   153  H    0.999889
   154  H    0.999878
   155  H    0.999926
   156  H    1.000002
   157  H    0.999969
   158  H    0.999980
 Sum of Mulliken charges = 624.00000

 Dipole moment (field-independent basis, Debye):
    X=             -6.7535    Y=              6.4361    Z=             -4.0458  Tot=             10.1686
 Quadrupole moment (field-independent basis, Debye-Ang):
   XX=           -347.5303   YY=              8.4733   ZZ=             -1.4629
   XY=            162.5678   XZ=           -109.5495   YZ=             -2.6083

 Normal termination of Gaussian 16 at Wed Oct 13 22:23:55 2021.
