 Gaussian 16, Revision A.03,
 Gaussian 16:  ES64L-G16RevA.03 25-Dec-2016

 --------------------------------------------------------
 #p PBE1PBE/Def2SVP td=(nstates=5) density=(transition=1)
 --------------------------------------------------------

 --------------------------------
 TDDFT excited states in gaussian
 --------------------------------
 Symbolic Z-matrix:
 Charge =  0 Multiplicity = 1

                         Standard orientation:
 ---------------------------------------------------------------------
 Center     Atomic      Atomic             Coordinates (Angstroms)
 Number     Number       Type             X           Y           Z
 ---------------------------------------------------------------------
      1         12           0        0.800332    0.152917   -0.359569
      2          6           0       -2.779603    0.226318   -0.243363
      3          6           0        0.504887   -3.361550   -0.290256
      4          6           0        4.003591   -0.103831    0.254738
      5          6           0        0.834157    3.539890   -0.060006
      6          7           0       -0.955557   -1.353507   -0.328569
      7          6           0       -2.267442   -1.022003   -0.394604
      8          6           0       -3.079482   -2.291794   -0.589691
      9          6           0       -2.090954   -3.490587   -0.643279
     10          6           0       -0.772053   -2.719090   -0.444604
     11          6           0       -2.398554   -4.643628    0.469340
     12          6           0       -3.958431   -2.262415   -1.912722
     13          6           0       -5.422695   -2.679218   -1.770762
     14          1           0       -5.858287   -3.782742   -0.725135
     15          7           0        2.080814   -1.521468   -0.003865
     16          6           0        1.770773   -2.799766   -0.050706
     17          6           0        2.968438   -3.541714    0.225992
     18          6           0        4.083729   -2.666493    0.253044
     19          6           0        3.418809   -1.390620    0.206549
     20          6           0        3.030118   -5.066562    0.153907
     21          6           0        5.591308   -2.864399    0.232452
     22          8           0        6.381883   -1.944029    0.332098
     23          6           0        6.070132   -4.273784    0.017273
     24          7           0        2.137938    1.512364    0.388494
     25          6           0        3.496396    1.191522    0.361097
     26          6           0        4.418084    2.440752    0.398757
     27          6           0        3.338717    3.556159    0.130078
     28          6           0        1.993454    2.830420    0.147264
     29          6           0        5.160554    2.532824    1.739734
     30          6           0        3.484069    4.256059   -1.303202
     31          6           0        4.036026    5.640763   -1.366013
     32          7           0       -0.613659    1.591899   -0.302193
     33          6           0       -0.439982    2.949854   -0.143650
     34          6           0       -1.702481    3.668651    0.006960
     35          6           0       -2.686886    2.617630   -0.031552
     36          6           0       -1.975907    1.395863   -0.092174
     37          6           0       -1.831906    5.148349   -0.034028
     38          6           0       -4.110352    2.321140   -0.080292
     39          8           0       -5.048357    3.139007   -0.072153
     40          6           0       -4.246922    0.697553   -0.193046
     41          6           0       -4.959646    0.300020    1.010755
     42          8           0       -4.583608    0.560344    2.132706
     43          8           0       -6.066350   -0.393690    0.719306
     44          6           0       -7.011639   -0.871346    1.776673
     45          1           0        0.473419   -4.451696   -0.343840
     46          1           0        5.074595   -0.070344    0.041218
     47          1           0        0.895314    4.629876   -0.049695
     48          1           0       -3.710367   -2.404703    0.291991
     49          1           0       -2.177914   -4.049792   -1.575007
     50          1           0       -3.438539   -4.602686    0.793297
     51          1           0       -1.699548   -4.439089    1.280714
     52          1           0       -2.171681   -5.624915    0.052880
     53          1           0       -3.541689   -2.810092   -2.756880
     54          1           0       -4.014250   -1.238235   -2.281360
     55          1           0       -5.843984   -2.997293   -2.724644
     56          1           0       -5.918874   -1.732960   -1.555091
     57          1           0        3.397162   -5.454209   -0.796559
     58          1           0        2.088831   -5.522181    0.462777
     59          1           0        3.722232   -5.375448    0.936951
     60          1           0        5.513244   -4.845649   -0.725597
     61          1           0        6.077448   -4.895725    0.911301
     62          1           0        7.035477   -4.243764   -0.488077
     63          1           0        5.139922    2.333822   -0.410485
     64          1           0        3.436647    4.309484    0.911861
     65          1           0        5.077871    1.643328    2.364128
     66          1           0        4.776379    3.344108    2.357064
     67          1           0        6.215666    2.734154    1.551637
     68          1           0        2.554338    4.345762   -1.865005
     69          1           0        4.068638    3.659890   -2.002920
     70          1           0        4.979054    5.645701   -1.911122
     71          1           0        4.183008    5.891959   -0.315421
     72          1           0        3.339878    6.306531   -1.876051
     73          1           0       -2.760458    5.452462   -0.515955
     74          1           0       -0.912215    5.521535   -0.484208
     75          1           0       -1.859325    5.486087    1.002867
     76          1           0       -4.827319    0.400524   -1.065516
     77          1           0       -7.263688   -0.041541    2.437232
     78          1           0       -6.588183   -1.667552    2.389411
     79          1           0       -7.891914   -1.377485    1.381352
 ---------------------------------------------------------------------

 SCF Done:  E(RPBE1PBE) =  -2033.68309609     A.U. after   16 cycles

 Excitation energies and oscillator strengths:

 Excited State   1:      Singlet-A      1.8475 eV  671.08 nm  f=0.3898  <S**2>=0.000
     155 ->158         0.16120
     156 ->157         0.69530
     156 <-157        -0.11634
 This state for optimization and/or second-order correction.
 Total Energy, E(TD-HF/TD-DFT) =  -2033.61520013
 Copying the excited state density for this state as the 1-particle RhoCI density.

 Excited State   2:      Singlet-A      2.2073 eV  561.69 nm  f=0.1248  <S**2>=0.000
     155 ->157         0.66033
     156 ->158        -0.23205

 Excited State   3:      Singlet-A      2.9978 eV  413.59 nm  f=0.0047  <S**2>=0.000
     152 ->157        -0.22361
     153 ->157        -0.26017
     154 ->157         0.59237

 Excited State   4:      Singlet-A      3.0492 eV  406.61 nm  f=0.0009  <S**2>=0.000
     152 ->157         0.20819
     153 ->157         0.55276
     154 ->157         0.34974

 Excited State   5:      Singlet-A      3.2007 eV  387.36 nm  f=0.0006  <S**2>=0.000
     152 ->157         0.56349
     153 ->157        -0.28742
     156 ->158         0.24115

 The electronic state is 1-A.
 Alpha  occ. eigenvalues --  -46.92039 -19.25844 -19.19729 -19.19276 -19.18686
 Alpha  occ. eigenvalues --  -14.41379 -14.41279 -14.39096 -14.38723 -10.35431
 Alpha  occ. eigenvalues --  -10.32895 -10.32659 -10.29719 -10.29088 -10.28535
 Alpha  occ. eigenvalues --  -10.28258 -10.27975 -10.27328 -10.27326 -10.26929
 Alpha  occ. eigenvalues --  -10.26690 -10.26238 -10.26183 -10.26038 -10.25907
 Alpha  occ. eigenvalues --  -10.25823 -10.25693 -10.25647 -10.25520 -10.25434
 Alpha  occ. eigenvalues --  -10.24707 -10.24621 -10.24292 -10.24088 -10.23944
 Alpha  occ. eigenvalues --  -10.23916 -10.23528 -10.23489 -10.23336 -10.23335
 Alpha  occ. eigenvalues --  -10.23295 -10.22974 -10.22455  -3.14244  -1.87049
 Alpha  occ. eigenvalues --   -1.86624  -1.86477  -1.11282  -1.05570  -1.03182
 Alpha  occ. eigenvalues --   -1.02139  -0.99355  -0.98162  -0.97749  -0.96579
 Alpha  occ. eigenvalues --   -0.86504  -0.82943  -0.82597  -0.82355  -0.81453
 Alpha  occ. eigenvalues --   -0.81284  -0.80765  -0.78525  -0.78424  -0.76927
 Alpha  occ. eigenvalues --   -0.76002  -0.75610  -0.75039  -0.72582  -0.71984
 Alpha  occ. eigenvalues --   -0.71182  -0.70569  -0.69232  -0.66958  -0.65892
 Alpha  occ. eigenvalues --   -0.63178  -0.62243  -0.62066  -0.61330  -0.59965
 Alpha  occ. eigenvalues --   -0.59595  -0.59226  -0.59028  -0.57013  -0.55050
 Alpha  occ. eigenvalues --   -0.53745  -0.53439  -0.53107  -0.52601  -0.52001
 Alpha  occ. eigenvalues --   -0.50688  -0.50190  -0.49762  -0.48867  -0.48127
 Alpha  occ. eigenvalues --   -0.47979  -0.47574  -0.47414  -0.47031  -0.46889
 Alpha  occ. eigenvalues --   -0.46699  -0.45910  -0.45799  -0.45148  -0.45017
 Alpha  occ. eigenvalues --   -0.44754  -0.44531  -0.43790  -0.43709  -0.43379
 Alpha  occ. eigenvalues --   -0.43211  -0.43082  -0.42806  -0.42431  -0.42032
 Alpha  occ. eigenvalues --   -0.41451  -0.41290  -0.40926  -0.40853  -0.40678
 Alpha  occ. eigenvalues --   -0.40041  -0.39891  -0.39277  -0.39083  -0.38669
 Alpha  occ. eigenvalues --   -0.38438  -0.38164  -0.37772  -0.37659  -0.37381
 Alpha  occ. eigenvalues --   -0.37250  -0.36575  -0.36420  -0.36304  -0.36202
 Alpha  occ. eigenvalues --   -0.35921  -0.35455  -0.35201  -0.34670  -0.34202
 Alpha  occ. eigenvalues --   -0.33355  -0.32927  -0.32009  -0.31490  -0.31274
 Alpha  occ. eigenvalues --   -0.31206  -0.29662  -0.28747  -0.28336  -0.26895
 Alpha  occ. eigenvalues --   -0.26471  -0.25846  -0.25577  -0.25062  -0.20776
 Alpha  occ. eigenvalues --   -0.18613
 Alpha virt. eigenvalues --   -0.11151  -0.04721  -0.04059  -0.02339  -0.01008
 Alpha virt. eigenvalues --    0.00688   0.01097   0.01412   0.03312   0.04551
 Alpha virt. eigenvalues --    0.05004   0.05763   0.06355   0.06762   0.07264

 Mulliken charges:
               1
     1  Mg  12.002079
     2  C    5.980516
     3  C    6.007731
     4  C    6.024680
     5  C    5.994492
     6  N    6.991544
     7  C    6.024759
     8  C    5.990625
     9  C    6.013385
    10  C    5.968709
    11  C    6.000617
    12  C    5.998999
    13  C    5.999073
    14  H    1.006743
    15  N    7.003954
    16  C    5.966897
    17  C    5.974201
    18  C    5.989108
    19  C    5.967651
    20  C    6.002956
    21  C    5.985849
    22  O    7.973693
    23  C    6.007441
    24  N    7.008531
    25  C    5.958146
    26  C    6.009974
    27  C    5.991868
    28  C    6.026559
    29  C    6.003033
    30  C    5.991910
    31  C    5.999717
    32  N    7.003217
    33  C    6.028548
    34  C    6.038040
    35  C    5.997896
    36  C    6.031717
    37  C    5.997624
    38  C    6.016056
    39  O    8.026717
    40  C    6.006521
    41  C    6.004893
    42  O    8.002537
    43  O    8.002116
    44  C    5.997878
    45  H    0.989480
    46  H    0.994708
    47  H    1.011308
    48  H    0.999521
    49  H    0.994703
    50  H    0.987323
    51  H    1.001586
    52  H    0.999764
    53  H    1.007966
    54  H    0.992342
    55  H    1.002086
    56  H    0.994057
    57  H    0.979504
    58  H    0.983507
    59  H    0.983993
    60  H    0.995233
    61  H    0.990702
    62  H    0.986108
    63  H    1.000496
    64  H    1.002794
    65  H    1.004741
    66  H    0.988794
    67  H    0.997570
    68  H    0.994923
    69  H    1.012835
    70  H    1.006799
    71  H    1.002555
    72  H    0.998125
    73  H    1.017058
    74  H    1.017360
    75  H    1.022474
    76  H    1.008583
    77  H    1.000610
    78  H    1.006469
    79  H    1.004721
 Sum of Mulliken charges = 312.00000

 Dipole moment (field-independent basis, Debye):
    X=             -6.7295    Y=              8.1206    Z=             -0.2282  Tot=             10.5490
 Quadrupole moment (field-independent basis, Debye-Ang):
   XX=             -7.5133   YY=              0.9698   ZZ=              0.2115
   XY=              6.3037   XZ=             -1.9898   YZ=             -0.1881

 Normal termination of Gaussian 16 at Wed Oct 13 19:14:07 2021.
