 Gaussian 16, Revision A.03,
 Gaussian 16:  ES64L-G16RevA.03 25-Dec-2016

 --------------------------------------------------------
 #p PBE1PBE/Def2SVP td=(nstates=5) density=(transition=1)
 --------------------------------------------------------

 --------------------------------
 TDDFT excited states in gaussian
 --------------------------------
 Symbolic Z-matrix:
 Charge =  0 Multiplicity = 1

                         Standard orientation:
 ---------------------------------------------------------------------
 Center     Atomic      Atomic             Coordinates (Angstroms)
 Number     Number       Type             X           Y           Z
 ---------------------------------------------------------------------
      1         12           0       27.252417   -0.733667    0.088897
      2          6           0       24.995168    2.041102    1.098352
      3          6           0       28.919975    1.675581   -1.595944
      4          6           0       28.935960   -3.214651   -0.939705
      5          6           0       24.723055   -2.917233    1.317020
      6          7           0       26.930596    1.555207   -0.230432
      7          6           0       26.086281    2.443035    0.414598
      8          6           0       26.441794    3.920961    0.216185
      9          6           0       27.402622    3.769541   -1.003334
     10          6           0       27.798748    2.242577   -0.981498
     11          6           0       26.824580    4.169804   -2.324153
     12          6           0       27.020248    4.690034    1.451023
     13          6           0       26.743853    6.152354    1.560334
     14          1           0       27.884904    6.991285    2.126911
     15          7           0       28.802741   -0.784134   -1.101746
     16          6           0       29.425528    0.338274   -1.686688
     17          6           0       30.639469   -0.110689   -2.305271
     18          6           0       30.702327   -1.530689   -1.961300
     19          6           0       29.479060   -1.857676   -1.322139
     20          6           0       31.699268    0.821674   -3.000520
     21          6           0       31.855294   -2.440813   -2.255682
     22          8           0       31.821008   -3.666928   -1.989465
     23          6           0       33.139359   -1.967128   -2.832220
     24          7           0       26.860103   -2.765730    0.006223
     25          6           0       27.751865   -3.638911   -0.466284
     26          6           0       27.316583   -5.132142   -0.318444
     27          6           0       26.216139   -4.949923    0.792314
     28          6           0       25.861136   -3.441766    0.682932
     29          6           0       26.712410   -5.705655   -1.640510
     30          6           0       26.765636   -5.275360    2.244503
     31          6           0       27.448712   -6.633417    2.509989
     32          7           0       25.289829   -0.523623    1.055619
     33          6           0       24.448453   -1.519530    1.538306
     34          6           0       23.259592   -0.920558    2.098271
     35          6           0       23.449946    0.462248    1.981588
     36          6           0       24.658809    0.672881    1.263074
     37          6           0       22.146079   -1.625142    2.797544
     38          6           0       22.850132    1.755231    2.283780
     39          8           0       21.839407    2.104914    2.878854
     40          6           0       23.952966    2.815678    1.763582
     41          6           0       23.226352    3.756240    0.928065
     42          8           0       22.627519    3.505216   -0.129605
     43          8           0       22.930730    4.847963    1.693091
     44          6           0       22.157454    5.908400    1.130971
     45          1           0       29.489476    2.519727   -1.990780
     46          1           0       29.486286   -4.097306   -1.271583
     47          1           0       23.991275   -3.637126    1.690483
     48          1           0       25.533336    4.426712   -0.111648
     49          1           0       28.347941    4.275900   -0.810464
     50          1           0       26.630130    3.250609   -2.876793
     51          1           0       27.567056    4.726038   -2.896190
     52          1           0       25.900458    4.747343   -2.311413
     53          1           0       28.105095    4.606671    1.392326
     54          1           0       26.704256    4.151280    2.343925
     55          1           0       25.895356    6.199107    2.242658
     56          1           0       26.284591    6.560715    0.659996
     57          1           0       32.618207    0.988810   -2.439410
     58          1           0       31.256832    1.771151   -3.300734
     59          1           0       31.901520    0.264235   -3.915943
     60          1           0       32.985955   -1.774908   -3.894423
     61          1           0       33.844173   -2.786674   -2.689306
     62          1           0       33.446649   -1.108139   -2.236648
     63          1           0       28.214730   -5.674431   -0.020970
     64          1           0       25.296379   -5.514689    0.643106
     65          1           0       27.415306   -6.458799   -1.997491
     66          1           0       26.474304   -4.974284   -2.412165
     67          1           0       25.808484   -6.192210   -1.271323
     68          1           0       25.925346   -5.271510    2.938355
     69          1           0       27.390368   -4.427733    2.525619
     70          1           0       28.447475   -6.374176    2.860904
     71          1           0       27.515221   -7.093070    1.523470
     72          1           0       26.930705   -7.223096    3.266178
     73          1           0       22.536179   -2.626437    2.981549
     74          1           0       21.318205   -1.654538    2.089179
     75          1           0       21.789688   -1.116141    3.693074
     76          1           0       24.403024    3.321369    2.617685
     77          1           0       21.909909    5.718979    0.086257
     78          1           0       22.809652    6.781148    1.165702
     79          1           0       21.303211    6.152318    1.760929
     80         12           0      -26.932674   -0.678180    0.052237
     81          6           0      -25.537230    2.320451   -1.112113
     82          6           0      -27.566730    0.896348    3.047741
     83          6           0      -28.212653   -3.520572    1.135818
     84          6           0      -26.064444   -2.158515   -3.013293
     85          7           0      -26.645345    1.393999    0.780897
     86          6           0      -26.034123    2.487066    0.166385
     87          6           0      -26.290915    3.850955    0.919728
     88          6           0      -26.779532    3.295205    2.243398
     89          6           0      -27.030288    1.745663    2.027098
     90          6           0      -25.651368    3.433552    3.365611
     91          6           0      -27.492048    4.517050    0.112499
     92          6           0      -27.406926    6.084637   -0.151175
     93          1           0      -26.712669    6.756695    1.005722
     94          7           0      -27.614974   -1.246266    1.846030
     95          6           0      -27.797476   -0.505661    2.935664
     96          6           0      -28.394608   -1.246149    4.015380
     97          6           0      -28.764964   -2.481767    3.448577
     98          6           0      -28.134834   -2.490098    2.074817
     99          6           0      -28.636413   -0.745474    5.392173
    100          6           0      -29.669473   -3.575040    3.978941
    101          8           0      -30.106860   -4.487795    3.269031
    102          6           0      -29.989989   -3.641864    5.474734
    103          7           0      -27.059743   -2.602863   -0.831845
    104          6           0      -27.729638   -3.578034   -0.131321
    105          6           0      -27.910398   -4.789434   -1.043575
    106          6           0      -27.316083   -4.318812   -2.459419
    107          6           0      -26.827753   -2.930085   -2.141127
    108          6           0      -27.278639   -6.060107   -0.372834
    109          6           0      -28.247901   -4.399522   -3.658424
    110          6           0      -27.645664   -5.175446   -4.871447
    111          7           0      -25.976186   -0.062126   -1.690026
    112          6           0      -25.667170   -0.797356   -2.877283
    113          6           0      -24.968679    0.024820   -3.799575
    114          6           0      -24.907738    1.258093   -3.129086
    115          6           0      -25.486263    1.117877   -1.850536
    116          6           0      -24.453703   -0.266844   -5.172225
    117          6           0      -24.472041    2.614485   -3.225690
    118          8           0      -23.872938    3.225877   -4.078931
    119          6           0      -24.971254    3.363147   -1.957594
    120          6           0      -23.848319    4.154764   -1.392515
    121          8           0      -22.847356    3.733208   -0.819980
    122          8           0      -24.155075    5.443146   -1.572428
    123          6           0      -23.237969    6.418885   -1.021787
    124          1           0      -27.945885    1.302307    3.987758
    125          1           0      -28.639954   -4.433422    1.558362
    126          1           0      -25.831807   -2.559371   -4.002121
    127          1           0      -25.370357    4.419196    0.790035
    128          1           0      -27.713380    3.776489    2.531974
    129          1           0      -24.731705    3.873083    2.978930
    130          1           0      -25.433325    2.439241    3.754883
    131          1           0      -26.117437    4.053518    4.131539
    132          1           0      -28.460357    4.385245    0.594402
    133          1           0      -27.559975    3.972860   -0.829854
    134          1           0      -28.395955    6.538199   -0.085304
    135          1           0      -27.114187    6.302443   -1.178616
    136          1           0      -29.718175   -0.662424    5.505536
    137          1           0      -28.211799    0.247159    5.535506
    138          1           0      -28.245167   -1.403974    6.167107
    139          1           0      -30.308449   -4.681720    5.544416
    140          1           0      -30.748301   -2.927749    5.797997
    141          1           0      -29.151719   -3.584780    6.168842
    142          1           0      -28.940927   -5.095798   -1.222935
    143          1           0      -26.438443   -4.926541   -2.680058
    144          1           0      -28.016583   -6.853065   -0.494830
    145          1           0      -26.989858   -5.914637    0.668148
    146          1           0      -26.483397   -6.478887   -0.990659
    147          1           0      -28.597041   -3.433099   -4.020698
    148          1           0      -29.046952   -5.062444   -3.323532
    149          1           0      -26.692800   -5.631698   -4.602655
    150          1           0      -27.333653   -4.499114   -5.667007
    151          1           0      -28.325260   -5.952503   -5.221960
    152          1           0      -25.379517   -0.270162   -5.748179
    153          1           0      -23.903501   -1.205051   -5.103928
    154          1           0      -23.836463    0.539160   -5.566554
    155          1           0      -25.670985    4.094756   -2.363801
    156          1           0      -22.227903    6.226471   -1.384591
    157          1           0      -23.111223    6.417850    0.061345
    158          1           0      -23.583846    7.390455   -1.375125
 ---------------------------------------------------------------------

 SCF Done:  E(RPBE1PBE) =  -4067.39869081     A.U. after   17 cycles

 Excitation energies and oscillator strengths:

 Excited State   1:      Singlet-A      1.7511 eV  708.02 nm  f=0.0000  <S**2>=0.000
     312 -> 313        0.70711
 This state for optimization and/or second-order correction.
 Total Energy, E(TD-HF/TD-DFT) =  -4067.33433801
 Copying the excited state density for this state as the 1-particle RhoCI density.

 Excited State   2:      Singlet-A      1.8204 eV  681.09 nm  f=0.3642  <S**2>=0.000
     309 -> 316       -0.15128
     311 -> 313        0.70061
     311 <- 313       -0.12604

 Excited State   3:      Singlet-A      1.8615 eV  666.05 nm  f=0.3648  <S**2>=0.000
     310 -> 315       -0.15514
     312 -> 314        0.69391
     312 <- 314       -0.10802

 Excited State   4:      Singlet-A      2.1766 eV  569.63 nm  f=0.0000  <S**2>=0.000
     311 -> 314        0.70711

 Excited State   5:      Singlet-A      2.2777 eV  544.35 nm  f=0.1201  <S**2>=0.000
     310 -> 314        0.64784
     312 -> 315        0.25220
     312 -> 318        0.10943

 The electronic state is 1-A.
 Alpha  occ. eigenvalues --  -46.92316 -46.91145 -19.25954 -19.25360 -19.20021
 Alpha  occ. eigenvalues --  -19.19887 -19.19534 -19.19108 -19.17873 -19.17783
 Alpha  occ. eigenvalues --  -14.41754 -14.41655 -14.41114 -14.41073 -14.39685
 Alpha  occ. eigenvalues --  -14.39395 -14.39202 -14.38239 -10.36019 -10.35394
 Alpha  occ. eigenvalues --  -10.33118 -10.33033 -10.31217 -10.30497 -10.29419
 Alpha  occ. eigenvalues --  -10.29105 -10.28618 -10.28557 -10.28426 -10.28420
 Alpha  occ. eigenvalues --  -10.28373 -10.28361 -10.28305 -10.28264 -10.28200
 Alpha  occ. eigenvalues --  -10.28064 -10.27979 -10.27927 -10.27638 -10.27003
 Alpha  occ. eigenvalues --  -10.26844 -10.26700 -10.26540 -10.26378 -10.26340
 Alpha  occ. eigenvalues --  -10.26270 -10.26062 -10.26049 -10.26012 -10.25999
 Alpha  occ. eigenvalues --  -10.25755 -10.25719 -10.25492 -10.25444 -10.25380
 Alpha  occ. eigenvalues --  -10.25372 -10.25346 -10.25236 -10.25111 -10.25110
 Alpha  occ. eigenvalues --  -10.25042 -10.25016 -10.25008 -10.24967 -10.24809
 Alpha  occ. eigenvalues --  -10.24579 -10.24558 -10.24408 -10.24391 -10.24038
 Alpha  occ. eigenvalues --  -10.23918 -10.23892 -10.23708 -10.23567 -10.23474
 Alpha  occ. eigenvalues --  -10.23455 -10.23441 -10.23400 -10.23392 -10.23170
 Alpha  occ. eigenvalues --  -10.23165 -10.23137 -10.23069 -10.22922 -10.22859
 Alpha  occ. eigenvalues --  -10.21617  -3.14554  -3.13431  -1.87363  -1.86924
 Alpha  occ. eigenvalues --   -1.86800  -1.86284  -1.85786  -1.85686  -1.11957
 Alpha  occ. eigenvalues --   -1.11205  -1.04874  -1.04826  -1.04334  -1.02268
 Alpha  occ. eigenvalues --   -1.01964  -1.01696  -0.99656  -0.99433  -0.98727
 Alpha  occ. eigenvalues --   -0.98589  -0.98335  -0.97498  -0.97153  -0.96990
 Alpha  occ. eigenvalues --   -0.87961  -0.87147  -0.83820  -0.83737  -0.83119
 Alpha  occ. eigenvalues --   -0.82674  -0.82663  -0.82365  -0.82218  -0.81791
 Alpha  occ. eigenvalues --   -0.81527  -0.81149  -0.80925  -0.80529  -0.78975
 Alpha  occ. eigenvalues --   -0.78295  -0.78267  -0.77829  -0.77407  -0.76539
 Alpha  occ. eigenvalues --   -0.76356  -0.75966  -0.75528  -0.75460  -0.75094
 Alpha  occ. eigenvalues --   -0.74662  -0.73022  -0.72885  -0.71807  -0.71733
 Alpha  occ. eigenvalues --   -0.71593  -0.71105  -0.70538  -0.69926  -0.69816
 Alpha  occ. eigenvalues --   -0.69292  -0.67755  -0.67588  -0.65800  -0.65353
 Alpha  occ. eigenvalues --   -0.63638  -0.63455  -0.63229  -0.63027  -0.62547
 Alpha  occ. eigenvalues --   -0.62048  -0.61772  -0.61400  -0.60078  -0.59791
 Alpha  occ. eigenvalues --   -0.59703  -0.59580  -0.59546  -0.59490  -0.59077
 Alpha  occ. eigenvalues --   -0.58965  -0.57085  -0.56565  -0.55397  -0.55191
 Alpha  occ. eigenvalues --   -0.54337  -0.54174  -0.53959  -0.53695  -0.53304
 Alpha  occ. eigenvalues --   -0.53204  -0.52885  -0.52349  -0.52338  -0.51875
 Alpha  occ. eigenvalues --   -0.51155  -0.50388  -0.50199  -0.50130  -0.49851
 Alpha  occ. eigenvalues --   -0.49410  -0.49195  -0.49016  -0.48725  -0.48434
 Alpha  occ. eigenvalues --   -0.48227  -0.48026  -0.47831  -0.47427  -0.47298
 Alpha  occ. eigenvalues --   -0.47197  -0.47067  -0.47034  -0.47001  -0.46722
 Alpha  occ. eigenvalues --   -0.46442  -0.46394  -0.46005  -0.45951  -0.45758
 Alpha  occ. eigenvalues --   -0.45518  -0.45497  -0.45250  -0.45106  -0.44883
 Alpha  occ. eigenvalues --   -0.44866  -0.44550  -0.44536  -0.44390  -0.44341
 Alpha  occ. eigenvalues --   -0.44233  -0.44022  -0.43848  -0.43808  -0.43431
 Alpha  occ. eigenvalues --   -0.43283  -0.43039  -0.42976  -0.42849  -0.42792
 Alpha  occ. eigenvalues --   -0.42568  -0.42503  -0.42337  -0.42275  -0.42174
 Alpha  occ. eigenvalues --   -0.41939  -0.41877  -0.41515  -0.41322  -0.41245
 Alpha  occ. eigenvalues --   -0.41038  -0.41037  -0.40875  -0.40784  -0.40712
 Alpha  occ. eigenvalues --   -0.40078  -0.40045  -0.39909  -0.39881  -0.39621
 Alpha  occ. eigenvalues --   -0.39513  -0.39510  -0.39285  -0.39275  -0.39247
 Alpha  occ. eigenvalues --   -0.39052  -0.38776  -0.38535  -0.38480  -0.38183
 Alpha  occ. eigenvalues --   -0.38131  -0.37884  -0.37867  -0.37628  -0.37543
 Alpha  occ. eigenvalues --   -0.37504  -0.37418  -0.37243  -0.37024  -0.36839
 Alpha  occ. eigenvalues --   -0.36769  -0.36479  -0.36365  -0.36121  -0.35976
 Alpha  occ. eigenvalues --   -0.35691  -0.35645  -0.35509  -0.35360  -0.34991
 Alpha  occ. eigenvalues --   -0.34684  -0.34644  -0.34353  -0.34206  -0.33702
 Alpha  occ. eigenvalues --   -0.33543  -0.33276  -0.33097  -0.32754  -0.32636
 Alpha  occ. eigenvalues --   -0.32399  -0.32232  -0.31937  -0.31483  -0.31480
 Alpha  occ. eigenvalues --   -0.31325  -0.30663  -0.29821  -0.29458  -0.29072
 Alpha  occ. eigenvalues --   -0.29007  -0.28650  -0.28149  -0.27200  -0.27185
 Alpha  occ. eigenvalues --   -0.26450  -0.26371  -0.26256  -0.25733  -0.25483
 Alpha  occ. eigenvalues --   -0.25286  -0.24704  -0.24598  -0.21225  -0.21000
 Alpha  occ. eigenvalues --   -0.19291  -0.18666
 Alpha virt. eigenvalues --   -0.11984  -0.11047  -0.05306  -0.04410  -0.03914
 Alpha virt. eigenvalues --   -0.03523  -0.02222  -0.01605  -0.01008  -0.00452
 Alpha virt. eigenvalues --    0.00564   0.00948   0.01458   0.01538   0.01773

 Mulliken charges:
               1
     1  Mg  12.000000
     2  C    6.000000
     3  C    6.000000
     4  C    6.000000
     5  C    6.000000
     6  N    7.000000
     7  C    6.000000
     8  C    6.000000
     9  C    6.000000
    10  C    6.000000
    11  C    6.000000
    12  C    6.000000
    13  C    6.000000
    14  H    1.000000
    15  N    7.000000
    16  C    6.000000
    17  C    6.000000
    18  C    6.000000
    19  C    6.000000
    20  C    6.000000
    21  C    6.000000
    22  O    8.000000
    23  C    6.000000
    24  N    7.000000
    25  C    6.000000
    26  C    6.000000
    27  C    6.000000
    28  C    6.000000
    29  C    6.000000
    30  C    6.000000
    31  C    6.000000
    32  N    7.000000
    33  C    6.000000
    34  C    6.000000
    35  C    6.000000
    36  C    6.000000
    37  C    6.000000
    38  C    6.000000
    39  O    8.000000
    40  C    6.000000
    41  C    6.000000
    42  O    8.000000
    43  O    8.000000
    44  C    6.000000
    45  H    1.000000
    46  H    1.000000
    47  H    1.000000
    48  H    1.000000
    49  H    1.000000
    50  H    1.000000
    51  H    1.000000
    52  H    1.000000
    53  H    1.000000
    54  H    1.000000
    55  H    1.000000
    56  H    1.000000
    57  H    1.000000
    58  H    1.000000
    59  H    1.000000
    60  H    1.000000
    61  H    1.000000
    62  H    1.000000
    63  H    1.000000
    64  H    1.000000
    65  H    1.000000
    66  H    1.000000
    67  H    1.000000
    68  H    1.000000
    69  H    1.000000
    70  H    1.000000
    71  H    1.000000
    72  H    1.000000
    73  H    1.000000
    74  H    1.000000
    75  H    1.000000
    76  H    1.000000
    77  H    1.000000
    78  H    1.000000
    79  H    1.000000
    80  Mg  12.000000
    81  C    6.000000
    82  C    6.000000
    83  C    6.000000
    84  C    6.000000
    85  N    7.000000
    86  C    6.000000
    87  C    6.000000
    88  C    6.000000
    89  C    6.000000
    90  C    6.000000
    91  C    6.000000
    92  C    6.000000
    93  H    1.000000
    94  N    7.000000
    95  C    6.000000
    96  C    6.000000
    97  C    6.000000
    98  C    6.000000
    99  C    6.000000
   100  C    6.000000
   101  O    8.000000
   102  C    6.000000
   103  N    7.000000
   104  C    6.000000
   105  C    6.000000
   106  C    6.000000
   107  C    6.000000
   108  C    6.000000
   109  C    6.000000
   110  C    6.000000
   111  N    7.000000
   112  C    6.000000
   113  C    6.000000
   114  C    6.000000
   115  C    6.000000
   116  C    6.000000
   117  C    6.000000
   118  O    8.000000
   119  C    6.000000
   120  C    6.000000
   121  O    8.000000
   122  O    8.000000
   123  C    6.000000
   124  H    1.000000
   125  H    1.000000
   126  H    1.000000
   127  H    1.000000
   128  H    1.000000
   129  H    1.000000
   130  H    1.000000
   131  H    1.000000
   132  H    1.000000
   133  H    1.000000
   134  H    1.000000
   135  H    1.000000
   136  H    1.000000
   137  H    1.000000
   138  H    1.000000
   139  H    1.000000
   140  H    1.000000
   141  H    1.000000
   142  H    1.000000
   143  H    1.000000
   144  H    1.000000
   145  H    1.000000
   146  H    1.000000
   147  H    1.000000
   148  H    1.000000
   149  H    1.000000
   150  H    1.000000
   151  H    1.000000
   152  H    1.000000
   153  H    1.000000
   154  H    1.000000
   155  H    1.000000
   156  H    1.000000
   157  H    1.000000
   158  H    1.000000
 Sum of Mulliken charges = 624.00000

 Dipole moment (field-independent basis, Debye):
    X=              0.0000    Y=              0.0000    Z=             -0.0000  Tot=              0.0000
 Quadrupole moment (field-independent basis, Debye-Ang):
   XX=              0.0000   YY=             -0.0000   ZZ=              0.0000
   XY=             -0.0000   XZ=             -0.0000   YZ=              0.0000

 Normal termination of Gaussian 16 at Thu Oct 14 02:34:42 2021.
