 Gaussian 16, Revision A.03,
 Gaussian 16:  ES64L-G16RevA.03 25-Dec-2016

 --------------------------------------------------------
 #p PBE1PBE/Def2SVP td=(nstates=5) density=(transition=1)
 --------------------------------------------------------

 --------------------------------
 TDDFT excited states in gaussian
 --------------------------------
 Symbolic Z-matrix:
 Charge =  0 Multiplicity = 1

                         Standard orientation:
 ---------------------------------------------------------------------
 Center     Atomic      Atomic             Coordinates (Angstroms)
 Number     Number       Type             X           Y           Z
 ---------------------------------------------------------------------
      1         12           0      -13.148918   -0.649332   -0.236828
      2          6           0      -12.145763    2.177405    1.639121
      3          6           0      -15.353680    1.362350   -1.969985
      4          6           0      -14.298003   -3.420131   -1.812868
      5          6           0      -11.051206   -2.688751    1.694435
      6          7           0      -13.686141    1.488248   -0.026691
      7          6           0      -13.006220    2.503807    0.641432
      8          6           0      -13.589409    3.929312    0.273683
      9          6           0      -14.773599    3.557219   -0.657850
     10          6           0      -14.657036    2.032519   -0.879446
     11          6           0      -16.229342    3.942070   -0.197595
     12          6           0      -12.552932    5.010532   -0.240496
     13          6           0      -12.464218    6.255347    0.589523
     14          1           0      -12.236651    7.603181   -0.202971
     15          7           0      -14.600310   -0.924868   -1.646273
     16          6           0      -15.368987    0.012575   -2.305882
     17          6           0      -16.261814   -0.661553   -3.235457
     18          6           0      -15.993495   -2.059688   -3.230938
     19          6           0      -14.894156   -2.199545   -2.206434
     20          6           0      -17.217618    0.070690   -4.198747
     21          6           0      -16.602327   -3.180677   -4.067124
     22          8           0      -16.223274   -4.333236   -4.031075
     23          6           0      -17.727025   -2.965741   -5.161127
     24          7           0      -12.790827   -2.792181   -0.005520
     25          6           0      -13.379871   -3.704147   -0.767903
     26          6           0      -12.882592   -5.157059   -0.439465
     27          6           0      -11.689749   -4.888588    0.561173
     28          6           0      -11.815612   -3.348104    0.762049
     29          6           0      -14.042695   -6.075613    0.042063
     30          6           0      -10.364364   -5.384406    0.017617
     31          6           0       -9.487409   -6.083260    1.055056
     32          7           0      -11.933359   -0.443389    1.442255
     33          6           0      -11.066826   -1.323754    2.061312
     34          6           0      -10.470188   -0.630853    3.161503
     35          6           0      -10.805679    0.739995    3.035224
     36          6           0      -11.727506    0.834353    1.955545
     37          6           0       -9.580370   -1.225304    4.186311
     38          6           0      -10.537476    2.090540    3.559432
     39          8           0       -9.922299    2.496973    4.540893
     40          6           0      -11.455676    3.123789    2.545054
     41          6           0      -12.358781    3.897989    3.338092
     42          8           0      -13.551312    3.697786    3.419068
     43          8           0      -11.716850    4.982626    3.891677
     44          6           0      -12.603443    5.785072    4.770729
     45          1           0      -15.972765    1.979031   -2.625172
     46          1           0      -14.664162   -4.349527   -2.252828
     47          1           0      -10.361916   -3.379195    2.186294
     48          1           0      -14.099605    4.247852    1.182074
     49          1           0      -14.651372    4.018654   -1.637813
     50          1           0      -16.753757    4.290989   -1.087718
     51          1           0      -16.155564    4.715061    0.566957
     52          1           0      -16.800302    3.115676    0.226163
     53          1           0      -12.836123    5.225393   -1.270996
     54          1           0      -11.569255    4.542019   -0.204905
     55          1           0      -11.628686    6.173484    1.285953
     56          1           0      -13.406986    6.261742    1.135831
     57          1           0      -16.816019   -0.122430   -5.192862
     58          1           0      -17.098775    1.146228   -4.065483
     59          1           0      -18.256653   -0.260614   -4.181719
     60          1           0      -17.355728   -2.238582   -5.884068
     61          1           0      -18.718872   -2.833453   -4.727865
     62          1           0      -17.899819   -3.961426   -5.568504
     63          1           0      -12.432361   -5.665316   -1.291912
     64          1           0      -11.978977   -5.361648    1.499817
     65          1           0      -13.735779   -6.555074    0.972025
     66          1           0      -14.373038   -6.788247   -0.714089
     67          1           0      -14.921951   -5.470545    0.257054
     68          1           0       -9.784758   -4.585876   -0.444375
     69          1           0      -10.454836   -6.069982   -0.826370
     70          1           0       -9.883846   -5.956827    2.062557
     71          1           0       -8.515331   -5.591258    1.011595
     72          1           0       -9.285991   -7.123364    0.798219
     73          1           0       -9.372061   -2.292554    4.111537
     74          1           0       -9.917214   -0.828032    5.144574
     75          1           0       -8.595753   -0.870744    3.880548
     76          1           0      -10.776464    3.786959    2.008595
     77          1           0      -12.976435    5.164106    5.585509
     78          1           0      -13.368453    6.207920    4.119583
     79          1           0      -12.084035    6.608157    5.259942
     80         12           0       13.504048   -0.669889    0.191955
     81          6           0       11.699465    2.357342   -0.988241
     82          6           0       16.257301    1.273379   -0.067315
     83          6           0       14.967386   -3.385080    0.922710
     84          6           0       10.494069   -2.440198   -0.500828
     85          7           0       13.893957    1.523554   -0.501776
     86          6           0       13.009467    2.561883   -0.739937
     87          6           0       13.654065    3.952024   -0.784918
     88          6           0       15.142987    3.515236   -0.945152
     89          6           0       15.142201    2.005184   -0.488259
     90          6           0       15.709674    3.674184   -2.320837
     91          6           0       13.350176    4.920819    0.406716
     92          6           0       13.334421    6.387646    0.133049
     93          1           0       13.898532    7.264940    1.246129
     94          7           0       15.407420   -1.031124    0.457225
     95          6           0       16.444064   -0.078657    0.367800
     96          6           0       17.648080   -0.700286    0.838744
     97          6           0       17.209485   -2.025493    1.274779
     98          6           0       15.849693   -2.158986    0.894025
     99          6           0       19.036166    0.022810    1.000602
    100          6           0       18.067844   -3.031451    1.978758
    101          8           0       17.647646   -4.177453    2.271194
    102          6           0       19.453211   -2.744941    2.430716
    103          7           0       12.929695   -2.656334    0.072865
    104          6           0       13.731985   -3.648523    0.463814
    105          6           0       13.063013   -5.059730    0.418700
    106          6           0       11.555337   -4.607443    0.400951
    107          6           0       11.641940   -3.135146   -0.086258
    108          6           0       13.442572   -5.853067   -0.872947
    109          6           0       10.891428   -4.665739    1.840581
    110          6           0       10.955817   -5.976337    2.652728
    111          7           0       11.490579   -0.176460   -0.538040
    112          6           0       10.391559   -1.014565   -0.687928
    113          6           0        9.271574   -0.258909   -1.198160
    114          6           0        9.726838    1.062404   -1.292337
    115          6           0       11.110601    1.066994   -0.964989
    116          6           0        7.882413   -0.755571   -1.419277
    117          6           0        9.320758    2.417519   -1.641137
    118          8           0        8.259217    2.927308   -1.974609
    119          6           0       10.641539    3.298527   -1.339874
    120          6           0       10.864527    4.089754   -2.537768
    121          8           0       11.122723    3.664184   -3.674652
    122          8           0       10.321094    5.324454   -2.326310
    123          6           0       10.344520    6.289427   -3.378328
    124          1           0       17.077500    1.993664   -0.031630
    125          1           0       15.430269   -4.341927    1.172241
    126          1           0        9.595449   -3.035087   -0.679188
    127          1           0       13.324749    4.426966   -1.709329
    128          1           0       15.767078    4.002629   -0.196698
    129          1           0       15.791125    2.674514   -2.747647
    130          1           0       16.723512    4.069036   -2.256669
    131          1           0       15.148275    4.287562   -3.025333
    132          1           0       14.142714    4.774239    1.139987
    133          1           0       12.420840    4.585592    0.866431
    134          1           0       12.274995    6.610151    0.007330
    135          1           0       13.698183    6.631876   -0.865108
    136          1           0       19.330084    0.252261    2.024413
    137          1           0       19.094554    0.914703    0.377302
    138          1           0       19.709725   -0.713993    0.561190
    139          1           0       20.106517   -2.759382    1.557939
    140          1           0       19.710747   -3.553660    3.115181
    141          1           0       19.411604   -1.801267    2.973621
    142          1           0       13.399496   -5.575943    1.318445
    143          1           0       10.909208   -5.144634   -0.292682
    144          1           0       14.053052   -6.695593   -0.547083
    145          1           0       13.930653   -5.278027   -1.659175
    146          1           0       12.465824   -6.211899   -1.200546
    147          1           0        9.822430   -4.483359    1.733282
    148          1           0       11.287821   -3.811020    2.388408
    149          1           0       11.466307   -5.702230    3.575843
    150          1           0       11.599197   -6.624799    2.057342
    151          1           0        9.968560   -6.378535    2.879518
    152          1           0        7.857688   -1.718614   -0.908820
    153          1           0        7.777802   -0.883791   -2.496605
    154          1           0        7.105111   -0.062545   -1.097432
    155          1           0       10.462087    3.940456   -0.477613
    156          1           0       10.852857    5.909452   -4.264780
    157          1           0       10.933628    7.118639   -2.986389
    158          1           0        9.351257    6.694878   -3.565712
 ---------------------------------------------------------------------

 SCF Done:  E(RPBE1PBE) =  -4067.37268735     A.U. after   17 cycles

 Excitation energies and oscillator strengths:

 Excited State   1:      Singlet-A      1.7309 eV  716.28 nm  f=0.0000  <S**2>=0.000
     312 -> 313        0.70710
 This state for optimization and/or second-order correction.
 Total Energy, E(TD-HF/TD-DFT) =  -4067.30907614
 Copying the excited state density for this state as the 1-particle RhoCI density.

 Excited State   2:      Singlet-A      1.8203 eV  681.11 nm  f=0.3875  <S**2>=0.000
     309 -> 316       -0.15118
     311 -> 313        0.70018
     311 <- 313       -0.12594

 Excited State   3:      Singlet-A      1.8744 eV  661.48 nm  f=0.3438  <S**2>=0.000
     310 -> 315       -0.17470
     312 -> 314        0.69022

 Excited State   4:      Singlet-A      2.1061 eV  588.70 nm  f=0.0000  <S**2>=0.000
     311 -> 314        0.70710

 Excited State   5:      Singlet-A      2.1897 eV  566.22 nm  f=0.1960  <S**2>=0.000
     309 -> 313        0.67306
     311 -> 316        0.20141

 The electronic state is 1-A.
 Alpha  occ. eigenvalues --  -46.92313 -46.91635 -19.25356 -19.24987 -19.20016
 Alpha  occ. eigenvalues --  -19.19949 -19.19732 -19.19531 -19.19482 -19.17781
 Alpha  occ. eigenvalues --  -14.41777 -14.41652 -14.41211 -14.41071 -14.39855
 Alpha  occ. eigenvalues --  -14.39392 -14.39198 -14.38632 -10.36016 -10.35310
 Alpha  occ. eigenvalues --  -10.33431 -10.33223 -10.33028 -10.31215 -10.29928
 Alpha  occ. eigenvalues --  -10.29293 -10.29103 -10.28687 -10.28554 -10.28503
 Alpha  occ. eigenvalues --  -10.28424 -10.28357 -10.28302 -10.28298 -10.28261
 Alpha  occ. eigenvalues --  -10.28162 -10.27976 -10.27819 -10.27636 -10.27340
 Alpha  occ. eigenvalues --  -10.26841 -10.26757 -10.26715 -10.26696 -10.26368
 Alpha  occ. eigenvalues --  -10.26164 -10.26133 -10.26044 -10.26012 -10.25999
 Alpha  occ. eigenvalues --  -10.25751 -10.25715 -10.25707 -10.25649 -10.25486
 Alpha  occ. eigenvalues --  -10.25441 -10.25431 -10.25352 -10.25318 -10.25259
 Alpha  occ. eigenvalues --  -10.25233 -10.25108 -10.25094 -10.25072 -10.25043
 Alpha  occ. eigenvalues --  -10.25013 -10.24576 -10.24549 -10.24352 -10.24079
 Alpha  occ. eigenvalues --  -10.24035 -10.24000 -10.23731 -10.23650 -10.23608
 Alpha  occ. eigenvalues --  -10.23564 -10.23477 -10.23452 -10.23209 -10.23166
 Alpha  occ. eigenvalues --  -10.23136 -10.23076 -10.23066 -10.22876 -10.22857
 Alpha  occ. eigenvalues --  -10.22772  -3.14551  -3.13744  -1.87360  -1.86921
 Alpha  occ. eigenvalues --   -1.86796  -1.86592  -1.86111  -1.85975  -1.11202
 Alpha  occ. eigenvalues --   -1.10639  -1.05916  -1.04869  -1.04310  -1.02278
 Alpha  occ. eigenvalues --   -1.02265  -1.01693  -0.99653  -0.98675  -0.98586
 Alpha  occ. eigenvalues --   -0.98333  -0.97149  -0.96975  -0.96614  -0.95620
 Alpha  occ. eigenvalues --   -0.87957  -0.86345  -0.83731  -0.83426  -0.83117
 Alpha  occ. eigenvalues --   -0.82635  -0.82363  -0.82186  -0.81789  -0.81227
 Alpha  occ. eigenvalues --   -0.81164  -0.81146  -0.80526  -0.80228  -0.78971
 Alpha  occ. eigenvalues --   -0.78583  -0.78292  -0.77959  -0.77405  -0.76768
 Alpha  occ. eigenvalues --   -0.76353  -0.75458  -0.75317  -0.75091  -0.74982
 Alpha  occ. eigenvalues --   -0.74143  -0.72883  -0.72461  -0.71729  -0.71591
 Alpha  occ. eigenvalues --   -0.71280  -0.70776  -0.70535  -0.70076  -0.69815
 Alpha  occ. eigenvalues --   -0.69056  -0.67752  -0.66774  -0.65718  -0.65352
 Alpha  occ. eigenvalues --   -0.63636  -0.63300  -0.63227  -0.63024  -0.62541
 Alpha  occ. eigenvalues --   -0.61961  -0.61494  -0.61396  -0.60074  -0.60032
 Alpha  occ. eigenvalues --   -0.59577  -0.59487  -0.59317  -0.59027  -0.58962
 Alpha  occ. eigenvalues --   -0.58938  -0.56562  -0.55767  -0.55394  -0.54384
 Alpha  occ. eigenvalues --   -0.54335  -0.53955  -0.53780  -0.53301  -0.53273
 Alpha  occ. eigenvalues --   -0.52882  -0.52585  -0.52371  -0.52346  -0.51762
 Alpha  occ. eigenvalues --   -0.50468  -0.50385  -0.50254  -0.50127  -0.49407
 Alpha  occ. eigenvalues --   -0.49352  -0.49192  -0.48849  -0.48723  -0.48285
 Alpha  occ. eigenvalues --   -0.48224  -0.47828  -0.47713  -0.47617  -0.47294
 Alpha  occ. eigenvalues --   -0.47193  -0.47137  -0.47029  -0.46998  -0.46747
 Alpha  occ. eigenvalues --   -0.46440  -0.46269  -0.46028  -0.46001  -0.45756
 Alpha  occ. eigenvalues --   -0.45616  -0.45515  -0.45343  -0.45193  -0.44881
 Alpha  occ. eigenvalues --   -0.44835  -0.44533  -0.44386  -0.44339  -0.44220
 Alpha  occ. eigenvalues --   -0.44082  -0.44020  -0.43959  -0.43845  -0.43429
 Alpha  occ. eigenvalues --   -0.43233  -0.42974  -0.42890  -0.42789  -0.42710
 Alpha  occ. eigenvalues --   -0.42657  -0.42500  -0.42367  -0.42273  -0.41938
 Alpha  occ. eigenvalues --   -0.41918  -0.41436  -0.41241  -0.41136  -0.41035
 Alpha  occ. eigenvalues --   -0.40878  -0.40873  -0.40817  -0.40709  -0.40259
 Alpha  occ. eigenvalues --   -0.40074  -0.39918  -0.39907  -0.39640  -0.39617
 Alpha  occ. eigenvalues --   -0.39509  -0.39352  -0.39246  -0.39163  -0.38866
 Alpha  occ. eigenvalues --   -0.38774  -0.38659  -0.38477  -0.38438  -0.38152
 Alpha  occ. eigenvalues --   -0.38127  -0.37920  -0.37863  -0.37625  -0.37511
 Alpha  occ. eigenvalues --   -0.37501  -0.37371  -0.37180  -0.37023  -0.36879
 Alpha  occ. eigenvalues --   -0.36835  -0.36362  -0.36301  -0.36117  -0.36054
 Alpha  occ. eigenvalues --   -0.35690  -0.35507  -0.35408  -0.35172  -0.34884
 Alpha  occ. eigenvalues --   -0.34681  -0.34580  -0.34349  -0.34330  -0.34200
 Alpha  occ. eigenvalues --   -0.33619  -0.33541  -0.33091  -0.32751  -0.32616
 Alpha  occ. eigenvalues --   -0.32227  -0.32215  -0.31905  -0.31480  -0.31217
 Alpha  occ. eigenvalues --   -0.30965  -0.30660  -0.29817  -0.29283  -0.29070
 Alpha  occ. eigenvalues --   -0.28951  -0.28683  -0.28648  -0.27198  -0.27105
 Alpha  occ. eigenvalues --   -0.26251  -0.26168  -0.25897  -0.25730  -0.25552
 Alpha  occ. eigenvalues --   -0.25479  -0.24702  -0.24644  -0.21223  -0.20908
 Alpha  occ. eigenvalues --   -0.19289  -0.18851
 Alpha virt. eigenvalues --   -0.11981  -0.11058  -0.05298  -0.04407  -0.04096
 Alpha virt. eigenvalues --   -0.03910  -0.02322  -0.02219  -0.00998  -0.00448
 Alpha virt. eigenvalues --    0.00157   0.00263   0.00957   0.01159   0.01505

 Mulliken charges:
               1
     1  Mg  12.000000
     2  C    6.000000
     3  C    6.000000
     4  C    6.000000
     5  C    6.000000
     6  N    7.000000
     7  C    6.000000
     8  C    6.000000
     9  C    6.000000
    10  C    6.000000
    11  C    6.000000
    12  C    6.000000
    13  C    6.000000
    14  H    1.000000
    15  N    7.000000
    16  C    6.000000
    17  C    6.000000
    18  C    6.000000
    19  C    6.000000
    20  C    6.000000
    21  C    6.000000
    22  O    8.000000
    23  C    6.000000
    24  N    7.000000
    25  C    6.000000
    26  C    6.000000
    27  C    6.000000
    28  C    6.000000
    29  C    6.000000
    30  C    6.000000
    31  C    6.000000
    32  N    7.000000
    33  C    6.000000
    34  C    6.000000
    35  C    6.000000
    36  C    6.000000
    37  C    6.000000
    38  C    6.000000
    39  O    8.000000
    40  C    6.000000
    41  C    6.000000
    42  O    8.000000
    43  O    8.000000
    44  C    6.000000
    45  H    1.000000
    46  H    1.000000
    47  H    1.000000
    48  H    1.000000
    49  H    1.000000
    50  H    1.000000
    51  H    1.000000
    52  H    1.000000
    53  H    1.000000
    54  H    1.000000
    55  H    1.000000
    56  H    1.000000
    57  H    1.000000
    58  H    1.000000
    59  H    1.000000
    60  H    1.000000
    61  H    1.000000
    62  H    1.000000
    63  H    1.000000
    64  H    1.000000
    65  H    1.000000
    66  H    1.000000
    67  H    1.000000
    68  H    1.000000
    69  H    1.000000
    70  H    1.000000
    71  H    1.000000
    72  H    1.000000
    73  H    1.000000
    74  H    1.000000
    75  H    1.000000
    76  H    1.000000
    77  H    1.000000
    78  H    1.000000
    79  H    1.000000
    80  Mg  12.000000
    81  C    6.000000
    82  C    6.000000
    83  C    6.000000
    84  C    6.000000
    85  N    7.000000
    86  C    6.000000
    87  C    6.000000
    88  C    6.000000
    89  C    6.000000
    90  C    6.000000
    91  C    6.000000
    92  C    6.000000
    93  H    1.000000
    94  N    7.000000
    95  C    6.000000
    96  C    6.000000
    97  C    6.000000
    98  C    6.000000
    99  C    6.000000
   100  C    6.000000
   101  O    8.000000
   102  C    6.000000
   103  N    7.000000
   104  C    6.000000
   105  C    6.000000
   106  C    6.000000
   107  C    6.000000
   108  C    6.000000
   109  C    6.000000
   110  C    6.000000
   111  N    7.000000
   112  C    6.000000
   113  C    6.000000
   114  C    6.000000
   115  C    6.000000
   116  C    6.000000
   117  C    6.000000
   118  O    8.000000
   119  C    6.000000
   120  C    6.000000
   121  O    8.000000
   122  O    8.000000
   123  C    6.000000
   124  H    1.000000
   125  H    1.000000
   126  H    1.000000
   127  H    1.000000
   128  H    1.000000
   129  H    1.000000
   130  H    1.000000
   131  H    1.000000
   132  H    1.000000
   133  H    1.000000
   134  H    1.000000
   135  H    1.000000
   136  H    1.000000
   137  H    1.000000
   138  H    1.000000
   139  H    1.000000
   140  H    1.000000
   141  H    1.000000
   142  H    1.000000
   143  H    1.000000
   144  H    1.000000
   145  H    1.000000
   146  H    1.000000
   147  H    1.000000
   148  H    1.000000
   149  H    1.000000
   150  H    1.000000
   151  H    1.000000
   152  H    1.000000
   153  H    1.000000
   154  H    1.000000
   155  H    1.000000
   156  H    1.000000
   157  H    1.000000
   158  H    1.000000
 Sum of Mulliken charges = 624.00000

 Dipole moment (field-independent basis, Debye):
    X=              0.0000    Y=              0.0000    Z=              0.0000  Tot=              0.0000
 Quadrupole moment (field-independent basis, Debye-Ang):
   XX=              0.0000   YY=             -0.0000   ZZ=             -0.0000
   XY=             -0.0000   XZ=             -0.0000   YZ=             -0.0000

 Normal termination of Gaussian 16 at Fri Oct 15 12:29:32 2021.
