 Gaussian 16, Revision A.03,
 Gaussian 16:  ES64L-G16RevA.03 25-Dec-2016

 --------------------------------------------------------
 #p PBE1PBE/Def2SVP td=(nstates=5) density=(transition=1)
 --------------------------------------------------------

 --------------------------------
 TDDFT excited states in gaussian
 --------------------------------
 Symbolic Z-matrix:
 Charge =  0 Multiplicity = 1

                         Standard orientation:
 ---------------------------------------------------------------------
 Center     Atomic      Atomic             Coordinates (Angstroms)
 Number     Number       Type             X           Y           Z
 ---------------------------------------------------------------------
      1         12           0      -24.919943   -0.354663    0.508221
      2          6           0      -23.539304    1.902381   -1.667819
      3          6           0      -24.861138   -2.706926   -1.871437
      4          6           0      -26.502394   -2.381808    2.687598
      5          6           0      -25.431444    2.370752    2.859763
      6          7           0      -24.498194   -0.286472   -1.666488
      7          6           0      -23.845036    0.685646   -2.314508
      8          6           0      -23.484972    0.225284   -3.819206
      9          6           0      -23.949490   -1.277932   -3.759662
     10          6           0      -24.527756   -1.468595   -2.342958
     11          6           0      -24.879180   -1.685495   -4.919196
     12          6           0      -21.984054    0.399596   -4.186864
     13          6           0      -21.442573   -0.330588   -5.459085
     14          1           0      -21.207809    0.534377   -6.755238
     15          7           0      -25.638888   -2.284983    0.398930
     16          6           0      -25.435596   -3.115974   -0.602119
     17          6           0      -25.987392   -4.414658   -0.246976
     18          6           0      -26.586218   -4.351105    1.047103
     19          6           0      -26.249950   -2.964590    1.438589
     20          6           0      -26.080156   -5.616837   -1.172077
     21          6           0      -27.397292   -5.384961    1.821297
     22          8           0      -28.078227   -5.059773    2.789599
     23          6           0      -27.354291   -6.805663    1.378699
     24          7           0      -25.878549   -0.025452    2.482313
     25          6           0      -26.406075   -1.030941    3.170446
     26          6           0      -26.782172   -0.616582    4.602702
     27          6           0      -26.228146    0.805212    4.643496
     28          6           0      -25.857652    1.066673    3.231367
     29          6           0      -28.252939   -0.741706    5.027260
     30          6           0      -25.220614    1.042930    5.739726
     31          6           0      -25.625232    2.088920    6.838916
     32          7           0      -24.536866    1.649615    0.633387
     33          6           0      -24.712439    2.630693    1.666172
     34          6           0      -24.110581    3.892688    1.295778
     35          6           0      -23.636908    3.589696   -0.011062
     36          6           0      -23.927120    2.261134   -0.346137
     37          6           0      -23.862523    5.135964    2.074903
     38          6           0      -22.787878    4.176773   -1.016749
     39          8           0      -22.087790    5.199036   -1.068808
     40          6           0      -22.762981    3.226069   -2.187390
     41          6           0      -23.602285    3.838597   -3.330309
     42          8           0      -24.697858    4.413713   -3.240936
     43          8           0      -22.924427    3.630069   -4.494598
     44          6           0      -23.523565    4.170831   -5.755771
     45          1           0      -24.786097   -3.588536   -2.511444
     46          1           0      -27.185205   -2.896478    3.366822
     47          1           0      -25.496546    3.102380    3.667111
     48          1           0      -24.151425    0.824789   -4.438253
     49          1           0      -23.053444   -1.897678   -3.792350
     50          1           0      -24.547700   -2.665958   -5.259388
     51          1           0      -24.787518   -1.012218   -5.771555
     52          1           0      -25.917902   -1.722872   -4.590704
     53          1           0      -21.438721   -0.109593   -3.392249
     54          1           0      -21.752448    1.456989   -4.314344
     55          1           0      -22.222496   -1.021869   -5.780035
     56          1           0      -20.485663   -0.790911   -5.215489
     57          1           0      -25.643206   -5.402770   -2.147424
     58          1           0      -27.125942   -5.888157   -1.314296
     59          1           0      -25.574906   -6.488163   -0.757345
     60          1           0      -26.294538   -7.034763    1.263272
     61          1           0      -27.834979   -7.158731    0.466856
     62          1           0      -27.790869   -7.488163    2.107076
     63          1           0      -26.212617   -1.245362    5.286207
     64          1           0      -27.060943    1.467105    4.880420
     65          1           0      -28.199459   -1.099414    6.055207
     66          1           0      -28.798141   -1.386881    4.338498
     67          1           0      -28.828511    0.179025    4.932538
     68          1           0      -24.379179    1.498170    5.218349
     69          1           0      -24.937286    0.138287    6.276957
     70          1           0      -26.603237    2.512139    6.608256
     71          1           0      -24.891033    2.894312    6.802300
     72          1           0      -25.573408    1.731278    7.867367
     73          1           0      -24.088499    4.970096    3.127912
     74          1           0      -24.620639    5.840220    1.734233
     75          1           0      -22.811804    5.369505    1.897037
     76          1           0      -21.707190    3.155496   -2.449658
     77          1           0      -24.586635    3.968366   -5.888388
     78          1           0      -22.999682    3.877193   -6.664800
     79          1           0      -23.466527    5.254865   -5.658675
     80         12           0       25.513595    0.394516   -0.128700
     81          6           0       23.219659   -2.245356   -0.531656
     82          6           0       22.780620    2.539908   -0.276865
     83          6           0       27.508846    2.933204    0.687144
     84          6           0       27.861342   -1.948991    0.890834
     85          7           0       23.229261    0.088755   -0.216322
     86          6           0       22.496653   -1.046248   -0.504323
     87          6           0       21.080006   -0.801586   -0.980020
     88          6           0       20.947574    0.738909   -0.920273
     89          6           0       22.366121    1.184252   -0.435379
     90          6           0       20.528952    1.411690   -2.290192
     91          6           0       19.917882   -1.504953   -0.146423
     92          6           0       20.139530   -1.719704    1.359684
     93          1           0       19.402548   -0.777172    2.356713
     94          7           0       25.191834    2.406363    0.148136
     95          6           0       24.028175    3.103035   -0.013956
     96          6           0       24.280757    4.542718    0.139321
     97          6           0       25.674268    4.681577    0.421383
     98          6           0       26.186109    3.276828    0.437544
     99          6           0       23.203686    5.609902   -0.014970
    100          6           0       26.253050    6.110206    0.740992
    101          8           0       25.472046    7.051070    0.770313
    102          6           0       27.787311    6.288602    1.103291
    103          7           0       27.331589    0.465094    0.777003
    104          6           0       28.057748    1.649832    0.874633
    105          6           0       29.582126    1.351004    1.374039
    106          6           0       29.519924   -0.261514    1.553316
    107          6           0       28.156628   -0.587355    1.033905
    108          6           0       30.653865    1.835279    0.353545
    109          6           0       29.721709   -0.787497    3.038869
    110          6           0       30.770034   -1.878620    3.306207
    111          7           0       25.622396   -1.708527    0.027754
    112          6           0       26.616177   -2.547912    0.461903
    113          6           0       26.112866   -3.936803    0.410800
    114          6           0       24.791351   -3.835016   -0.100729
    115          6           0       24.551468   -2.441739   -0.261599
    116          6           0       26.829573   -5.190951    0.828259
    117          6           0       23.597590   -4.645746   -0.406488
    118          8           0       23.400594   -5.868564   -0.459112
    119          6           0       22.590943   -3.614403   -0.894133
    120          6           0       22.240811   -3.785292   -2.263954
    121          8           0       22.986987   -3.391253   -3.197367
    122          8           0       20.979077   -4.397014   -2.402419
    123          6           0       20.402090   -4.496041   -3.739226
    124          1           0       21.995467    3.269178   -0.485443
    125          1           0       28.226661    3.747285    0.803881
    126          1           0       28.673690   -2.623532    1.167692
    127          1           0       21.101398   -1.197208   -1.994758
    128          1           0       20.299353    0.941914   -0.068574
    129          1           0       19.517523    1.808829   -2.204666
    130          1           0       20.579939    0.620739   -3.038935
    131          1           0       21.191654    2.238886   -2.546666
    132          1           0       19.891821   -2.489549   -0.615039
    133          1           0       18.976627   -0.992073   -0.345469
    134          1           0       21.201866   -1.673777    1.601632
    135          1           0       19.874490   -2.749417    1.595911
    136          1           0       22.837172    6.028130    0.922528
    137          1           0       22.436578    5.293327   -0.721782
    138          1           0       23.582010    6.460455   -0.581737
    139          1           0       28.353724    5.738184    0.351696
    140          1           0       27.935088    5.876089    2.100982
    141          1           0       28.081862    7.321497    1.288946
    142          1           0       29.734376    1.977431    2.252460
    143          1           0       30.254547   -0.683846    0.867328
    144          1           0       30.911369    0.984027   -0.276318
    145          1           0       31.512974    2.304963    0.832673
    146          1           0       30.320972    2.650135   -0.289122
    147          1           0       28.738162   -1.097036    3.393764
    148          1           0       30.043002    0.123034    3.544625
    149          1           0       30.589596   -2.398318    4.247596
    150          1           0       31.694927   -1.303577    3.344855
    151          1           0       30.679771   -2.548141    2.450557
    152          1           0       27.544826   -4.848548    1.575618
    153          1           0       27.375652   -5.455977   -0.077073
    154          1           0       26.185463   -6.025427    1.107079
    155          1           0       21.745833   -3.814198   -0.235738
    156          1           0       20.919894   -5.124690   -4.463691
    157          1           0       20.303298   -3.501837   -4.175987
    158          1           0       19.354340   -4.763281   -3.600763
 ---------------------------------------------------------------------

 SCF Done:  E(RPBE1PBE) =  -4067.37016858     A.U. after   16 cycles

 Excitation energies and oscillator strengths:

 Excited State   1:      Singlet-A      1.8697 eV  663.14 nm  f=0.3479  <S**2>=0.000
     309 -> 316        0.17507
     312 -> 314        0.69188
     312 <- 314       -0.10388
 This state for optimization and/or second-order correction.
 Total Energy, E(TD-HF/TD-DFT) =  -4067.30145984
 Copying the excited state density for this state as the 1-particle RhoCI density.

 Excited State   2:      Singlet-A      1.8790 eV  659.82 nm  f=0.4064  <S**2>=0.000
     310 -> 315       -0.16673
     311 -> 313        0.69043
     311 <- 313       -0.10561

 Excited State   3:      Singlet-A      1.9579 eV  633.24 nm  f=0.0000  <S**2>=0.000
     312 -> 313        0.70711

 Excited State   4:      Singlet-A      2.1012 eV  590.07 nm  f=0.0000  <S**2>=0.000
     311 -> 314        0.70711

 Excited State   5:      Singlet-A      2.2592 eV  548.80 nm  f=0.1111  <S**2>=0.000
     310 -> 313        0.65068
     311 -> 315        0.25668

 The electronic state is 1-A.
 Alpha  occ. eigenvalues --  -46.92586 -46.92356 -19.26419 -19.26299 -19.20439
 Alpha  occ. eigenvalues --  -19.19799 -19.19732 -19.19668 -19.19474 -19.18005
 Alpha  occ. eigenvalues --  -14.42064 -14.41728 -14.41452 -14.41383 -14.39639
 Alpha  occ. eigenvalues --  -14.39533 -14.39023 -14.38966 -10.36979 -10.36636
 Alpha  occ. eigenvalues --  -10.33646 -10.33153 -10.32542 -10.30541 -10.29563
 Alpha  occ. eigenvalues --  -10.29414 -10.29414 -10.29319 -10.29084 -10.28653
 Alpha  occ. eigenvalues --  -10.28463 -10.28444 -10.28444 -10.28253 -10.28106
 Alpha  occ. eigenvalues --  -10.27971 -10.27916 -10.27808 -10.27801 -10.27452
 Alpha  occ. eigenvalues --  -10.27157 -10.26877 -10.26499 -10.26437 -10.26285
 Alpha  occ. eigenvalues --  -10.26249 -10.26219 -10.26206 -10.26146 -10.26124
 Alpha  occ. eigenvalues --  -10.26103 -10.25937 -10.25911 -10.25830 -10.25596
 Alpha  occ. eigenvalues --  -10.25585 -10.25485 -10.25382 -10.25190 -10.25179
 Alpha  occ. eigenvalues --  -10.25025 -10.24955 -10.24834 -10.24661 -10.24508
 Alpha  occ. eigenvalues --  -10.24486 -10.24449 -10.24434 -10.24418 -10.24364
 Alpha  occ. eigenvalues --  -10.24270 -10.24262 -10.24067 -10.24053 -10.23961
 Alpha  occ. eigenvalues --  -10.23903 -10.23775 -10.23652 -10.23634 -10.23539
 Alpha  occ. eigenvalues --  -10.23396 -10.23163 -10.23148 -10.23031 -10.22845
 Alpha  occ. eigenvalues --  -10.22205  -3.14692  -3.14557  -1.87523  -1.87354
 Alpha  occ. eigenvalues --   -1.87060  -1.86948  -1.86927  -1.86783  -1.10353
 Alpha  occ. eigenvalues --   -1.09685  -1.05118  -1.05041  -1.03824  -1.02755
 Alpha  occ. eigenvalues --   -1.01782  -1.01381  -1.00339  -0.99047  -0.98865
 Alpha  occ. eigenvalues --   -0.98572  -0.98186  -0.97679  -0.97227  -0.96496
 Alpha  occ. eigenvalues --   -0.87530  -0.85673  -0.84232  -0.83492  -0.83099
 Alpha  occ. eigenvalues --   -0.83004  -0.82488  -0.82344  -0.81785  -0.81474
 Alpha  occ. eigenvalues --   -0.81314  -0.81136  -0.80457  -0.79817  -0.78833
 Alpha  occ. eigenvalues --   -0.78471  -0.78179  -0.77604  -0.77065  -0.76506
 Alpha  occ. eigenvalues --   -0.76398  -0.75868  -0.75403  -0.75241  -0.74429
 Alpha  occ. eigenvalues --   -0.74425  -0.72867  -0.72529  -0.71842  -0.71511
 Alpha  occ. eigenvalues --   -0.71043  -0.71015  -0.70845  -0.70401  -0.69706
 Alpha  occ. eigenvalues --   -0.69280  -0.67109  -0.66819  -0.66197  -0.66149
 Alpha  occ. eigenvalues --   -0.63785  -0.63654  -0.63456  -0.63346  -0.62843
 Alpha  occ. eigenvalues --   -0.62217  -0.61993  -0.61242  -0.60299  -0.60208
 Alpha  occ. eigenvalues --   -0.59688  -0.59468  -0.59118  -0.58925  -0.58745
 Alpha  occ. eigenvalues --   -0.58437  -0.57215  -0.57041  -0.55240  -0.54793
 Alpha  occ. eigenvalues --   -0.54239  -0.54146  -0.53622  -0.53480  -0.53267
 Alpha  occ. eigenvalues --   -0.53232  -0.52623  -0.52353  -0.51883  -0.51781
 Alpha  occ. eigenvalues --   -0.50902  -0.50672  -0.50240  -0.50080  -0.49670
 Alpha  occ. eigenvalues --   -0.49509  -0.49120  -0.48990  -0.48804  -0.48649
 Alpha  occ. eigenvalues --   -0.48400  -0.48313  -0.48007  -0.47614  -0.47187
 Alpha  occ. eigenvalues --   -0.47151  -0.47093  -0.46957  -0.46779  -0.46682
 Alpha  occ. eigenvalues --   -0.46382  -0.46173  -0.45810  -0.45768  -0.45669
 Alpha  occ. eigenvalues --   -0.45486  -0.45337  -0.45184  -0.45026  -0.44950
 Alpha  occ. eigenvalues --   -0.44584  -0.44562  -0.44386  -0.44222  -0.43970
 Alpha  occ. eigenvalues --   -0.43954  -0.43935  -0.43848  -0.43614  -0.43565
 Alpha  occ. eigenvalues --   -0.43550  -0.43231  -0.43203  -0.42937  -0.42863
 Alpha  occ. eigenvalues --   -0.42850  -0.42466  -0.42295  -0.42106  -0.41953
 Alpha  occ. eigenvalues --   -0.41796  -0.41473  -0.41359  -0.41178  -0.41144
 Alpha  occ. eigenvalues --   -0.40995  -0.40948  -0.40908  -0.40675  -0.40569
 Alpha  occ. eigenvalues --   -0.40089  -0.39764  -0.39716  -0.39562  -0.39540
 Alpha  occ. eigenvalues --   -0.39445  -0.39307  -0.39279  -0.39143  -0.38938
 Alpha  occ. eigenvalues --   -0.38861  -0.38807  -0.38710  -0.38676  -0.38374
 Alpha  occ. eigenvalues --   -0.38047  -0.37823  -0.37775  -0.37764  -0.37682
 Alpha  occ. eigenvalues --   -0.37462  -0.37265  -0.37077  -0.37011  -0.36910
 Alpha  occ. eigenvalues --   -0.36854  -0.36803  -0.36744  -0.36515  -0.36386
 Alpha  occ. eigenvalues --   -0.35976  -0.35958  -0.35688  -0.35539  -0.35400
 Alpha  occ. eigenvalues --   -0.35247  -0.34799  -0.34662  -0.34229  -0.34013
 Alpha  occ. eigenvalues --   -0.33865  -0.33241  -0.32879  -0.32615  -0.32528
 Alpha  occ. eigenvalues --   -0.32095  -0.32095  -0.32067  -0.31672  -0.31613
 Alpha  occ. eigenvalues --   -0.31212  -0.31026  -0.29994  -0.29507  -0.29142
 Alpha  occ. eigenvalues --   -0.29081  -0.28867  -0.28681  -0.26907  -0.26785
 Alpha  occ. eigenvalues --   -0.26632  -0.26214  -0.26148  -0.25989  -0.25624
 Alpha  occ. eigenvalues --   -0.25371  -0.25335  -0.24800  -0.21047  -0.20866
 Alpha  occ. eigenvalues --   -0.18737  -0.18494
 Alpha virt. eigenvalues --   -0.11036  -0.10753  -0.05340  -0.05285  -0.03986
 Alpha virt. eigenvalues --   -0.03593  -0.02402  -0.01883  -0.01180  -0.01040
 Alpha virt. eigenvalues --   -0.00849   0.00778   0.00807   0.00942   0.01097

 Mulliken charges:
               1
     1  Mg  12.000009
     2  C    5.999537
     3  C    6.000625
     4  C    6.000151
     5  C    5.999743
     6  N    7.000011
     7  C    6.000843
     8  C    5.999834
     9  C    6.000254
    10  C    5.999102
    11  C    6.000047
    12  C    5.999859
    13  C    6.000036
    14  H    1.000008
    15  N    7.000057
    16  C    5.998908
    17  C    5.999481
    18  C    5.999605
    19  C    5.999280
    20  C    6.000118
    21  C    5.999612
    22  O    7.999342
    23  C    6.000194
    24  N    6.999970
    25  C    5.999128
    26  C    6.000266
    27  C    5.999699
    28  C    6.000852
    29  C    6.000051
    30  C    6.000000
    31  C    5.999993
    32  N    7.000018
    33  C    6.000939
    34  C    6.000650
    35  C    6.000254
    36  C    6.000629
    37  C    5.999930
    38  C    6.000401
    39  O    8.000934
    40  C    5.999990
    41  C    6.000133
    42  O    8.000082
    43  O    8.000057
    44  C    5.999962
    45  H    0.999864
    46  H    0.999769
    47  H    1.000315
    48  H    1.000003
    49  H    0.999955
    50  H    1.000018
    51  H    0.999741
    52  H    1.000056
    53  H    1.000086
    54  H    0.999866
    55  H    1.000158
    56  H    1.000038
    57  H    0.999472
    58  H    0.999518
    59  H    0.999482
    60  H    0.999846
    61  H    0.999740
    62  H    0.999597
    63  H    0.999989
    64  H    1.000006
    65  H    0.999872
    66  H    1.000170
    67  H    0.999751
    68  H    0.999857
    69  H    1.000283
    70  H    1.000049
    71  H    0.999938
    72  H    1.000134
    73  H    1.000446
    74  H    1.000459
    75  H    1.000339
    76  H    1.000248
    77  H    1.000124
    78  H    1.000157
    79  H    1.000056
    80  Mg  12.002850
    81  C    5.984806
    82  C    6.010313
    83  C    6.021339
    84  C    5.985933
    85  N    6.996173
    86  C    6.031464
    87  C    5.989024
    88  C    6.010785
    89  C    5.964239
    90  C    6.003546
    91  C    5.999083
    92  C    5.997423
    93  H    1.014142
    94  N    7.005787
    95  C    5.959951
    96  C    5.980493
    97  C    5.988022
    98  C    5.961787
    99  C    6.004131
   100  C    5.989388
   101  O    7.983200
   102  C    5.999837
   103  N    7.001245
   104  C    5.965399
   105  C    6.007495
   106  C    5.987797
   107  C    6.033122
   108  C    6.003636
   109  C    5.995467
   110  C    5.999603
   111  N    6.999065
   112  C    6.038417
   113  C    6.026566
   114  C    6.004569
   115  C    6.027846
   116  C    6.000875
   117  C    6.019432
   118  O    8.028171
   119  C    6.000113
   120  C    6.003392
   121  O    8.006538
   122  O    8.001817
   123  C    5.996268
   124  H    0.989361
   125  H    0.992643
   126  H    1.007303
   127  H    0.999954
   128  H    0.996022
   129  H    0.994809
   130  H    0.987765
   131  H    1.006020
   132  H    0.994694
   133  H    1.008132
   134  H    0.995244
   135  H    0.997623
   136  H    0.981169
   137  H    0.984356
   138  H    0.985389
   139  H    0.992872
   140  H    0.990585
   141  H    0.988294
   142  H    1.001123
   143  H    1.001210
   144  H    0.989734
   145  H    0.995551
   146  H    1.004883
   147  H    0.998216
   148  H    1.012051
   149  H    1.001200
   150  H    1.005773
   151  H    0.995868
   152  H    1.015566
   153  H    1.017901
   154  H    1.014226
   155  H    1.009722
   156  H    1.002528
   157  H    1.006767
   158  H    1.004897
 Sum of Mulliken charges = 624.00000

 Dipole moment (field-independent basis, Debye):
    X=              0.4898    Y=             -9.8931    Z=             -0.1007  Tot=              9.9057
 Quadrupole moment (field-independent basis, Debye-Ang):
   XX=             17.0178   YY=             -6.7493   ZZ=              1.7108
   XY=           -261.4368   XZ=             -1.0217   YZ=             -1.3314

 Normal termination of Gaussian 16 at Thu Oct 14 13:24:30 2021.
