 Gaussian 16, Revision A.03,
 Gaussian 16:  ES64L-G16RevA.03 25-Dec-2016

 --------------------------------------------------------
 #p PBE1PBE/Def2SVP td=(nstates=5) density=(transition=1)
 --------------------------------------------------------

 --------------------------------
 TDDFT excited states in gaussian
 --------------------------------
 Symbolic Z-matrix:
 Charge =  0 Multiplicity = 1

                         Standard orientation:
 ---------------------------------------------------------------------
 Center     Atomic      Atomic             Coordinates (Angstroms)
 Number     Number       Type             X           Y           Z
 ---------------------------------------------------------------------
      1         12           0       27.852920   -0.693693    0.208816
      2          6           0       26.327929    2.481017    0.878581
      3          6           0       29.476458    0.783187   -2.450975
      4          6           0       28.717671   -3.699270   -0.736657
      5          6           0       25.939973   -1.974652    2.799223
      6          7           0       27.675806    1.397942   -0.876994
      7          6           0       27.080879    2.488482   -0.302624
      8          6           0       27.558928    3.777926   -1.022487
      9          6           0       28.536040    3.234822   -2.147476
     10          6           0       28.587574    1.689012   -1.865021
     11          6           0       28.145060    3.501912   -3.661739
     12          6           0       28.261990    4.820314   -0.112574
     13          6           0       27.881633    6.249258   -0.272280
     14          1           0       27.162035    6.820427   -1.553347
     15          7           0       28.967212   -1.420078   -1.417905
     16          6           0       29.681311   -0.665792   -2.348557
     17          6           0       30.343837   -1.582576   -3.296008
     18          6           0       30.209491   -2.901615   -2.714539
     19          6           0       29.268624   -2.723421   -1.584277
     20          6           0       31.071683   -1.186131   -4.544722
     21          6           0       30.824044   -4.260265   -3.125920
     22          8           0       30.890907   -5.267859   -2.390681
     23          6           0       31.533278   -4.322063   -4.418685
     24          7           0       27.344910   -2.500810    0.889562
     25          6           0       27.813631   -3.626211    0.248059
     26          6           0       27.514392   -4.908172    1.073569
     27          6           0       26.931586   -4.270676    2.411788
     28          6           0       26.732564   -2.813449    2.032568
     29          6           0       26.572077   -6.007466    0.433363
     30          6           0       27.782354   -4.396916    3.665623
     31          6           0       27.185453   -5.265524    4.792698
     32          7           0       26.570582    0.086820    1.697192
     33          6           0       25.844758   -0.568914    2.663282
     34          6           0       24.988465    0.384299    3.381211
     35          6           0       25.210551    1.586818    2.733910
     36          6           0       26.170796    1.364702    1.721739
     37          6           0       24.027588    0.133642    4.496197
     38          6           0       24.834667    2.953943    2.782758
     39          8           0       24.128543    3.610760    3.599766
     40          6           0       25.504596    3.573958    1.630565
     41          6           0       24.503942    4.314784    0.785420
     42          8           0       23.672447    3.812797    0.109210
     43          8           0       24.734545    5.625760    0.853469
     44          6           0       23.741422    6.535620    0.392638
     45          1           0       30.019266    1.166311   -3.317781
     46          1           0       28.960688   -4.751390   -0.904594
     47          1           0       25.284692   -2.401775    3.560143
     48          1           0       26.662507    4.227821   -1.450853
     49          1           0       29.537108    3.636919   -1.994574
     50          1           0       27.303562    4.177115   -3.814382
     51          1           0       27.812825    2.546923   -4.071422
     52          1           0       29.015752    3.836325   -4.226616
     53          1           0       29.344526    4.835772   -0.244262
     54          1           0       28.088463    4.639171    0.947779
     55          1           0       28.777258    6.871119   -0.259499
     56          1           0       27.263154    6.515297    0.584481
     57          1           0       30.660298   -1.734022   -5.392191
     58          1           0       32.109029   -1.488748   -4.401730
     59          1           0       31.139871   -0.102187   -4.642637
     60          1           0       30.802891   -4.121120   -5.202492
     61          1           0       31.840314   -5.361892   -4.528232
     62          1           0       32.444509   -3.724558   -4.415712
     63          1           0       28.490016   -5.341162    1.296725
     64          1           0       25.980016   -4.765869    2.604925
     65          1           0       26.254878   -5.695910   -0.561191
     66          1           0       25.744963   -6.294469    1.083810
     67          1           0       27.154654   -6.926228    0.363806
     68          1           0       28.173727   -3.470477    4.086145
     69          1           0       28.691506   -4.920761    3.372328
     70          1           0       27.260070   -4.877274    5.808274
     71          1           0       27.837909   -6.133326    4.892928
     72          1           0       26.140245   -5.544536    4.666323
     73          1           0       24.205828   -0.818126    4.997487
     74          1           0       23.024349   -0.015878    4.097390
     75          1           0       24.020345    1.037624    5.105057
     76          1           0       26.225643    4.275394    2.049477
     77          1           0       22.951171    6.528088    1.144660
     78          1           0       23.261633    6.163742   -0.512807
     79          1           0       24.132886    7.551751    0.337513
     80         12           0      -27.885286   -0.637325   -0.201962
     81          6           0      -25.739097    2.052418   -0.938259
     82          6           0      -29.708813    1.542335    1.801641
     83          6           0      -29.683783   -3.273125    0.717567
     84          6           0      -25.444442   -2.885286   -1.572888
     85          7           0      -27.728356    1.509405    0.377492
     86          6           0      -26.821046    2.429379   -0.166484
     87          6           0      -27.346675    3.835783    0.053792
     88          6           0      -28.440670    3.689767    1.149494
     89          6           0      -28.646800    2.145588    1.106321
     90          6           0      -28.111942    4.306650    2.545248
     91          6           0      -27.830584    4.564902   -1.247365
     92          6           0      -27.638608    6.145107   -1.218710
     93          1           0      -27.071523    6.773316    0.057134
     94          7           0      -29.497923   -0.800559    0.942836
     95          6           0      -30.150703    0.213493    1.622341
     96          6           0      -31.353129   -0.275841    2.232629
     97          6           0      -31.313347   -1.694892    2.047428
     98          6           0      -30.170613   -1.954347    1.189959
     99          6           0      -32.325753    0.615834    3.063363
    100          6           0      -32.234306   -2.736160    2.594188
    101          8           0      -31.984409   -3.959510    2.476108
    102          6           0      -33.535655   -2.556200    3.430037
    103          7           0      -27.494677   -2.788250   -0.147554
    104          6           0      -28.459245   -3.664814    0.190276
    105          6           0      -28.088927   -5.090479   -0.290356
    106          6           0      -26.733775   -4.982027   -0.998570
    107          6           0      -26.561293   -3.400168   -0.943152
    108          6           0      -28.229560   -6.103329    0.804777
    109          6           0      -26.635503   -5.565610   -2.424442
    110          6           0      -27.610950   -4.952794   -3.459401
    111          7           0      -25.922533   -0.521430   -1.042023
    112          6           0      -25.185807   -1.469938   -1.666002
    113          6           0      -24.112613   -0.770479   -2.370780
    114          6           0      -24.259921    0.630047   -2.166391
    115          6           0      -25.368734    0.742586   -1.292734
    116          6           0      -23.086497   -1.417342   -3.297362
    117          6           0      -23.724858    1.921423   -2.458783
    118          8           0      -22.844449    2.328949   -3.211889
    119          6           0      -24.679088    2.958542   -1.572634
    120          6           0      -23.794246    3.816013   -0.687513
    121          8           0      -23.329488    3.435490    0.369091
    122          8           0      -23.683349    5.091165   -1.193635
    123          6           0      -22.597543    5.945402   -0.723682
    124          1           0      -30.274276    2.335883    2.294202
    125          1           0      -30.366342   -4.087109    0.969421
    126          1           0      -24.819551   -3.619656   -2.084818
    127          1           0      -26.545352    4.461927    0.445855
    128          1           0      -29.340410    4.168025    0.763479
    129          1           0      -28.234861    3.452833    3.210727
    130          1           0      -28.875236    5.029490    2.835826
    131          1           0      -27.127789    4.738016    2.728038
    132          1           0      -28.904447    4.450490   -1.391819
    133          1           0      -27.333357    4.111503   -2.103897
    134          1           0      -28.631573    6.592098   -1.269319
    135          1           0      -27.018753    6.409830   -2.074987
    136          1           0      -32.673142    0.021416    3.909284
    137          1           0      -33.210220    0.909539    2.499076
    138          1           0      -32.008440    1.576860    3.467858
    139          1           0      -34.244379   -1.915497    2.904575
    140          1           0      -33.337866   -2.187175    4.436381
    141          1           0      -34.191613   -3.425922    3.431457
    142          1           0      -28.908627   -5.397982   -0.938420
    143          1           0      -26.010623   -5.340353   -0.265085
    144          1           0      -29.141905   -6.694053    0.720387
    145          1           0      -28.164393   -5.611756    1.775586
    146          1           0      -27.410905   -6.821969    0.856741
    147          1           0      -26.908521   -6.611390   -2.281879
    148          1           0      -25.609607   -5.499263   -2.787920
    149          1           0      -26.973426   -4.532213   -4.236811
    150          1           0      -28.180379   -4.184146   -2.936802
    151          1           0      -28.365390   -5.646078   -3.831584
    152          1           0      -22.925116   -0.843742   -4.209629
    153          1           0      -23.443950   -2.371025   -3.684654
    154          1           0      -22.184407   -1.613600   -2.717216
    155          1           0      -25.123183    3.614995   -2.321367
    156          1           0      -22.507439    5.768682    0.348440
    157          1           0      -22.760661    7.013672   -0.866557
    158          1           0      -21.729977    5.666671   -1.321845
 ---------------------------------------------------------------------

 SCF Done:  E(RPBE1PBE) =  -4067.37992467     A.U. after   16 cycles

 Excitation energies and oscillator strengths:

 Excited State   1:      Singlet-A      1.8182 eV  681.90 nm  f=0.3872  <S**2>=0.000
     309 -> 316        0.16266
     311 -> 313        0.69667
     311 <- 313       -0.11885
 This state for optimization and/or second-order correction.
 Total Energy, E(TD-HF/TD-DFT) =  -4067.31310633
 Copying the excited state density for this state as the 1-particle RhoCI density.

 Excited State   2:      Singlet-A      1.8640 eV  665.14 nm  f=0.4036  <S**2>=0.000
     310 -> 315        0.17337
     312 -> 314        0.69405
     312 <- 314       -0.11114

 Excited State   3:      Singlet-A      1.9202 eV  645.68 nm  f=0.0000  <S**2>=0.000
     312 -> 313        0.70711

 Excited State   4:      Singlet-A      2.0073 eV  617.66 nm  f=0.0000  <S**2>=0.000
     311 -> 314        0.70711

 Excited State   5:      Singlet-A      2.1902 eV  566.10 nm  f=0.1392  <S**2>=0.000
     309 -> 313        0.66498
     311 -> 316       -0.22015

 The electronic state is 1-A.
 Alpha  occ. eigenvalues --  -46.92313 -46.92291 -19.25517 -19.24908 -19.19717
 Alpha  occ. eigenvalues --  -19.19673 -19.19445 -19.19011 -19.18976 -19.18513
 Alpha  occ. eigenvalues --  -14.41916 -14.41519 -14.41145 -14.41068 -14.39872
 Alpha  occ. eigenvalues --  -14.39327 -14.39207 -14.39124 -10.36098 -10.35895
 Alpha  occ. eigenvalues --  -10.32799 -10.32540 -10.32285 -10.31564 -10.29246
 Alpha  occ. eigenvalues --  -10.29080 -10.28869 -10.28621 -10.28620 -10.28608
 Alpha  occ. eigenvalues --  -10.28533 -10.28526 -10.28376 -10.28242 -10.28209
 Alpha  occ. eigenvalues --  -10.28000 -10.27944 -10.27718 -10.27568 -10.27463
 Alpha  occ. eigenvalues --  -10.26967 -10.26914 -10.26795 -10.26729 -10.26706
 Alpha  occ. eigenvalues --  -10.26121 -10.26076 -10.26064 -10.25920 -10.25901
 Alpha  occ. eigenvalues --  -10.25885 -10.25868 -10.25846 -10.25795 -10.25644
 Alpha  occ. eigenvalues --  -10.25552 -10.25407 -10.25329 -10.25321 -10.25275
 Alpha  occ. eigenvalues --  -10.25116 -10.25098 -10.25089 -10.24982 -10.24949
 Alpha  occ. eigenvalues --  -10.24679 -10.24592 -10.24400 -10.24394 -10.24285
 Alpha  occ. eigenvalues --  -10.24277 -10.23847 -10.23797 -10.23674 -10.23667
 Alpha  occ. eigenvalues --  -10.23500 -10.23432 -10.23422 -10.23144 -10.23137
 Alpha  occ. eigenvalues --  -10.23061 -10.22999 -10.22907 -10.22852 -10.22582
 Alpha  occ. eigenvalues --  -10.22372  -3.14461  -3.14448  -1.87271  -1.87271
 Alpha  occ. eigenvalues --   -1.86837  -1.86835  -1.86698  -1.86670  -1.13294
 Alpha  occ. eigenvalues --   -1.10198  -1.04411  -1.04263  -1.03208  -1.03027
 Alpha  occ. eigenvalues --   -1.02528  -1.02262  -0.99329  -0.98875  -0.98350
 Alpha  occ. eigenvalues --   -0.98053  -0.97874  -0.97226  -0.96868  -0.96523
 Alpha  occ. eigenvalues --   -0.87768  -0.86577  -0.83510  -0.83460  -0.82775
 Alpha  occ. eigenvalues --   -0.82723  -0.82683  -0.82398  -0.81883  -0.81712
 Alpha  occ. eigenvalues --   -0.81281  -0.80987  -0.80616  -0.79720  -0.78828
 Alpha  occ. eigenvalues --   -0.78050  -0.77789  -0.77655  -0.76857  -0.76443
 Alpha  occ. eigenvalues --   -0.76336  -0.76018  -0.75328  -0.74961  -0.74841
 Alpha  occ. eigenvalues --   -0.74118  -0.72853  -0.72670  -0.71987  -0.71443
 Alpha  occ. eigenvalues --   -0.71274  -0.71048  -0.70592  -0.70139  -0.69598
 Alpha  occ. eigenvalues --   -0.69329  -0.67533  -0.67023  -0.65958  -0.65493
 Alpha  occ. eigenvalues --   -0.64243  -0.63719  -0.63530  -0.63379  -0.62835
 Alpha  occ. eigenvalues --   -0.61902  -0.61856  -0.60752  -0.60349  -0.59750
 Alpha  occ. eigenvalues --   -0.59431  -0.59288  -0.59233  -0.58953  -0.58738
 Alpha  occ. eigenvalues --   -0.58606  -0.57501  -0.56228  -0.55395  -0.54725
 Alpha  occ. eigenvalues --   -0.54468  -0.54053  -0.53898  -0.53476  -0.53367
 Alpha  occ. eigenvalues --   -0.52786  -0.52737  -0.52356  -0.52024  -0.51448
 Alpha  occ. eigenvalues --   -0.50865  -0.50725  -0.50478  -0.50279  -0.49633
 Alpha  occ. eigenvalues --   -0.49489  -0.49357  -0.49317  -0.48476  -0.48313
 Alpha  occ. eigenvalues --   -0.48001  -0.47968  -0.47742  -0.47692  -0.47625
 Alpha  occ. eigenvalues --   -0.47300  -0.47298  -0.47141  -0.46955  -0.46691
 Alpha  occ. eigenvalues --   -0.46495  -0.46193  -0.46117  -0.45924  -0.45901
 Alpha  occ. eigenvalues --   -0.45810  -0.45641  -0.45318  -0.44740  -0.44598
 Alpha  occ. eigenvalues --   -0.44456  -0.44364  -0.44133  -0.43868  -0.43859
 Alpha  occ. eigenvalues --   -0.43837  -0.43702  -0.43699  -0.43426  -0.43392
 Alpha  occ. eigenvalues --   -0.43248  -0.43197  -0.42965  -0.42922  -0.42820
 Alpha  occ. eigenvalues --   -0.42465  -0.42392  -0.42325  -0.42089  -0.42077
 Alpha  occ. eigenvalues --   -0.41536  -0.41487  -0.41401  -0.41062  -0.40952
 Alpha  occ. eigenvalues --   -0.40919  -0.40885  -0.40605  -0.40577  -0.40435
 Alpha  occ. eigenvalues --   -0.40167  -0.40053  -0.39954  -0.39529  -0.39425
 Alpha  occ. eigenvalues --   -0.39269  -0.39262  -0.39081  -0.38980  -0.38851
 Alpha  occ. eigenvalues --   -0.38793  -0.38449  -0.38303  -0.38200  -0.37997
 Alpha  occ. eigenvalues --   -0.37977  -0.37662  -0.37593  -0.37452  -0.37412
 Alpha  occ. eigenvalues --   -0.37273  -0.36835  -0.36790  -0.36738  -0.36587
 Alpha  occ. eigenvalues --   -0.36493  -0.36490  -0.36287  -0.36286  -0.36114
 Alpha  occ. eigenvalues --   -0.35812  -0.35562  -0.35419  -0.35180  -0.34999
 Alpha  occ. eigenvalues --   -0.34943  -0.34625  -0.34587  -0.34117  -0.33924
 Alpha  occ. eigenvalues --   -0.33647  -0.33188  -0.32855  -0.32801  -0.32623
 Alpha  occ. eigenvalues --   -0.31979  -0.31904  -0.31359  -0.31358  -0.31231
 Alpha  occ. eigenvalues --   -0.30885  -0.30863  -0.29472  -0.29239  -0.29195
 Alpha  occ. eigenvalues --   -0.28900  -0.28481  -0.28414  -0.27080  -0.27062
 Alpha  occ. eigenvalues --   -0.26281  -0.26113  -0.26013  -0.25804  -0.25664
 Alpha  occ. eigenvalues --   -0.25309  -0.25254  -0.24951  -0.21053  -0.20995
 Alpha  occ. eigenvalues --   -0.18980  -0.18918
 Alpha virt. eigenvalues --   -0.11624  -0.11362  -0.05032  -0.05015  -0.04343
 Alpha virt. eigenvalues --   -0.04268  -0.02375  -0.02309  -0.01264  -0.00497
 Alpha virt. eigenvalues --    0.00604   0.01077   0.01192   0.01672   0.01750

 Mulliken charges:
               1
     1  Mg  12.000003
     2  C    5.999920
     3  C    5.999947
     4  C    6.000062
     5  C    6.000067
     6  N    6.999973
     7  C    6.000029
     8  C    5.999997
     9  C    5.999986
    10  C    6.000072
    11  C    5.999993
    12  C    5.999995
    13  C    6.000012
    14  H    0.999958
    15  N    7.000010
    16  C    6.000154
    17  C    5.999991
    18  C    6.000046
    19  C    6.000008
    20  C    5.999994
    21  C    6.000046
    22  O    8.000100
    23  C    5.999972
    24  N    7.000033
    25  C    5.999974
    26  C    5.999981
    27  C    6.000019
    28  C    5.999923
    29  C    5.999990
    30  C    6.000022
    31  C    6.000000
    32  N    6.999977
    33  C    5.999876
    34  C    5.999949
    35  C    5.999977
    36  C    6.000009
    37  C    6.000009
    38  C    5.999907
    39  O    7.999915
    40  C    6.000050
    41  C    5.999983
    42  O    7.999957
    43  O    8.000007
    44  C    6.000018
    45  H    1.000046
    46  H    1.000009
    47  H    0.999949
    48  H    0.999982
    49  H    1.000024
    50  H    1.000015
    51  H    0.999974
    52  H    1.000017
    53  H    0.999999
    54  H    1.000028
    55  H    1.000011
    56  H    1.000011
    57  H    1.000047
    58  H    1.000080
    59  H    1.000051
    60  H    1.000008
    61  H    1.000060
    62  H    1.000042
    63  H    1.000020
    64  H    0.999980
    65  H    0.999977
    66  H    1.000014
    67  H    1.000014
    68  H    1.000019
    69  H    0.999981
    70  H    1.000014
    71  H    1.000002
    72  H    0.999978
    73  H    0.999963
    74  H    0.999897
    75  H    0.999961
    76  H    0.999987
    77  H    0.999980
    78  H    0.999959
    79  H    0.999995
    80  Mg  12.000892
    81  C    5.979789
    82  C    5.997795
    83  C    6.018470
    84  C    5.996648
    85  N    6.988025
    86  C    6.032950
    87  C    5.991388
    88  C    6.011063
    89  C    5.977333
    90  C    5.998305
    91  C    5.997341
    92  C    5.999459
    93  H    1.004869
    94  N    7.003616
    95  C    5.968241
    96  C    5.975005
    97  C    5.987896
    98  C    5.972582
    99  C    6.001931
   100  C    5.991772
   101  O    7.968050
   102  C    6.003519
   103  N    7.008456
   104  C    5.969521
   105  C    6.004040
   106  C    5.992699
   107  C    6.020390
   108  C    6.002102
   109  C    5.995877
   110  C    5.995440
   111  N    6.998464
   112  C    6.029750
   113  C    6.038861
   114  C    5.997195
   115  C    6.035150
   116  C    5.998247
   117  C    6.012830
   118  O    8.024001
   119  C    6.005004
   120  C    6.003048
   121  O    8.005574
   122  O    8.001770
   123  C    5.998445
   124  H    0.986591
   125  H    0.996147
   126  H    1.009930
   127  H    0.998764
   128  H    0.997339
   129  H    1.004447
   130  H    0.997376
   131  H    0.987692
   132  H    1.011080
   133  H    0.992714
   134  H    1.004889
   135  H    0.996916
   136  H    0.985745
   137  H    0.980887
   138  H    0.982528
   139  H    0.992236
   140  H    0.991577
   141  H    0.986899
   142  H    1.001147
   143  H    1.003874
   144  H    1.002406
   145  H    1.003801
   146  H    0.991497
   147  H    1.008784
   148  H    0.995811
   149  H    0.995211
   150  H    1.006508
   151  H    1.007534
   152  H    1.017503
   153  H    1.019038
   154  H    1.021106
   155  H    1.008191
   156  H    1.004475
   157  H    1.005487
   158  H    1.000068
 Sum of Mulliken charges = 624.00000

 Dipole moment (field-independent basis, Debye):
    X=              8.8861    Y=              0.7058    Z=             -5.7312  Tot=             10.5975
 Quadrupole moment (field-independent basis, Debye-Ang):
   XX=           -490.9871   YY=              1.7852   ZZ=              0.0466
   XY=            -24.6995   XZ=            158.4827   YZ=              3.2396

 Normal termination of Gaussian 16 at Fri Oct 15 10:13:19 2021.
