 Gaussian 16, Revision A.03,
 Gaussian 16:  ES64L-G16RevA.03 25-Dec-2016

 ---------------------------------------------------
 #p PBE1PBE/Def2SVP td=(nstates=5) density=(current)
 ---------------------------------------------------

 --------------------------------
 TDDFT excited states in gaussian
 --------------------------------
 Symbolic Z-matrix:
 Charge =  0 Multiplicity = 1

                         Standard orientation:
 ---------------------------------------------------------------------
 Center     Atomic      Atomic             Coordinates (Angstroms)
 Number     Number       Type             X           Y           Z
 ---------------------------------------------------------------------
      1         12           0       -0.674999    0.044692   -0.458868
      2          6           0        2.664949    0.157537    0.370773
      3          6           0       -0.499250   -3.365782   -0.413332
      4          6           0       -3.945197    0.027577    0.008277
      5          6           0       -0.684323    3.555516   -0.419983
      6          7           0        0.842640   -1.375644    0.403963
      7          6           0        2.176584   -1.124261    0.441552
      8          6           0        2.996705   -2.367624    0.620068
      9          6           0        2.047476   -3.412258   -0.051312
     10          6           0        0.725698   -2.660108   -0.098923
     11          6           0        2.574062   -3.920775   -1.423947
     12          6           0        3.249852   -2.712935    2.172685
     13          6           0        4.669580   -3.367865    2.507247
     14          1           0        4.422398   -4.724527    3.119137
     15          7           0       -2.043639   -1.478280   -0.433838
     16          6           0       -1.831554   -2.809043   -0.335626
     17          6           0       -3.096820   -3.527365   -0.250156
     18          6           0       -4.109276   -2.550082   -0.160286
     19          6           0       -3.367740   -1.258112   -0.188808
     20          6           0       -3.138450   -5.073904   -0.197641
     21          6           0       -5.542489   -2.885395    0.145254
     22          8           0       -5.874353   -4.038220    0.240661
     23          6           0       -6.649587   -1.845479    0.403136
     24          7           0       -2.187619    1.576709   -0.360505
     25          6           0       -3.399886    1.307505   -0.156170
     26          6           0       -4.241873    2.507929    0.072618
     27          6           0       -3.201035    3.686171   -0.076896
     28          6           0       -1.960504    2.934167   -0.294425
     29          6           0       -5.485649    2.534020   -0.878781
     30          6           0       -3.141968    4.605279    1.229788
     31          6           0       -2.516113    6.037479    1.080030
     32          7           0        0.672321    1.584731   -0.189816
     33          6           0        0.535999    2.955867   -0.309457
     34          6           0        1.817803    3.600058   -0.232282
     35          6           0        2.724475    2.505453   -0.008410
     36          6           0        1.972762    1.352537    0.111246
     37          6           0        2.120891    5.058337   -0.358417
     38          6           0        4.100028    2.178969    0.146259
     39          8           0        5.155920    2.824353    0.171238
     40          6           0        4.103472    0.678744    0.590480
     41          6           0        5.182837    0.005703   -0.190013
     42          8           0        6.344925   -0.159646    0.206751
     43          8           0        4.710427   -0.346321   -1.424200
     44          6           0        5.814579   -0.972069   -2.204682
     45          1           0       -0.529000   -4.447832   -0.559932
     46          1           0       -5.015029   -0.010759    0.221187
     47          1           0       -0.710456    4.638227   -0.274981
     48          1           0        3.877509   -2.190300    0.004239
     49          1           0        2.001148   -4.303304    0.574998
     50          1           0        2.786540   -4.987235   -1.354796
     51          1           0        3.534033   -3.433642   -1.598102
     52          1           0        1.842212   -3.637870   -2.179912
     53          1           0        2.472322   -3.291625    2.671121
     54          1           0        3.207867   -1.804464    2.772672
     55          1           0        5.079850   -2.724474    3.285740
     56          1           0        5.443446   -3.404518    1.740423
     57          1           0       -3.615264   -5.490801    0.689381
     58          1           0       -2.164830   -5.549374   -0.321444
     59          1           0       -3.675648   -5.402372   -1.086752
     60          1           0       -6.865911   -1.222886   -0.464397
     61          1           0       -6.460726   -1.209359    1.268246
     62          1           0       -7.495957   -2.433009    0.760203
     63          1           0       -4.539058    2.406953    1.116365
     64          1           0       -3.268289    4.329910   -0.953595
     65          1           0       -6.368946    2.557838   -0.240941
     66          1           0       -5.506012    1.672349   -1.546263
     67          1           0       -5.626705    3.479274   -1.402668
     68          1           0       -2.581020    4.100031    2.016306
     69          1           0       -4.174951    4.690731    1.563858
     70          1           0       -3.098021    6.932114    1.299941
     71          1           0       -2.215671    6.216548    0.048574
     72          1           0       -1.620522    6.122600    1.695497
     73          1           0        1.303517    5.701427   -0.684075
     74          1           0        2.933594    5.003644   -1.081604
     75          1           0        2.537643    5.246559    0.631107
     76          1           0        4.256889    0.527620    1.659529
     77          1           0        6.552038   -0.211543   -2.459321
     78          1           0        5.501328   -1.286726   -3.200179
     79          1           0        6.202149   -1.804201   -1.616564
 ---------------------------------------------------------------------

 SCF Done:  E(RPBE1PBE) =  -2033.67662768     A.U. after   16 cycles

 Excitation energies and oscillator strengths:

 Excited State   1:      Singlet-A      1.7986 eV  689.32 nm  f=0.3476  <S**2>=0.000
     155 ->158         0.16146
     156 ->157         0.69480
     156 <-157        -0.10914
 This state for optimization and/or second-order correction.
 Total Energy, E(TD-HF/TD-DFT) =  -2033.61052870
 Copying the excited state density for this state as the 1-particle RhoCI density.

 Excited State   2:      Singlet-A      2.1989 eV  563.84 nm  f=0.1029  <S**2>=0.000
     155 ->157         0.65387
     156 ->158        -0.25107

 Excited State   3:      Singlet-A      2.8791 eV  430.64 nm  f=0.0044  <S**2>=0.000
     153 ->157         0.20494
     153 ->159         0.11288
     154 ->157         0.64873

 Excited State   4:      Singlet-A      3.0296 eV  409.24 nm  f=0.0015  <S**2>=0.000
     153 ->157         0.64924
     154 ->157        -0.22152

 Excited State   5:      Singlet-A      3.1324 eV  395.81 nm  f=0.0005  <S**2>=0.000
     151 ->157         0.50668
     151 ->159        -0.10489
     151 ->160        -0.10927
     152 ->157         0.43417

 The electronic state is 1-A.
 Alpha  occ. eigenvalues --  -46.92582 -19.26296 -19.19441 -19.19412 -19.18463
 Alpha  occ. eigenvalues --  -14.41505 -14.41464 -14.39738 -14.38444 -10.35832
 Alpha  occ. eigenvalues --  -10.32609 -10.31482 -10.29764 -10.29012 -10.29009
 Alpha  occ. eigenvalues --  -10.28306 -10.28188 -10.28108 -10.27880 -10.26623
 Alpha  occ. eigenvalues --  -10.26515 -10.26355 -10.26154 -10.26144 -10.26093
 Alpha  occ. eigenvalues --  -10.25922 -10.25657 -10.25416 -10.25351 -10.25334
 Alpha  occ. eigenvalues --  -10.25221 -10.25135 -10.25080 -10.24622 -10.24618
 Alpha  occ. eigenvalues --  -10.24422 -10.24345 -10.23913 -10.23833 -10.23762
 Alpha  occ. eigenvalues --  -10.23761 -10.23617 -10.22552  -3.14734  -1.87561
 Alpha  occ. eigenvalues --   -1.87123  -1.86949  -1.10815  -1.06412  -1.03118
 Alpha  occ. eigenvalues --   -1.01676  -1.01373  -0.99070  -0.98534  -0.97694
 Alpha  occ. eigenvalues --   -0.87069  -0.84097  -0.82934  -0.82525  -0.81638
 Alpha  occ. eigenvalues --   -0.81199  -0.80798  -0.78512  -0.78196  -0.76537
 Alpha  occ. eigenvalues --   -0.75870  -0.75173  -0.74702  -0.72824  -0.71960
 Alpha  occ. eigenvalues --   -0.71102  -0.70353  -0.69786  -0.67216  -0.66624
 Alpha  occ. eigenvalues --   -0.64900  -0.63644  -0.62586  -0.62036  -0.61346
 Alpha  occ. eigenvalues --   -0.59793  -0.59437  -0.59054  -0.57072  -0.54932
 Alpha  occ. eigenvalues --   -0.54219  -0.53735  -0.53389  -0.52581  -0.51439
 Alpha  occ. eigenvalues --   -0.51286  -0.50779  -0.50300  -0.49540  -0.48827
 Alpha  occ. eigenvalues --   -0.48277  -0.47545  -0.47153  -0.46801  -0.46459
 Alpha  occ. eigenvalues --   -0.46290  -0.45926  -0.45785  -0.45371  -0.44804
 Alpha  occ. eigenvalues --   -0.44765  -0.44508  -0.44137  -0.43880  -0.43643
 Alpha  occ. eigenvalues --   -0.43316  -0.42969  -0.42432  -0.42370  -0.42021
 Alpha  occ. eigenvalues --   -0.41585  -0.41432  -0.41046  -0.41024  -0.40662
 Alpha  occ. eigenvalues --   -0.40532  -0.40063  -0.39784  -0.39479  -0.39217
 Alpha  occ. eigenvalues --   -0.39123  -0.38920  -0.38709  -0.38323  -0.38038
 Alpha  occ. eigenvalues --   -0.37563  -0.37461  -0.37046  -0.36905  -0.36805
 Alpha  occ. eigenvalues --   -0.36246  -0.36125  -0.35751  -0.34978  -0.34604
 Alpha  occ. eigenvalues --   -0.33628  -0.33245  -0.32675  -0.31916  -0.31810
 Alpha  occ. eigenvalues --   -0.31504  -0.30201  -0.29086  -0.28385  -0.26845
 Alpha  occ. eigenvalues --   -0.26288  -0.26106  -0.25344  -0.24749  -0.21041
 Alpha  occ. eigenvalues --   -0.18754
 Alpha virt. eigenvalues --   -0.11322  -0.05335  -0.03995  -0.02275  -0.00810
 Alpha virt. eigenvalues --    0.00241   0.01191   0.02303   0.02647   0.03974
 Alpha virt. eigenvalues --    0.04694   0.05387   0.05905   0.06294   0.07052

 Mulliken charges:
               1
     1  Mg   0.961833
     2  C    0.006752
     3  C   -0.068356
     4  C   -0.068559
     5  C   -0.085690
     6  N   -0.376642
     7  C   -0.005126
     8  C   -0.068759
     9  C   -0.167522
    10  C    0.118645
    11  C    0.035598
    12  C    0.013539
    13  C   -0.146174
    14  H    0.039556
    15  N   -0.491026
    16  C    0.118407
    17  C   -0.149914
    18  C   -0.067099
    19  C    0.173856
    20  C    0.077892
    21  C    0.016301
    22  O   -0.223898
    23  C   -0.031726
    24  N   -0.347532
    25  C    0.056310
    26  C   -0.112960
    27  C   -0.089278
    28  C    0.048489
    29  C    0.009134
    30  C   -0.032078
    31  C   -0.080444
    32  N   -0.487982
    33  C    0.170658
    34  C   -0.206184
    35  C   -0.003457
    36  C    0.130665
    37  C    0.087538
    38  C    0.100923
    39  O   -0.233746
    40  C   -0.097281
    41  C    0.256767
    42  O   -0.262214
    43  O   -0.368872
    44  C    0.122457
    45  H    0.010324
    46  H   -0.031390
    47  H   -0.009875
    48  H    0.057627
    49  H    0.053401
    50  H    0.046394
    51  H    0.034908
    52  H    0.048599
    53  H    0.049409
    54  H    0.042051
    55  H    0.063720
    56  H    0.067620
    57  H    0.069652
    58  H    0.018873
    59  H    0.054508
    60  H    0.067584
    61  H    0.060657
    62  H    0.049577
    63  H    0.061722
    64  H    0.058756
    65  H    0.038511
    66  H    0.067858
    67  H    0.043088
    68  H    0.051832
    69  H    0.049569
    70  H    0.046195
    71  H    0.041145
    72  H    0.051094
    73  H    0.048050
    74  H    0.072596
    75  H    0.071744
    76  H    0.086167
    77  H    0.069095
    78  H    0.050957
    79  H    0.065179
 Sum of Mulliken charges =  -0.00000

 Dipole moment (field-independent basis, Debye):
    X=             -4.6070    Y=              1.8464    Z=             -1.7223  Tot=              5.2536
 Quadrupole moment (field-independent basis, Debye-Ang):
   XX=           -292.0606   YY=           -244.7129   ZZ=           -248.4727
   XY=            -49.6571   XZ=            -11.5923   YZ=              3.5265

 Normal termination of Gaussian 16 at Wed Oct 13 18:29:12 2021.
