 Gaussian 16, Revision A.03,
 Gaussian 16:  ES64L-G16RevA.03 25-Dec-2016

 --------------------------------------------------------
 #p PBE1PBE/Def2SVP td=(nstates=5) density=(transition=1)
 --------------------------------------------------------

 --------------------------------
 TDDFT excited states in gaussian
 --------------------------------
 Symbolic Z-matrix:
 Charge =  0 Multiplicity = 1

                         Standard orientation:
 ---------------------------------------------------------------------
 Center     Atomic      Atomic             Coordinates (Angstroms)
 Number     Number       Type             X           Y           Z
 ---------------------------------------------------------------------
      1         12           0      -25.236758   -0.484129   -0.234228
      2          6           0      -23.245169    2.299211   -0.471654
      3          6           0      -27.268780    1.232111    1.929757
      4          6           0      -27.199013   -3.323405    0.106676
      5          6           0      -22.920082   -2.301850   -2.064328
      6          7           0      -25.250057    1.555139    0.701813
      7          6           0      -24.352947    2.522310    0.347974
      8          6           0      -24.654347    3.779840    1.007936
      9          6           0      -25.801070    3.474698    1.958692
     10          6           0      -26.147852    1.973679    1.560634
     11          6           0      -25.569495    3.646499    3.499729
     12          6           0      -24.972474    4.914618   -0.024345
     13          6           0      -24.553004    6.373342    0.368262
     14          1           0      -24.507712    6.712802    1.871044
     15          7           0      -27.063855   -0.911896    0.794219
     16          6           0      -27.738552   -0.033364    1.624510
     17          6           0      -28.936987   -0.709270    2.161526
     18          6           0      -28.935450   -2.067733    1.622664
     19          6           0      -27.725736   -2.151636    0.785960
     20          6           0      -29.927276   -0.076946    3.125793
     21          6           0      -30.009954   -3.119397    1.771835
     22          8           0      -29.881188   -4.202787    1.175070
     23          6           0      -31.219189   -2.978366    2.618546
     24          7           0      -25.057753   -2.549603   -0.814131
     25          6           0      -26.010294   -3.461527   -0.599160
     26          6           0      -25.684712   -4.773435   -1.332383
     27          6           0      -24.410824   -4.408209   -2.272889
     28          6           0      -24.157737   -2.954746   -1.737949
     29          6           0      -25.442507   -5.941392   -0.327304
     30          6           0      -24.690437   -4.392061   -3.800752
     31          6           0      -24.008124   -5.502029   -4.614267
     32          7           0      -23.391485   -0.144590   -1.061243
     33          6           0      -22.536501   -0.985800   -1.777064
     34          6           0      -21.323947   -0.246090   -2.192134
     35          6           0      -21.594580    1.038360   -1.664149
     36          6           0      -22.843268    1.043901   -0.986810
     37          6           0      -20.207334   -0.716269   -2.986875
     38          6           0      -21.095191    2.428722   -1.638595
     39          8           0      -20.135754    2.942673   -2.149553
     40          6           0      -22.134061    3.279693   -0.824793
     41          6           0      -21.418952    3.976768    0.256168
     42          8           0      -20.989341    3.343062    1.233603
     43          8           0      -21.404406    5.334012    0.152036
     44          6           0      -20.899178    6.117932    1.274698
     45          1           0      -27.895716    1.806749    2.614747
     46          1           0      -27.809617   -4.216576    0.256174
     47          1           0      -22.285677   -2.876824   -2.741963
     48          1           0      -23.777569    4.071000    1.587397
     49          1           0      -26.713662    3.990824    1.658281
     50          1           0      -24.622120    4.005459    3.903197
     51          1           0      -25.772162    2.687580    3.976071
     52          1           0      -26.318456    4.273553    3.984053
     53          1           0      -26.024529    4.868186   -0.305893
     54          1           0      -24.567544    4.628406   -0.994841
     55          1           0      -25.213838    7.093907   -0.114423
     56          1           0      -23.523372    6.605939    0.098111
     57          1           0      -29.748568    0.984478    3.294190
     58          1           0      -29.863254   -0.537546    4.112019
     59          1           0      -30.918339   -0.042242    2.673719
     60          1           0      -31.825323   -3.865172    2.435877
     61          1           0      -31.796870   -2.077584    2.407149
     62          1           0      -30.920002   -2.842110    3.657928
     63          1           0      -26.502737   -4.955122   -2.029588
     64          1           0      -23.536852   -5.019416   -2.047997
     65          1           0      -26.004913   -6.844065   -0.566383
     66          1           0      -25.733892   -5.650817    0.682402
     67          1           0      -24.361547   -6.082347   -0.345234
     68          1           0      -24.403372   -3.457490   -4.281245
     69          1           0      -25.755999   -4.465667   -4.019252
     70          1           0      -23.855390   -6.374927   -3.979480
     71          1           0      -23.032650   -5.133973   -4.930644
     72          1           0      -24.613216   -5.648013   -5.508111
     73          1           0      -19.631896    0.096539   -3.429397
     74          1           0      -20.503498   -1.390325   -3.790399
     75          1           0      -19.468330   -1.131834   -2.301680
     76          1           0      -22.504715    3.948017   -1.602747
     77          1           0      -19.834368    5.987534    1.469695
     78          1           0      -21.506178    5.959786    2.166074
     79          1           0      -20.987373    7.179439    1.043869
     80         12           0       24.577357   -0.638308    0.416713
     81          6           0       24.679657    2.131759   -1.596203
     82          6           0       24.616024    1.316123    3.132973
     83          6           0       24.721999   -3.459287    2.256362
     84          6           0       25.063201   -2.690148   -2.545243
     85          7           0       24.916683    1.532780    0.705013
     86          6           0       24.814821    2.480056   -0.235122
     87          6           0       24.842472    3.949894    0.431590
     88          6           0       24.811327    3.555307    1.955504
     89          6           0       24.822190    2.013474    1.976194
     90          6           0       25.906657    4.240645    2.795452
     91          6           0       23.656642    4.858028   -0.001320
     92          6           0       23.368369    6.148948    0.832550
     93          1           0       23.821986    7.529949    0.223980
     94          7           0       24.707656   -1.018162    2.440001
     95          6           0       24.608284   -0.112808    3.391016
     96          6           0       24.619352   -0.789311    4.679195
     97          6           0       24.761155   -2.196665    4.488095
     98          6           0       24.729306   -2.278848    3.011276
     99          6           0       24.656194   -0.104283    6.035303
    100          6           0       24.947162   -3.325221    5.496975
    101          8           0       25.342984   -4.432073    5.143093
    102          6           0       24.643468   -3.061006    6.930186
    103          7           0       24.900980   -2.775466   -0.085452
    104          6           0       24.867003   -3.717635    0.849418
    105          6           0       24.863953   -5.131602    0.245110
    106          6           0       24.758678   -4.806183   -1.242548
    107          6           0       24.954110   -3.336551   -1.284043
    108          6           0       26.018362   -6.075726    0.612572
    109          6           0       23.564793   -5.423753   -1.925627
    110          6           0       23.875866   -6.469112   -3.055444
    111          7           0       24.766194   -0.387572   -1.603440
    112          6           0       24.873378   -1.295166   -2.710134
    113          6           0       24.811531   -0.590410   -3.971701
    114          6           0       24.718093    0.755938   -3.521571
    115          6           0       24.706841    0.809385   -2.122074
    116          6           0       24.693367   -1.079153   -5.372226
    117          6           0       24.444259    2.061796   -4.066241
    118          8           0       24.122524    2.481293   -5.188009
    119          6           0       24.526126    3.045092   -2.925501
    120          6           0       25.827091    3.863310   -3.080081
    121          8           0       26.951727    3.445106   -3.395244
    122          8           0       25.530612    5.163279   -2.795961
    123          6           0       26.632385    6.170458   -2.912721
    124          1           0       24.501589    1.835308    4.086823
    125          1           0       24.971752   -4.394582    2.761643
    126          1           0       25.071772   -3.377238   -3.393278
    127          1           0       25.815050    4.345842    0.141587
    128          1           0       23.835664    3.843148    2.347014
    129          1           0       25.435954    4.565434    3.722743
    130          1           0       26.291509    5.137665    2.310206
    131          1           0       26.727351    3.553149    3.000539
    132          1           0       22.762709    4.265788    0.194155
    133          1           0       23.791958    5.179881   -1.033827
    134          1           0       23.977167    6.082253    1.734810
    135          1           0       22.294540    6.221789    1.001369
    136          1           0       24.637422    0.980759    5.933410
    137          1           0       25.567750   -0.385892    6.561870
    138          1           0       23.816904   -0.401100    6.662983
    139          1           0       23.658770   -2.592758    6.929751
    140          1           0       25.269550   -2.434184    7.564452
    141          1           0       24.607098   -3.970632    7.528681
    142          1           0       23.949650   -5.625837    0.571787
    143          1           0       25.623594   -5.254830   -1.730834
    144          1           0       25.536511   -7.046270    0.728134
    145          1           0       26.547048   -5.711578    1.493354
    146          1           0       26.832220   -6.094696   -0.112188
    147          1           0       23.104048   -4.583005   -2.443263
    148          1           0       22.876731   -5.918648   -1.240849
    149          1           0       24.953920   -6.565807   -3.186818
    150          1           0       23.456187   -6.075900   -3.981888
    151          1           0       23.395364   -7.440719   -2.939670
    152          1           0       24.510599   -2.153367   -5.380467
    153          1           0       25.689045   -0.962081   -5.798478
    154          1           0       23.869600   -0.504284   -5.797809
    155          1           0       23.637750    3.665455   -3.045485
    156          1           0       27.576189    5.881432   -2.449692
    157          1           0       26.368225    7.168688   -2.565206
    158          1           0       26.860528    6.224010   -3.977096
 ---------------------------------------------------------------------

 SCF Done:  E(RPBE1PBE) =  -4067.41705290     A.U. after   16 cycles

 Excitation energies and oscillator strengths:

 Excited State   1:      Singlet-A      1.8791 eV  659.82 nm  f=0.3827  <S**2>=0.000
     309 -> 315        0.16676
     311 -> 313        0.69062
     311 <- 313       -0.10564
 This state for optimization and/or second-order correction.
 Total Energy, E(TD-HF/TD-DFT) =  -4067.34799900
 Copying the excited state density for this state as the 1-particle RhoCI density.

 Excited State   2:      Singlet-A      1.8897 eV  656.09 nm  f=0.3783  <S**2>=0.000
     310 -> 316        0.18009
     312 -> 314        0.68953
     312 <- 314       -0.10435

 Excited State   3:      Singlet-A      1.9650 eV  630.96 nm  f=0.0000  <S**2>=0.000
     312 -> 313        0.70711

 Excited State   4:      Singlet-A      2.0863 eV  594.29 nm  f=0.0000  <S**2>=0.000
     311 -> 314        0.70711

 Excited State   5:      Singlet-A      2.2566 eV  549.42 nm  f=0.0889  <S**2>=0.000
     310 -> 314        0.64123
     312 -> 316       -0.28268

 The electronic state is 1-A.
 Alpha  occ. eigenvalues --  -46.92571 -46.92289 -19.26590 -19.26284 -19.19717
 Alpha  occ. eigenvalues --  -19.19653 -19.19537 -19.19271 -19.18573 -19.17990
 Alpha  occ. eigenvalues --  -14.41437 -14.41367 -14.41325 -14.41231 -14.39624
 Alpha  occ. eigenvalues --  -14.39193 -14.38951 -14.38907 -10.36621 -10.36563
 Alpha  occ. eigenvalues --  -10.33139 -10.32060 -10.32033 -10.30525 -10.29541
 Alpha  occ. eigenvalues --  -10.29399 -10.29398 -10.28751 -10.28637 -10.28336
 Alpha  occ. eigenvalues --  -10.28336 -10.28238 -10.28132 -10.28091 -10.27901
 Alpha  occ. eigenvalues --  -10.27836 -10.27793 -10.27786 -10.27716 -10.27684
 Alpha  occ. eigenvalues --  -10.26861 -10.26827 -10.26816 -10.26421 -10.26386
 Alpha  occ. eigenvalues --  -10.26269 -10.26190 -10.26131 -10.26088 -10.26075
 Alpha  occ. eigenvalues --  -10.25814 -10.25810 -10.25652 -10.25616 -10.25581
 Alpha  occ. eigenvalues --  -10.25569 -10.25258 -10.25231 -10.25175 -10.25094
 Alpha  occ. eigenvalues --  -10.25003 -10.24940 -10.24820 -10.24785 -10.24634
 Alpha  occ. eigenvalues --  -10.24493 -10.24434 -10.24347 -10.24128 -10.24038
 Alpha  occ. eigenvalues --  -10.23946 -10.23888 -10.23761 -10.23706 -10.23677
 Alpha  occ. eigenvalues --  -10.23638 -10.23618 -10.23547 -10.23507 -10.23348
 Alpha  occ. eigenvalues --  -10.23148 -10.23133 -10.23028 -10.23023 -10.22808
 Alpha  occ. eigenvalues --  -10.22190  -3.14676  -3.14296  -1.87508  -1.87159
 Alpha  occ. eigenvalues --   -1.87045  -1.86912  -1.86654  -1.86526  -1.11200
 Alpha  occ. eigenvalues --   -1.10338  -1.05721  -1.05027  -1.03607  -1.02740
 Alpha  occ. eigenvalues --   -1.01916  -1.01366  -1.00324  -0.99751  -0.99031
 Alpha  occ. eigenvalues --   -0.98729  -0.98556  -0.98068  -0.97664  -0.95607
 Alpha  occ. eigenvalues --   -0.86848  -0.85658  -0.84217  -0.83431  -0.82989
 Alpha  occ. eigenvalues --   -0.82590  -0.82473  -0.82026  -0.81770  -0.81521
 Alpha  occ. eigenvalues --   -0.81459  -0.81299  -0.81085  -0.80470  -0.78456
 Alpha  occ. eigenvalues --   -0.78261  -0.77843  -0.77589  -0.76592  -0.76491
 Alpha  occ. eigenvalues --   -0.76383  -0.76008  -0.75529  -0.75387  -0.74911
 Alpha  occ. eigenvalues --   -0.74410  -0.72852  -0.72766  -0.71866  -0.71827
 Alpha  occ. eigenvalues --   -0.71624  -0.71028  -0.70557  -0.70386  -0.69691
 Alpha  occ. eigenvalues --   -0.69254  -0.67094  -0.67075  -0.66134  -0.65991
 Alpha  occ. eigenvalues --   -0.63770  -0.63561  -0.63441  -0.62754  -0.62479
 Alpha  occ. eigenvalues --   -0.62201  -0.61978  -0.61373  -0.60284  -0.60271
 Alpha  occ. eigenvalues --   -0.59861  -0.59618  -0.59453  -0.58909  -0.58893
 Alpha  occ. eigenvalues --   -0.58422  -0.57326  -0.57200  -0.55225  -0.54405
 Alpha  occ. eigenvalues --   -0.54224  -0.54123  -0.53789  -0.53465  -0.53252
 Alpha  occ. eigenvalues --   -0.53231  -0.52917  -0.52608  -0.51876  -0.51868
 Alpha  occ. eigenvalues --   -0.50887  -0.50699  -0.50330  -0.50225  -0.49926
 Alpha  occ. eigenvalues --   -0.49655  -0.49282  -0.49104  -0.48634  -0.48531
 Alpha  occ. eigenvalues --   -0.48298  -0.48073  -0.47992  -0.47622  -0.47376
 Alpha  occ. eigenvalues --   -0.47136  -0.47078  -0.46946  -0.46763  -0.46617
 Alpha  occ. eigenvalues --   -0.46367  -0.46261  -0.46124  -0.45830  -0.45752
 Alpha  occ. eigenvalues --   -0.45741  -0.45654  -0.45321  -0.45011  -0.44875
 Alpha  occ. eigenvalues --   -0.44568  -0.44531  -0.44427  -0.44371  -0.44207
 Alpha  occ. eigenvalues --   -0.43955  -0.43937  -0.43599  -0.43563  -0.43550
 Alpha  occ. eigenvalues --   -0.43188  -0.43154  -0.43062  -0.42848  -0.42775
 Alpha  occ. eigenvalues --   -0.42601  -0.42451  -0.42280  -0.42130  -0.41938
 Alpha  occ. eigenvalues --   -0.41869  -0.41782  -0.41458  -0.41368  -0.41163
 Alpha  occ. eigenvalues --   -0.40965  -0.40893  -0.40662  -0.40660  -0.40466
 Alpha  occ. eigenvalues --   -0.40282  -0.39926  -0.39754  -0.39701  -0.39547
 Alpha  occ. eigenvalues --   -0.39330  -0.39264  -0.39146  -0.39128  -0.38846
 Alpha  occ. eigenvalues --   -0.38792  -0.38661  -0.38610  -0.38434  -0.38359
 Alpha  occ. eigenvalues --   -0.38327  -0.37993  -0.37841  -0.37749  -0.37667
 Alpha  occ. eigenvalues --   -0.37530  -0.36996  -0.36986  -0.36839  -0.36788
 Alpha  occ. eigenvalues --   -0.36729  -0.36614  -0.36371  -0.36355  -0.35992
 Alpha  occ. eigenvalues --   -0.35943  -0.35769  -0.35673  -0.35553  -0.35384
 Alpha  occ. eigenvalues --   -0.35278  -0.34871  -0.34524  -0.34214  -0.33998
 Alpha  occ. eigenvalues --   -0.33226  -0.33168  -0.32864  -0.32488  -0.32202
 Alpha  occ. eigenvalues --   -0.32080  -0.31734  -0.31671  -0.31657  -0.31196
 Alpha  occ. eigenvalues --   -0.31087  -0.31011  -0.29492  -0.29270  -0.29127
 Alpha  occ. eigenvalues --   -0.28927  -0.28666  -0.28505  -0.26770  -0.26701
 Alpha  occ. eigenvalues --   -0.26617  -0.26133  -0.25809  -0.25681  -0.25557
 Alpha  occ. eigenvalues --   -0.25356  -0.25134  -0.24784  -0.20851  -0.20821
 Alpha  occ. eigenvalues --   -0.18722  -0.18507
 Alpha virt. eigenvalues --   -0.11021  -0.10791  -0.05325  -0.05221  -0.03657
 Alpha virt. eigenvalues --   -0.03578  -0.01868  -0.01830  -0.00831  -0.00243
 Alpha virt. eigenvalues --    0.00340   0.00794   0.00957   0.01309   0.01935

 Mulliken charges:
               1
     1  Mg  12.000014
     2  C    6.000379
     3  C    5.999971
     4  C    5.999514
     5  C    5.999950
     6  N    7.000125
     7  C    5.999546
     8  C    6.000170
     9  C    5.999955
    10  C    6.000384
    11  C    5.999976
    12  C    6.000049
    13  C    6.000008
    14  H    0.999937
    15  N    6.999943
    16  C    6.000429
    17  C    6.000328
    18  C    6.000171
    19  C    6.000510
    20  C    5.999918
    21  C    6.000167
    22  O    8.000389
    23  C    5.999943
    24  N    6.999806
    25  C    6.000535
    26  C    5.999845
    27  C    6.000141
    28  C    5.999612
    29  C    5.999965
    30  C    6.000107
    31  C    5.999999
    32  N    7.000025
    33  C    5.999626
    34  C    5.999571
    35  C    6.000057
    36  C    5.999571
    37  C    6.000109
    38  C    5.999687
    39  O    7.999618
    40  C    5.999958
    41  C    5.999972
    42  O    7.999976
    43  O    7.999972
    44  C    6.000027
    45  H    1.000181
    46  H    1.000047
    47  H    0.999801
    48  H    0.999997
    49  H    0.999992
    50  H    1.000179
    51  H    0.999958
    52  H    1.000051
    53  H    0.999868
    54  H    1.000067
    55  H    0.999956
    56  H    1.000048
    57  H    1.000230
    58  H    1.000286
    59  H    1.000246
    60  H    1.000186
    61  H    1.000076
    62  H    1.000105
    63  H    0.999975
    64  H    0.999983
    65  H    1.000003
    66  H    0.999927
    67  H    1.000137
    68  H    1.000021
    69  H    0.999823
    70  H    0.999937
    71  H    1.000023
    72  H    0.999911
    73  H    0.999764
    74  H    0.999759
    75  H    0.999725
    76  H    0.999912
    77  H    0.999994
    78  H    0.999940
    79  H    0.999939
    80  Mg  12.000898
    81  C    5.984149
    82  C    6.022580
    83  C    6.003769
    84  C    5.991029
    85  N    6.999976
    86  C    6.030151
    87  C    5.993244
    88  C    6.009607
    89  C    5.967084
    90  C    6.001283
    91  C    5.994563
    92  C    6.001707
    93  H    0.999621
    94  N    7.001291
    95  C    5.959228
    96  C    5.979772
    97  C    5.984291
    98  C    5.974869
    99  C    6.003221
   100  C    5.986378
   101  O    7.974978
   102  C    6.006553
   103  N    6.997982
   104  C    5.968473
   105  C    6.010515
   106  C    5.988070
   107  C    6.033185
   108  C    6.001791
   109  C    6.000152
   110  C    5.999672
   111  N    6.999436
   112  C    6.035715
   113  C    6.026045
   114  C    6.007960
   115  C    6.024959
   116  C    5.999090
   117  C    6.015718
   118  O    8.034044
   119  C    5.997686
   120  C    6.005722
   121  O    8.002452
   122  O    8.001936
   123  C    5.999043
   124  H    0.995675
   125  H    0.991940
   126  H    1.011216
   127  H    0.999676
   128  H    0.998882
   129  H    1.001425
   130  H    0.990183
   131  H    1.002043
   132  H    1.003592
   133  H    0.994371
   134  H    1.006399
   135  H    1.001867
   136  H    0.980591
   137  H    0.982357
   138  H    0.981778
   139  H    0.994824
   140  H    0.990757
   141  H    0.985713
   142  H    0.999967
   143  H    0.999868
   144  H    0.995521
   145  H    1.006547
   146  H    0.990233
   147  H    0.994537
   148  H    1.011007
   149  H    1.001741
   150  H    0.996896
   151  H    1.005251
   152  H    1.016339
   153  H    1.016338
   154  H    1.011756
   155  H    1.009000
   156  H    1.004797
   157  H    1.005847
   158  H    1.001178
 Sum of Mulliken charges = 624.00000

 Dipole moment (field-independent basis, Debye):
    X=             -0.2142    Y=              2.4354    Z=            -10.0713  Tot=             10.3638
 Quadrupole moment (field-independent basis, Debye-Ang):
   XX=              2.0494   YY=             -0.2198   ZZ=             -9.5637
   XY=             61.7906   XZ=           -252.9082   YZ=              8.3942

 Normal termination of Gaussian 16 at Fri Oct 15 01:43:37 2021.
