 Gaussian 16, Revision A.03,
 Gaussian 16:  ES64L-G16RevA.03 25-Dec-2016

 --------------------------------------------------------
 #p PBE1PBE/Def2SVP td=(nstates=5) density=(transition=1)
 --------------------------------------------------------

 --------------------------------
 TDDFT excited states in gaussian
 --------------------------------
 Symbolic Z-matrix:
 Charge =  0 Multiplicity = 1

                         Standard orientation:
 ---------------------------------------------------------------------
 Center     Atomic      Atomic             Coordinates (Angstroms)
 Number     Number       Type             X           Y           Z
 ---------------------------------------------------------------------
      1         12           0      -14.264178    0.921629    0.184592
      2          6           0      -14.726798   -2.592771   -0.312596
      3          6           0      -10.926225    0.286864    0.497975
      4          6           0      -13.884061    3.941722    1.074070
      5          6           0      -17.657952    1.109706    0.954389
      6          7           0      -13.095999   -0.956091    0.083741
      7          6           0      -13.385970   -2.227945   -0.172141
      8          6           0      -12.124904   -3.124949   -0.352345
      9          6           0      -11.076031   -2.253573    0.473832
     10          6           0      -11.716852   -0.886199    0.313951
     11          6           0      -11.028311   -2.603176    1.957747
     12          6           0      -11.700997   -3.260044   -1.853605
     13          6           0      -10.688113   -4.370018   -2.149202
     14          1           0      -10.793256   -5.097770   -3.404857
     15          7           0      -12.642387    2.048731    0.232347
     16          6           0      -11.362053    1.621079    0.346998
     17          6           0      -10.523027    2.838689    0.335099
     18          6           0      -11.431106    4.017615    0.395278
     19          6           0      -12.704060    3.374510    0.598704
     20          6           0       -9.029564    2.807774    0.223916
     21          6           0      -11.188542    5.490594    0.297164
     22          8           0      -12.083621    6.349424    0.606709
     23          6           0       -9.829172    5.908080   -0.091244
     24          7           0      -15.525207    2.294908    1.123498
     25          6           0      -15.133370    3.555184    1.340648
     26          6           0      -16.284775    4.420479    1.759536
     27          6           0      -17.599636    3.539400    1.548360
     28          6           0      -16.928730    2.218811    1.096474
     29          6           0      -16.243008    4.936719    3.204445
     30          6           0      -18.714752    4.142566    0.657785
     31          6           0      -18.235335    4.233626   -0.773636
     32          7           0      -15.958584   -0.434038    0.137677
     33          6           0      -17.276632   -0.149904    0.523284
     34          6           0      -18.038425   -1.407889    0.417395
     35          6           0      -17.100705   -2.346196   -0.009343
     36          6           0      -15.827709   -1.720154   -0.135214
     37          6           0      -19.409276   -1.583010    0.755824
     38          6           0      -16.872732   -3.737490   -0.364572
     39          8           0      -17.597235   -4.719538   -0.532409
     40          6           0      -15.301619   -3.979874   -0.457748
     41          6           0      -15.031445   -4.722567   -1.737874
     42          8           0      -15.223288   -4.179785   -2.845100
     43          8           0      -14.370975   -5.857654   -1.462377
     44          6           0      -14.045808   -6.628078   -2.692364
     45          1           0       -9.897032    0.180424    0.846360
     46          1           0      -13.822076    5.010927    1.287129
     47          1           0      -18.740133    1.110189    1.096999
     48          1           0      -12.208667   -4.119988    0.085038
     49          1           0      -10.087299   -2.264611    0.015563
     50          1           0      -11.816738   -3.305866    2.227058
     51          1           0      -11.164551   -1.658162    2.483941
     52          1           0      -10.038311   -2.962893    2.239316
     53          1           0      -11.111118   -2.389449   -2.140255
     54          1           0      -12.575947   -3.391228   -2.491242
     55          1           0      -10.600850   -5.063234   -1.312097
     56          1           0       -9.699702   -3.917649   -2.230476
     57          1           0       -8.638246    1.800984    0.364587
     58          1           0       -8.635644    3.372773    1.068494
     59          1           0       -8.678302    3.248577   -0.709165
     60          1           0       -9.112417    5.517132    0.631231
     61          1           0       -9.866113    6.991731   -0.197005
     62          1           0       -9.579482    5.450700   -1.049057
     63          1           0      -16.349353    5.313041    1.138578
     64          1           0      -18.101434    3.320983    2.491317
     65          1           0      -16.287189    6.023290    3.282657
     66          1           0      -15.341065    4.547082    3.675585
     67          1           0      -17.018653    4.535042    3.855942
     68          1           0      -18.952302    5.155339    0.981524
     69          1           0      -19.638473    3.564004    0.673842
     70          1           0      -17.679618    5.170578   -0.785093
     71          1           0      -19.084051    4.274707   -1.457159
     72          1           0      -17.532035    3.434735   -1.009494
     73          1           0      -19.844729   -2.188533   -0.038966
     74          1           0      -19.919773   -0.624687    0.848626
     75          1           0      -19.317051   -2.101146    1.710228
     76          1           0      -15.021589   -4.561561    0.419945
     77          1           0      -14.463187   -7.626999   -2.565148
     78          1           0      -12.968250   -6.544296   -2.834677
     79          1           0      -14.547662   -6.310301   -3.606968
     80         12           0       15.121144   -0.228761   -0.193009
     81          6           0       11.672999   -1.211769   -0.327913
     82          6           0       14.084701    2.641309   -2.049985
     83          6           0       17.937164    1.412344    0.622875
     84          6           0       15.647844   -2.658158    2.155805
     85          7           0       13.116639    0.580583   -1.020898
     86          6           0       11.878173    0.009626   -0.979799
     87          6           0       10.806100    0.885771   -1.717065
     88          6           0       11.746803    1.867970   -2.566275
     89          6           0       13.041331    1.742878   -1.778779
     90          6           0       11.960075    1.453157   -4.004017
     91          6           0        9.774847    1.494366   -0.781245
     92          6           0        8.288925    1.443188   -1.222197
     93          1           0        7.576554    2.724987   -1.860459
     94          7           0       15.991333    1.769867   -0.735418
     95          6           0       15.409654    2.730439   -1.588940
     96          6           0       16.356602    3.838399   -1.764496
     97          6           0       17.528658    3.450050   -1.003428
     98          6           0       17.174281    2.249664   -0.277056
     99          6           0       16.134004    5.094958   -2.518771
    100          6           0       18.845652    4.184891   -1.006271
    101          8           0       18.999113    5.078030   -1.808755
    102          6           0       19.999181    3.874055   -0.080633
    103          7           0       16.451376   -0.544577    1.246797
    104          6           0       17.625020    0.203829    1.262090
    105          6           0       18.519004   -0.371419    2.363079
    106          6           0       17.878282   -1.771766    2.681579
    107          6           0       16.586850   -1.673540    1.941964
    108          6           0       20.073316   -0.394236    2.123519
    109          6           0       17.741631   -2.194323    4.176583
    110          6           0       18.340774   -3.497707    4.593939
    111          7           0       14.005228   -1.721870    0.659049
    112          6           0       14.365841   -2.708182    1.560462
    113          6           0       13.305228   -3.728127    1.672123
    114          6           0       12.202951   -3.102266    0.970389
    115          6           0       12.699126   -1.918700    0.415378
    116          6           0       13.293480   -5.044456    2.403757
    117          6           0       10.775544   -3.307720    0.585283
    118          8           0        9.998167   -4.162467    0.902058
    119          6           0       10.391503   -2.032888   -0.158824
    120          6           0        9.835564   -2.431883   -1.493163
    121          8           0       10.571523   -2.959666   -2.299045
    122          8           0        8.480746   -2.059614   -1.744010
    123          6           0        7.979727   -2.264350   -3.136974
    124          1           0       13.820488    3.507397   -2.660605
    125          1           0       18.894245    1.797968    0.978094
    126          1           0       15.923832   -3.525343    2.758866
    127          1           0       10.292471    0.325350   -2.497700
    128          1           0       11.425031    2.905291   -2.474687
    129          1           0       12.727089    0.679396   -4.027562
    130          1           0       12.222300    2.352880   -4.560475
    131          1           0       11.131937    0.999085   -4.549170
    132          1           0       10.025294    2.552208   -0.707800
    133          1           0        9.969041    1.112209    0.220890
    134          1           0        7.771389    1.172707   -0.301504
    135          1           0        8.078370    0.651158   -1.940950
    136          1           0       16.601037    4.950345   -3.492503
    137          1           0       16.711139    5.895703   -2.056258
    138          1           0       15.123327    5.478292   -2.664117
    139          1           0       20.837447    4.568715   -0.130362
    140          1           0       20.360956    2.892974   -0.388609
    141          1           0       19.809518    3.744366    0.984233
    142          1           0       18.406605    0.380055    3.145125
    143          1           0       18.402664   -2.523845    2.092843
    144          1           0       20.299446   -0.318196    1.059608
    145          1           0       20.516811   -1.278139    2.581557
    146          1           0       20.546099    0.435407    2.648677
    147          1           0       16.684424   -2.205218    4.441515
    148          1           0       18.126901   -1.369754    4.776231
    149          1           0       17.541236   -4.217874    4.766446
    150          1           0       18.879008   -3.367930    5.532757
    151          1           0       19.033431   -3.978975    3.903838
    152          1           0       12.531227   -5.710196    1.999479
    153          1           0       13.104121   -4.811581    3.451993
    154          1           0       14.306419   -5.446698    2.379538
    155          1           0        9.727196   -1.464138    0.491982
    156          1           0        7.730746   -3.316627   -3.275226
    157          1           0        8.757402   -2.040379   -3.866844
    158          1           0        7.122447   -1.622229   -3.338176
 ---------------------------------------------------------------------

 SCF Done:  E(RPBE1PBE) =  -4067.38101811     A.U. after   16 cycles

 Excitation energies and oscillator strengths:

 Excited State   1:      Singlet-A      1.8362 eV  675.24 nm  f=0.3872  <S**2>=0.000
     309 -> 316        0.16424
     311 -> 313        0.69667
     311 <- 313       -0.11954
 This state for optimization and/or second-order correction.
 Total Energy, E(TD-HF/TD-DFT) =  -4067.31354078
 Copying the excited state density for this state as the 1-particle RhoCI density.

 Excited State   2:      Singlet-A      1.8414 eV  673.33 nm  f=0.3730  <S**2>=0.000
     310 -> 315       -0.16184
     312 -> 314        0.69321
     312 <- 314       -0.11106

 Excited State   3:      Singlet-A      1.8505 eV  669.99 nm  f=0.0000  <S**2>=0.000
     312 -> 313        0.70710

 Excited State   4:      Singlet-A      1.9582 eV  633.16 nm  f=0.0000  <S**2>=0.000
     311 -> 314        0.70710

 Excited State   5:      Singlet-A      2.1929 eV  565.40 nm  f=0.0932  <S**2>=0.000
     310 -> 314        0.65167
     312 -> 315        0.24148

 The electronic state is 1-A.
 Alpha  occ. eigenvalues --  -46.92807 -46.91164 -19.26895 -19.25957 -19.20951
 Alpha  occ. eigenvalues --  -19.19913 -19.19276 -19.18987 -19.18388 -19.18298
 Alpha  occ. eigenvalues --  -14.42199 -14.41918 -14.41426 -14.40933 -14.39074
 Alpha  occ. eigenvalues --  -14.39025 -14.38892 -14.38229 -10.37271 -10.36079
 Alpha  occ. eigenvalues --  -10.32556 -10.32469 -10.31749 -10.31545 -10.29561
 Alpha  occ. eigenvalues --  -10.29195 -10.29118 -10.29097 -10.28876 -10.28608
 Alpha  occ. eigenvalues --  -10.28560 -10.28253 -10.28192 -10.28110 -10.28013
 Alpha  occ. eigenvalues --  -10.27990 -10.27977 -10.27519 -10.27351 -10.27233
 Alpha  occ. eigenvalues --  -10.27010 -10.26862 -10.26812 -10.26537 -10.26462
 Alpha  occ. eigenvalues --  -10.26450 -10.26428 -10.26313 -10.26035 -10.25985
 Alpha  occ. eigenvalues --  -10.25985 -10.25868 -10.25851 -10.25652 -10.25521
 Alpha  occ. eigenvalues --  -10.25427 -10.25352 -10.25321 -10.25247 -10.25230
 Alpha  occ. eigenvalues --  -10.25184 -10.24851 -10.24826 -10.24789 -10.24748
 Alpha  occ. eigenvalues --  -10.24563 -10.24398 -10.24286 -10.24251 -10.24138
 Alpha  occ. eigenvalues --  -10.24096 -10.24005 -10.23772 -10.23652 -10.23593
 Alpha  occ. eigenvalues --  -10.23588 -10.23584 -10.23290 -10.23286 -10.23250
 Alpha  occ. eigenvalues --  -10.23238 -10.22894 -10.22890 -10.22568 -10.22376
 Alpha  occ. eigenvalues --  -10.22070  -3.14953  -3.13482  -1.87739  -1.87334
 Alpha  occ. eigenvalues --   -1.87182  -1.86304  -1.85869  -1.85716  -1.11392
 Alpha  occ. eigenvalues --   -1.10109  -1.06487  -1.05062  -1.03340  -1.02734
 Alpha  occ. eigenvalues --   -1.01814  -1.01422  -0.99307  -0.99144  -0.98342
 Alpha  occ. eigenvalues --   -0.98266  -0.97873  -0.97449  -0.97062  -0.96267
 Alpha  occ. eigenvalues --   -0.87112  -0.86303  -0.83808  -0.83791  -0.83422
 Alpha  occ. eigenvalues --   -0.83222  -0.82855  -0.82567  -0.82177  -0.81978
 Alpha  occ. eigenvalues --   -0.81947  -0.81413  -0.80621  -0.80029  -0.79204
 Alpha  occ. eigenvalues --   -0.78837  -0.78342  -0.78200  -0.77132  -0.76845
 Alpha  occ. eigenvalues --   -0.76843  -0.76093  -0.75866  -0.74925  -0.74915
 Alpha  occ. eigenvalues --   -0.74593  -0.73078  -0.72566  -0.71867  -0.71518
 Alpha  occ. eigenvalues --   -0.71201  -0.71173  -0.70682  -0.70212  -0.69673
 Alpha  occ. eigenvalues --   -0.69200  -0.67215  -0.67179  -0.66300  -0.66060
 Alpha  occ. eigenvalues --   -0.64195  -0.63975  -0.63389  -0.63203  -0.62430
 Alpha  occ. eigenvalues --   -0.62093  -0.61525  -0.61212  -0.60467  -0.59677
 Alpha  occ. eigenvalues --   -0.59598  -0.59391  -0.59214  -0.59068  -0.58914
 Alpha  occ. eigenvalues --   -0.58742  -0.56960  -0.56847  -0.54919  -0.54427
 Alpha  occ. eigenvalues --   -0.54276  -0.54066  -0.53866  -0.53596  -0.53558
 Alpha  occ. eigenvalues --   -0.53091  -0.53073  -0.52311  -0.52078  -0.51775
 Alpha  occ. eigenvalues --   -0.51177  -0.50846  -0.50345  -0.50274  -0.50128
 Alpha  occ. eigenvalues --   -0.50027  -0.49808  -0.49053  -0.48877  -0.48528
 Alpha  occ. eigenvalues --   -0.48429  -0.47986  -0.47926  -0.47807  -0.47725
 Alpha  occ. eigenvalues --   -0.47558  -0.47526  -0.47077  -0.46966  -0.46954
 Alpha  occ. eigenvalues --   -0.46408  -0.46391  -0.46325  -0.46157  -0.45979
 Alpha  occ. eigenvalues --   -0.45832  -0.45645  -0.45540  -0.45148  -0.45058
 Alpha  occ. eigenvalues --   -0.44609  -0.44568  -0.44515  -0.44456  -0.44390
 Alpha  occ. eigenvalues --   -0.44101  -0.43999  -0.43854  -0.43836  -0.43678
 Alpha  occ. eigenvalues --   -0.43394  -0.43339  -0.43192  -0.43090  -0.42986
 Alpha  occ. eigenvalues --   -0.42901  -0.42452  -0.42309  -0.41923  -0.41912
 Alpha  occ. eigenvalues --   -0.41738  -0.41538  -0.41215  -0.41179  -0.41108
 Alpha  occ. eigenvalues --   -0.41045  -0.40948  -0.40891  -0.40848  -0.40770
 Alpha  occ. eigenvalues --   -0.40685  -0.40527  -0.40036  -0.39916  -0.39735
 Alpha  occ. eigenvalues --   -0.39464  -0.39275  -0.39195  -0.38874  -0.38810
 Alpha  occ. eigenvalues --   -0.38718  -0.38681  -0.38517  -0.38339  -0.38254
 Alpha  occ. eigenvalues --   -0.38211  -0.38194  -0.37864  -0.37832  -0.37570
 Alpha  occ. eigenvalues --   -0.37496  -0.37462  -0.37421  -0.37276  -0.36879
 Alpha  occ. eigenvalues --   -0.36833  -0.36536  -0.36459  -0.36339  -0.36097
 Alpha  occ. eigenvalues --   -0.35934  -0.35750  -0.35737  -0.35596  -0.35568
 Alpha  occ. eigenvalues --   -0.35456  -0.35284  -0.34980  -0.34311  -0.34302
 Alpha  occ. eigenvalues --   -0.33538  -0.33392  -0.32764  -0.32696  -0.32422
 Alpha  occ. eigenvalues --   -0.32356  -0.32226  -0.32132  -0.31679  -0.31643
 Alpha  occ. eigenvalues --   -0.31229  -0.30942  -0.29874  -0.29638  -0.29483
 Alpha  occ. eigenvalues --   -0.28904  -0.28891  -0.28386  -0.26923  -0.26694
 Alpha  occ. eigenvalues --   -0.26429  -0.25979  -0.25392  -0.25302  -0.25089
 Alpha  occ. eigenvalues --   -0.24928  -0.24802  -0.24472  -0.21278  -0.20950
 Alpha  occ. eigenvalues --   -0.18854  -0.18733
 Alpha virt. eigenvalues --   -0.11472  -0.11198  -0.05319  -0.05096  -0.04128
 Alpha virt. eigenvalues --   -0.03622  -0.02149  -0.02034  -0.01618  -0.00302
 Alpha virt. eigenvalues --    0.00133   0.00379   0.00450   0.00474   0.01171

 Mulliken charges:
               1
     1  Mg  12.000057
     2  C    5.999682
     3  C    5.999952
     4  C    6.000342
     5  C    5.999977
     6  N    6.999863
     7  C    6.000339
     8  C    5.999901
     9  C    6.000064
    10  C    5.999763
    11  C    6.000075
    12  C    5.999991
    13  C    6.000064
    14  H    0.999964
    15  N    7.000033
    16  C    5.999697
    17  C    5.999578
    18  C    5.999927
    19  C    5.999703
    20  C    6.000134
    21  C    5.999918
    22  O    7.999808
    23  C    6.000034
    24  N    7.000088
    25  C    5.999654
    26  C    6.000102
    27  C    5.999858
    28  C    6.000346
    29  C    5.999987
    30  C    5.999937
    31  C    5.999963
    32  N    6.999991
    33  C    6.000431
    34  C    6.000270
    35  C    6.000047
    36  C    6.000379
    37  C    5.999925
    38  C    6.000173
    39  O    8.000322
    40  C    6.000037
    41  C    6.000000
    42  O    8.000115
    43  O    7.999982
    44  C    5.999974
    45  H    0.999676
    46  H    1.000047
    47  H    1.000200
    48  H    0.999882
    49  H    0.999812
    50  H    0.999808
    51  H    1.000080
    52  H    0.999656
    53  H    1.000175
    54  H    1.000017
    55  H    0.999851
    56  H    0.999910
    57  H    0.999580
    58  H    0.999733
    59  H    0.999823
    60  H    0.999890
    61  H    1.000031
    62  H    0.999959
    63  H    1.000116
    64  H    1.000081
    65  H    1.000119
    66  H    1.000015
    67  H    0.999934
    68  H    1.000205
    69  H    1.000009
    70  H    1.000195
    71  H    1.000108
    72  H    0.999912
    73  H    1.000232
    74  H    1.000259
    75  H    1.000206
    76  H    0.999989
    77  H    1.000004
    78  H    0.999950
    79  H    1.000090
    80  Mg  11.999718
    81  C    5.977433
    82  C    5.999487
    83  C    6.032447
    84  C    5.999644
    85  N    6.985221
    86  C    6.028775
    87  C    5.991286
    88  C    6.007977
    89  C    5.974064
    90  C    6.005809
    91  C    5.995861
    92  C    5.999599
    93  H    1.007228
    94  N    7.003399
    95  C    5.962450
    96  C    5.976124
    97  C    5.993028
    98  C    5.961026
    99  C    6.004861
   100  C    5.988818
   101  O    7.982646
   102  C    6.002249
   103  N    7.009779
   104  C    5.962794
   105  C    6.008498
   106  C    5.989028
   107  C    6.029246
   108  C    6.000474
   109  C    5.995796
   110  C    5.998777
   111  N    7.000088
   112  C    6.031360
   113  C    6.032313
   114  C    6.001973
   115  C    6.030236
   116  C    6.000211
   117  C    6.017890
   118  O    8.024830
   119  C    6.000256
   120  C    6.004961
   121  O    8.002673
   122  O    8.001999
   123  C    5.998312
   124  H    0.987425
   125  H    0.996446
   126  H    1.013157
   127  H    1.000864
   128  H    0.999071
   129  H    0.994867
   130  H    1.001228
   131  H    0.984512
   132  H    1.010062
   133  H    0.994208
   134  H    0.997034
   135  H    0.997548
   136  H    0.980903
   137  H    0.985110
   138  H    0.981816
   139  H    0.988704
   140  H    0.989822
   141  H    0.988795
   142  H    1.000151
   143  H    1.003990
   144  H    1.003260
   145  H    0.992197
   146  H    1.003390
   147  H    0.996578
   148  H    1.011488
   149  H    0.996290
   150  H    1.006321
   151  H    1.004249
   152  H    1.015077
   153  H    1.020258
   154  H    1.015771
   155  H    1.007782
   156  H    1.000708
   157  H    1.005519
   158  H    1.004760
 Sum of Mulliken charges = 624.00000

 Dipole moment (field-independent basis, Debye):
    X=             -4.2493    Y=             -8.7609    Z=              4.0499  Tot=             10.5457
 Quadrupole moment (field-independent basis, Debye-Ang):
   XX=           -117.1257   YY=             -1.2406   ZZ=              0.2177
   XY=           -130.8245   XZ=             61.6531   YZ=              0.4255

 Normal termination of Gaussian 16 at Thu Oct 14 15:30:53 2021.
