 Gaussian 16, Revision A.03,
 Gaussian 16:  ES64L-G16RevA.03 25-Dec-2016

 --------------------------------------------------------
 #p PBE1PBE/Def2SVP td=(nstates=5) density=(transition=1)
 --------------------------------------------------------

 --------------------------------
 TDDFT excited states in gaussian
 --------------------------------
 Symbolic Z-matrix:
 Charge =  0 Multiplicity = 1

                         Standard orientation:
 ---------------------------------------------------------------------
 Center     Atomic      Atomic             Coordinates (Angstroms)
 Number     Number       Type             X           Y           Z
 ---------------------------------------------------------------------
      1         12           0       19.897176   -0.765415    0.357155
      2          6           0       19.461708    2.145914   -1.514383
      3          6           0       20.613844    1.064057    3.043472
      4          6           0       21.544993   -3.483869    1.614057
      5          6           0       19.189881   -2.636730   -2.494893
      6          7           0       19.860498    1.394468    0.764573
      7          6           0       19.644716    2.351811   -0.129362
      8          6           0       19.588310    3.737199    0.610413
      9          6           0       20.069328    3.365831    2.033589
     10          6           0       20.221890    1.849254    1.965686
     11          6           0       21.517457    3.957018    2.410357
     12          6           0       18.154651    4.438196    0.633959
     13          6           0       18.239042    5.907151    0.397406
     14          1           0       17.550038    6.861989    1.360111
     15          7           0       20.910260   -1.144348    2.102796
     16          6           0       21.085314   -0.248403    3.123988
     17          6           0       21.551705   -0.977197    4.311792
     18          6           0       21.820577   -2.305825    3.879389
     19          6           0       21.462899   -2.327487    2.451314
     20          6           0       21.800741   -0.290112    5.692348
     21          6           0       22.437797   -3.486880    4.687443
     22          8           0       22.630018   -4.607802    4.229802
     23          6           0       22.790728   -3.247801    6.106787
     24          7           0       20.330886   -2.701399   -0.315965
     25          6           0       21.094231   -3.674171    0.336527
     26          6           0       21.355446   -4.861158   -0.627189
     27          6           0       20.099703   -4.807085   -1.603413
     28          6           0       19.865603   -3.279134   -1.434064
     29          6           0       22.744668   -4.806593   -1.298331
     30          6           0       18.883659   -5.593236   -1.203172
     31          6           0       17.939828   -5.080705   -0.156220
     32          7           0       19.224250   -0.417228   -1.564191
     33          6           0       19.013973   -1.253479   -2.636158
     34          6           0       18.586764   -0.519244   -3.829364
     35          6           0       18.844567    0.880249   -3.471809
     36          6           0       19.240489    0.851626   -2.077996
     37          6           0       18.265718   -1.083109   -5.117397
     38          6           0       18.860672    2.256864   -3.951375
     39          8           0       18.688115    2.729792   -5.011656
     40          6           0       19.193749    3.148368   -2.644312
     41          6           0       20.268754    4.184273   -2.856025
     42          8           0       21.465313    4.017870   -2.638701
     43          8           0       19.662973    5.379317   -3.242744
     44          6           0       20.536968    6.543756   -3.473648
     45          1           0       20.697921    1.476316    4.051515
     46          1           0       22.100490   -4.305413    2.071987
     47          1           0       18.888817   -3.285299   -3.319784
     48          1           0       20.313551    4.446416    0.210714
     49          1           0       19.433864    3.688606    2.858253
     50          1           0       21.346478    4.914178    2.903433
     51          1           0       22.160844    4.190936    1.562553
     52          1           0       21.986279    3.267367    3.113252
     53          1           0       17.651624    4.295646    1.590525
     54          1           0       17.426340    4.042747   -0.074197
     55          1           0       17.692867    6.035549   -0.536704
     56          1           0       19.225096    6.344203    0.242495
     57          1           0       22.840524    0.035239    5.674686
     58          1           0       21.553885   -0.953166    6.521868
     59          1           0       21.335417    0.691228    5.790716
     60          1           0       23.257093   -2.317895    6.431798
     61          1           0       23.457989   -4.035659    6.455395
     62          1           0       21.945651   -3.527388    6.736544
     63          1           0       21.265232   -5.733541    0.019406
     64          1           0       20.353490   -5.102497   -2.621307
     65          1           0       22.763739   -4.860119   -2.386866
     66          1           0       23.480239   -5.464253   -0.834625
     67          1           0       23.214010   -3.843568   -1.098104
     68          1           0       19.098415   -6.601552   -0.851290
     69          1           0       18.280181   -5.743820   -2.098408
     70          1           0       17.173201   -4.592844   -0.757931
     71          1           0       18.340555   -4.322697    0.517147
     72          1           0       17.534574   -5.923096    0.405287
     73          1           0       17.464529   -0.462679   -5.519384
     74          1           0       17.884385   -2.088463   -4.940382
     75          1           0       19.134525   -1.042066   -5.773612
     76          1           0       18.280445    3.684804   -2.386953
     77          1           0       21.309539    6.225399   -4.174085
     78          1           0       21.036450    6.842672   -2.552465
     79          1           0       20.109150    7.471255   -3.854555
     80         12           0      -20.642030   -0.500381   -0.268937
     81          6           0      -18.231824    2.006197    0.121729
     82          6           0      -23.050030    1.649995    0.852681
     83          6           0      -22.792280   -3.012893   -0.338960
     84          6           0      -17.994714   -2.696037   -1.242196
     85          7           0      -20.599784    1.593907    0.454910
     86          6           0      -19.543740    2.477617    0.477737
     87          6           0      -20.038032    3.890455    0.727776
     88          6           0      -21.519377    3.664740    1.228325
     89          6           0      -21.743994    2.201807    0.714394
     90          6           0      -21.677722    3.778665    2.739175
     91          6           0      -19.770334    4.784858   -0.537237
     92          6           0      -20.433573    6.187647   -0.453466
     93          1           0      -20.599685    6.779652    0.930687
     94          7           0      -22.580391   -0.647374    0.161934
     95          6           0      -23.410148    0.317840    0.718433
     96          6           0      -24.762385   -0.207850    0.975905
     97          6           0      -24.672611   -1.577362    0.578336
     98          6           0      -23.302772   -1.790315    0.118610
     99          6           0      -25.877471    0.629251    1.480455
    100          6           0      -25.781952   -2.595225    0.643783
    101          8           0      -25.629550   -3.777172    0.227753
    102          6           0      -27.154311   -2.224562    1.137052
    103          7           0      -20.422127   -2.570753   -0.787402
    104          6           0      -21.496965   -3.356751   -0.720602
    105          6           0      -21.093326   -4.871366   -0.998342
    106          6           0      -19.487705   -4.776595   -1.259003
    107          6           0      -19.276185   -3.273311   -1.074292
    108          6           0      -21.508309   -5.740704    0.258614
    109          6           0      -19.032192   -5.204999   -2.719184
    110          6           0      -18.776750   -6.724986   -2.930451
    111          7           0      -18.572824   -0.452430   -0.460297
    112          6           0      -17.617553   -1.368515   -0.974573
    113          6           0      -16.246521   -0.696292   -1.034995
    114          6           0      -16.417609    0.596301   -0.549775
    115          6           0      -17.875068    0.715728   -0.290123
    116          6           0      -14.965840   -1.270075   -1.555125
    117          6           0      -15.790861    1.869896   -0.283648
    118          8           0      -14.622809    2.257005   -0.389451
    119          6           0      -16.983408    2.912861   -0.004011
    120          6           0      -16.737510    3.769052    1.217176
    121          8           0      -17.033771    3.446400    2.335837
    122          8           0      -16.341216    5.075554    0.852206
    123          6           0      -16.498745    6.133826    1.861151
    124          1           0      -23.686345    2.434317    1.268763
    125          1           0      -23.503395   -3.841773   -0.345087
    126          1           0      -17.127830   -3.333335   -1.429319
    127          1           0      -19.431489    4.311073    1.528819
    128          1           0      -22.277546    4.286680    0.751338
    129          1           0      -22.433313    4.548084    2.897128
    130          1           0      -20.696982    3.967734    3.175035
    131          1           0      -22.181653    2.917301    3.176940
    132          1           0      -19.983591    4.082360   -1.342314
    133          1           0      -18.688665    4.909667   -0.574483
    134          1           0      -21.398249    6.030985   -0.936206
    135          1           0      -19.826517    6.881479   -1.034825
    136          1           0      -26.082862    0.181083    2.452445
    137          1           0      -26.737170    0.650205    0.811226
    138          1           0      -25.700676    1.682938    1.700064
    139          1           0      -27.585970   -1.488974    0.459705
    140          1           0      -26.873726   -1.864482    2.127641
    141          1           0      -27.852320   -3.046546    1.293448
    142          1           0      -21.655534   -5.048800   -1.915979
    143          1           0      -18.827057   -5.142927   -0.472075
    144          1           0      -21.955997   -5.172585    1.073858
    145          1           0      -20.629994   -6.239365    0.669371
    146          1           0      -22.293929   -6.406581   -0.097246
    147          1           0      -18.245876   -4.561673   -3.113044
    148          1           0      -19.875804   -4.971450   -3.367892
    149          1           0      -19.406716   -7.033738   -3.763917
    150          1           0      -18.967061   -7.241136   -1.989366
    151          1           0      -17.743770   -6.931162   -3.211714
    152          1           0      -14.779875   -0.777043   -2.509541
    153          1           0      -15.054012   -2.351543   -1.665660
    154          1           0      -14.058242   -1.095120   -0.977784
    155          1           0      -17.067499    3.519343   -0.905326
    156          1           0      -15.652530    6.001976    2.534893
    157          1           0      -17.496864    6.105740    2.298735
    158          1           0      -16.449725    7.077546    1.318590
 ---------------------------------------------------------------------

 SCF Done:  E(RPBE1PBE) =  -4067.39798269     A.U. after   16 cycles

 Excitation energies and oscillator strengths:

 Excited State   1:      Singlet-A      1.8399 eV  673.85 nm  f=0.3664  <S**2>=0.000
     310 -> 316       -0.17108
     311 -> 313        0.69438
     311 <- 313       -0.11326
 This state for optimization and/or second-order correction.
 Total Energy, E(TD-HF/TD-DFT) =  -4067.33036597
 Copying the excited state density for this state as the 1-particle RhoCI density.

 Excited State   2:      Singlet-A      1.8621 eV  665.84 nm  f=0.3731  <S**2>=0.000
     309 -> 315        0.19125
     312 -> 314        0.68803
     312 <- 314       -0.10014

 Excited State   3:      Singlet-A      1.8859 eV  657.42 nm  f=0.0000  <S**2>=0.000
     312 -> 313        0.70711

 Excited State   4:      Singlet-A      2.0671 eV  599.80 nm  f=0.0000  <S**2>=0.000
     311 -> 314        0.70710

 Excited State   5:      Singlet-A      2.2623 eV  548.04 nm  f=0.1044  <S**2>=0.000
     310 -> 313        0.64515
     311 -> 316        0.27993

 The electronic state is 1-A.
 Alpha  occ. eigenvalues --  -46.91507 -46.91311 -19.25593 -19.24645 -19.20477
 Alpha  occ. eigenvalues --  -19.20206 -19.19736 -19.19438 -19.19425 -19.18600
 Alpha  occ. eigenvalues --  -14.41610 -14.41603 -14.41147 -14.40999 -14.39659
 Alpha  occ. eigenvalues --  -14.39529 -14.38902 -14.38885 -10.36590 -10.36422
 Alpha  occ. eigenvalues --  -10.32810 -10.32696 -10.32506 -10.32344 -10.28987
 Alpha  occ. eigenvalues --  -10.28980 -10.28941 -10.28779 -10.28597 -10.28463
 Alpha  occ. eigenvalues --  -10.28367 -10.28269 -10.28091 -10.28082 -10.27922
 Alpha  occ. eigenvalues --  -10.27802 -10.27763 -10.27628 -10.27331 -10.27297
 Alpha  occ. eigenvalues --  -10.27200 -10.27150 -10.27103 -10.26864 -10.26775
 Alpha  occ. eigenvalues --  -10.26556 -10.26211 -10.26186 -10.26181 -10.26120
 Alpha  occ. eigenvalues --  -10.26064 -10.25957 -10.25942 -10.25917 -10.25717
 Alpha  occ. eigenvalues --  -10.25714 -10.25602 -10.25521 -10.25494 -10.25364
 Alpha  occ. eigenvalues --  -10.25242 -10.25016 -10.24967 -10.24891 -10.24790
 Alpha  occ. eigenvalues --  -10.24481 -10.24433 -10.24361 -10.24290 -10.24143
 Alpha  occ. eigenvalues --  -10.23776 -10.23766 -10.23701 -10.23686 -10.23656
 Alpha  occ. eigenvalues --  -10.23438 -10.23410 -10.23247 -10.23142 -10.23124
 Alpha  occ. eigenvalues --  -10.23087 -10.23079 -10.23008 -10.22898 -10.22855
 Alpha  occ. eigenvalues --  -10.21927  -3.13765  -3.13588  -1.86612  -1.86433
 Alpha  occ. eigenvalues --   -1.86125  -1.86019  -1.85939  -1.85840  -1.10202
 Alpha  occ. eigenvalues --   -1.09802  -1.07600  -1.04921  -1.03862  -1.02610
 Alpha  occ. eigenvalues --   -1.02461  -1.02174  -0.99769  -0.98937  -0.98191
 Alpha  occ. eigenvalues --   -0.98110  -0.97551  -0.97460  -0.96774  -0.96086
 Alpha  occ. eigenvalues --   -0.86112  -0.85964  -0.83295  -0.83171  -0.82843
 Alpha  occ. eigenvalues --   -0.82826  -0.82344  -0.82112  -0.81878  -0.81409
 Alpha  occ. eigenvalues --   -0.81216  -0.81058  -0.80673  -0.80581  -0.78518
 Alpha  occ. eigenvalues --   -0.78430  -0.77831  -0.77249  -0.76793  -0.76336
 Alpha  occ. eigenvalues --   -0.76186  -0.76046  -0.75257  -0.75059  -0.74693
 Alpha  occ. eigenvalues --   -0.74346  -0.73222  -0.72550  -0.71776  -0.71533
 Alpha  occ. eigenvalues --   -0.71287  -0.71015  -0.70092  -0.70075  -0.69204
 Alpha  occ. eigenvalues --   -0.68919  -0.66661  -0.66539  -0.65922  -0.65896
 Alpha  occ. eigenvalues --   -0.63726  -0.63570  -0.62992  -0.62911  -0.62787
 Alpha  occ. eigenvalues --   -0.62075  -0.61498  -0.61122  -0.60101  -0.59946
 Alpha  occ. eigenvalues --   -0.59662  -0.59152  -0.58774  -0.58529  -0.58478
 Alpha  occ. eigenvalues --   -0.58301  -0.56337  -0.55862  -0.55202  -0.54728
 Alpha  occ. eigenvalues --   -0.54078  -0.54072  -0.53421  -0.53274  -0.52733
 Alpha  occ. eigenvalues --   -0.52282  -0.52213  -0.52192  -0.51598  -0.51368
 Alpha  occ. eigenvalues --   -0.50762  -0.50416  -0.50324  -0.50046  -0.49797
 Alpha  occ. eigenvalues --   -0.49301  -0.49171  -0.48752  -0.48574  -0.48482
 Alpha  occ. eigenvalues --   -0.48153  -0.47980  -0.47896  -0.47862  -0.47450
 Alpha  occ. eigenvalues --   -0.47155  -0.47034  -0.46794  -0.46701  -0.46517
 Alpha  occ. eigenvalues --   -0.46359  -0.46210  -0.46137  -0.45988  -0.45856
 Alpha  occ. eigenvalues --   -0.45751  -0.45725  -0.45358  -0.45052  -0.44962
 Alpha  occ. eigenvalues --   -0.44725  -0.44602  -0.44600  -0.44138  -0.44113
 Alpha  occ. eigenvalues --   -0.44107  -0.44051  -0.43897  -0.43804  -0.43652
 Alpha  occ. eigenvalues --   -0.43530  -0.43251  -0.43176  -0.42956  -0.42797
 Alpha  occ. eigenvalues --   -0.42710  -0.42631  -0.42420  -0.42032  -0.41629
 Alpha  occ. eigenvalues --   -0.41541  -0.41378  -0.41301  -0.40977  -0.40938
 Alpha  occ. eigenvalues --   -0.40781  -0.40770  -0.40475  -0.40413  -0.40337
 Alpha  occ. eigenvalues --   -0.40200  -0.39991  -0.39874  -0.39779  -0.39669
 Alpha  occ. eigenvalues --   -0.39667  -0.39445  -0.39444  -0.39129  -0.38989
 Alpha  occ. eigenvalues --   -0.38929  -0.38825  -0.38553  -0.38317  -0.38156
 Alpha  occ. eigenvalues --   -0.38066  -0.37992  -0.37842  -0.37740  -0.37672
 Alpha  occ. eigenvalues --   -0.37489  -0.37487  -0.37184  -0.37043  -0.36723
 Alpha  occ. eigenvalues --   -0.36385  -0.36293  -0.36282  -0.36159  -0.36083
 Alpha  occ. eigenvalues --   -0.35991  -0.35768  -0.35374  -0.35291  -0.35145
 Alpha  occ. eigenvalues --   -0.35084  -0.34144  -0.34065  -0.34017  -0.33593
 Alpha  occ. eigenvalues --   -0.33478  -0.33256  -0.33012  -0.32972  -0.32665
 Alpha  occ. eigenvalues --   -0.31905  -0.31766  -0.31598  -0.31416  -0.31208
 Alpha  occ. eigenvalues --   -0.30942  -0.30913  -0.29498  -0.29401  -0.29374
 Alpha  occ. eigenvalues --   -0.29220  -0.28703  -0.28338  -0.26849  -0.26774
 Alpha  occ. eigenvalues --   -0.26401  -0.26194  -0.26000  -0.25773  -0.25645
 Alpha  occ. eigenvalues --   -0.25606  -0.25204  -0.25124  -0.20899  -0.20883
 Alpha  occ. eigenvalues --   -0.18411  -0.18171
 Alpha virt. eigenvalues --   -0.10913  -0.10490  -0.05551  -0.04882  -0.04416
 Alpha virt. eigenvalues --   -0.03811  -0.02203  -0.01907  -0.00204  -0.00135
 Alpha virt. eigenvalues --    0.00179   0.00598   0.01083   0.01437   0.01711

 Mulliken charges:
               1
     1  Mg  12.001675
     2  C    5.975878
     3  C    5.995346
     4  C    6.028905
     5  C    6.007093
     6  N    6.988153
     7  C    6.033286
     8  C    5.990429
     9  C    6.008129
    10  C    5.974167
    11  C    6.006304
    12  C    5.998374
    13  C    5.999934
    14  H    1.005210
    15  N    7.004548
    16  C    5.966940
    17  C    5.977852
    18  C    5.988442
    19  C    5.960681
    20  C    6.001484
    21  C    5.986229
    22  O    7.972229
    23  C    6.009618
    24  N    7.017890
    25  C    5.963945
    26  C    6.003904
    27  C    5.991789
    28  C    6.020614
    29  C    5.998913
    30  C    5.994513
    31  C    5.996845
    32  N    6.997900
    33  C    6.023769
    34  C    6.036012
    35  C    6.003811
    36  C    6.027308
    37  C    5.995276
    38  C    6.014867
    39  O    8.023850
    40  C    6.004206
    41  C    6.002778
    42  O    8.008615
    43  O    8.000137
    44  C    5.997951
    45  H    0.988648
    46  H    0.996075
    47  H    1.014249
    48  H    1.000171
    49  H    0.995624
    50  H    0.990180
    51  H    0.988028
    52  H    1.007018
    53  H    1.007056
    54  H    0.993178
    55  H    0.995421
    56  H    1.001031
    57  H    0.982714
    58  H    0.985161
    59  H    0.983837
    60  H    0.994415
    61  H    0.986023
    62  H    0.989248
    63  H    1.003678
    64  H    1.001966
    65  H    0.989454
    66  H    1.003045
    67  H    1.001608
    68  H    1.011584
    69  H    0.998630
    70  H    0.993588
    71  H    1.011983
    72  H    1.007286
    73  H    1.017960
    74  H    1.015461
    75  H    1.023403
    76  H    1.006182
    77  H    1.000799
    78  H    1.006122
    79  H    1.003374
    80  Mg  12.000023
    81  C    6.000413
    82  C    5.999917
    83  C    5.999546
    84  C    6.000091
    85  N    7.000186
    86  C    5.999448
    87  C    6.000148
    88  C    5.999823
    89  C    6.000615
    90  C    5.999973
    91  C    6.000069
    92  C    6.000028
    93  H    0.999950
    94  N    6.999920
    95  C    6.000705
    96  C    6.000333
    97  C    6.000308
    98  C    6.000523
    99  C    5.999907
   100  C    6.000206
   101  O    8.000617
   102  C    5.999961
   103  N    6.999951
   104  C    6.000487
   105  C    5.999893
   106  C    6.000233
   107  C    5.999420
   108  C    5.999927
   109  C    6.000124
   110  C    5.999955
   111  N    7.000015
   112  C    5.999280
   113  C    5.999471
   114  C    5.999958
   115  C    5.999429
   116  C    6.000077
   117  C    5.999677
   118  O    7.999317
   119  C    5.999926
   120  C    5.999971
   121  O    7.999885
   122  O    7.999960
   123  C    6.000029
   124  H    1.000262
   125  H    1.000122
   126  H    0.999784
   127  H    1.000020
   128  H    1.000017
   129  H    1.000089
   130  H    1.000280
   131  H    0.999917
   132  H    0.999924
   133  H    1.000090
   134  H    0.999873
   135  H    0.999988
   136  H    1.000376
   137  H    1.000384
   138  H    1.000369
   139  H    1.000145
   140  H    1.000108
   141  H    1.000311
   142  H    0.999934
   143  H    0.999999
   144  H    0.999925
   145  H    1.000184
   146  H    0.999996
   147  H    1.000035
   148  H    0.999817
   149  H    0.999900
   150  H    0.999948
   151  H    0.999966
   152  H    0.999569
   153  H    0.999665
   154  H    0.999635
   155  H    0.999857
   156  H    0.999983
   157  H    0.999919
   158  H    0.999910
 Sum of Mulliken charges = 624.00000

 Dipole moment (field-independent basis, Debye):
    X=             -3.8749    Y=              1.0622    Z=             -9.4270  Tot=             10.2475
 Quadrupole moment (field-independent basis, Debye-Ang):
   XX=           -140.1160   YY=              0.8951   ZZ=             -4.7388
   XY=             27.0471   XZ=           -194.0112   YZ=              6.3023

 Normal termination of Gaussian 16 at Thu Oct 14 03:38:20 2021.
