 Gaussian 16, Revision A.03,
 Gaussian 16:  ES64L-G16RevA.03 25-Dec-2016

 --------------------------------------------------------
 #p PBE1PBE/Def2SVP td=(nstates=5) density=(transition=1)
 --------------------------------------------------------

 --------------------------------
 TDDFT excited states in gaussian
 --------------------------------
 Symbolic Z-matrix:
 Charge =  0 Multiplicity = 1

                         Standard orientation:
 ---------------------------------------------------------------------
 Center     Atomic      Atomic             Coordinates (Angstroms)
 Number     Number       Type             X           Y           Z
 ---------------------------------------------------------------------
      1         12           0        4.949706    0.609804   -0.029360
      2          6           0        2.613787   -1.995373    0.828153
      3          6           0        7.338271   -1.697548   -0.385280
      4          6           0        7.174130    3.114436    0.068142
      5          6           0        2.440133    2.897669    0.849263
      6          7           0        4.964580   -1.547478    0.249427
      7          6           0        3.886757   -2.435549    0.406008
      8          6           0        4.335430   -3.929252    0.177753
      9          6           0        5.854075   -3.778440   -0.139326
     10          6           0        6.068555   -2.241466   -0.149516
     11          6           0        6.825449   -4.477615    0.777509
     12          6           0        3.454649   -4.683033   -0.955945
     13          6           0        2.839500   -6.019938   -0.524173
     14          1           0        3.272324   -7.241276   -1.417680
     15          7           0        6.977635    0.703681   -0.283499
     16          6           0        7.806012   -0.337958   -0.409851
     17          6           0        9.199789    0.093336   -0.530143
     18          6           0        9.139037    1.510835   -0.297879
     19          6           0        7.720468    1.848652   -0.140950
     20          6           0       10.313931   -0.829679   -0.781061
     21          6           0       10.399156    2.419699   -0.146600
     22          8           0       10.311579    3.629017   -0.014605
     23          6           0       11.794061    1.881510   -0.177671
     24          7           0        4.807656    2.636085    0.383507
     25          6           0        5.883118    3.504615    0.231119
     26          6           0        5.437528    4.989899    0.434989
     27          6           0        3.869213    4.899192    0.332575
     28          6           0        3.670969    3.390233    0.474373
     29          6           0        6.024643    5.767057    1.657991
     30          6           0        3.287782    5.423544   -1.008942
     31          6           0        2.001679    6.210282   -0.982465
     32          7           0        2.951776    0.512925    0.741202
     33          6           0        2.080605    1.521702    1.040190
     34          6           0        0.719423    0.908528    1.365807
     35          6           0        0.873049   -0.451388    1.244334
     36          6           0        2.262014   -0.649118    0.932977
     37          6           0       -0.510797    1.745419    1.633422
     38          6           0        0.249830   -1.758479    1.352095
     39          8           0       -0.950703   -1.939120    1.644652
     40          6           0        1.428937   -2.888067    1.168616
     41          6           0        1.729911   -3.699317    2.411530
     42          8           0        2.008711   -3.137463    3.489233
     43          8           0        1.479561   -5.060832    2.235423
     44          6           0        1.356934   -5.769312    3.504114
     45          1           0        8.140405   -2.398754   -0.623876
     46          1           0        7.957701    3.873103    0.020937
     47          1           0        1.679937    3.669782    0.988302
     48          1           0        4.129700   -4.384752    1.146210
     49          1           0        5.997724   -4.343134   -1.061539
     50          1           0        6.339888   -4.986730    1.610164
     51          1           0        7.297669   -3.605939    1.229327
     52          1           0        7.447909   -5.213099    0.267002
     53          1           0        4.167620   -4.801416   -1.771410
     54          1           0        2.708296   -3.989620   -1.342635
     55          1           0        1.760675   -5.868176   -0.489492
     56          1           0        3.171108   -6.255373    0.487926
     57          1           0       11.162099   -0.862611   -0.097941
     58          1           0       10.830602   -0.399782   -1.638409
     59          1           0       10.032430   -1.816708   -1.148636
     60          1           0       11.898501    1.426969   -1.163585
     61          1           0       11.830163    1.072882    0.552878
     62          1           0       12.441166    2.730947    0.037380
     63          1           0        5.809496    5.492389   -0.457929
     64          1           0        3.361698    5.340254    1.190152
     65          1           0        6.773594    5.089741    2.067749
     66          1           0        5.278374    6.094543    2.381262
     67          1           0        6.645230    6.609350    1.349696
     68          1           0        3.151535    4.456698   -1.493066
     69          1           0        3.990077    5.987658   -1.623006
     70          1           0        2.152990    7.038961   -1.674298
     71          1           0        1.785531    6.645672   -0.006322
     72          1           0        1.256847    5.578166   -1.466578
     73          1           0       -0.204090    2.790102    1.585052
     74          1           0       -0.819780    1.571790    2.663948
     75          1           0       -1.305880    1.456705    0.946269
     76          1           0        1.168133   -3.518238    0.318336
     77          1           0        0.356274   -6.126367    3.743628
     78          1           0        1.715736   -5.206076    4.365700
     79          1           0        2.006126   -6.641030    3.426026
     80         12           0       -5.023771    0.631675   -0.402055
     81          6           0       -2.788794   -1.981340   -1.088929
     82          6           0       -7.442816   -1.736212    0.226868
     83          6           0       -7.116933    3.108923    0.209171
     84          6           0       -2.474196    2.900582   -1.235376
     85          7           0       -5.021095   -1.583238   -0.362246
     86          6           0       -4.012429   -2.487749   -0.694610
     87          6           0       -4.335341   -3.970827   -0.258870
     88          6           0       -5.824192   -3.820347   -0.013136
     89          6           0       -6.140002   -2.267826   -0.039365
     90          6           0       -6.662922   -4.487613   -1.197428
     91          6           0       -3.553753   -4.146926    1.118130
     92          6           0       -2.807096   -5.532622    1.355723
     93          1           0       -3.578768   -6.644876    0.692790
     94          7           0       -6.987071    0.666137   -0.014479
     95          6           0       -7.807625   -0.358691    0.198886
     96          6           0       -9.141342    0.060844    0.539277
     97          6           0       -9.049023    1.454757    0.722763
     98          6           0       -7.666637    1.825688    0.237203
     99          6           0      -10.314820   -0.826984    0.737810
    100          6           0      -10.023365    2.430528    1.349817
    101          8           0       -9.706784    3.580947    1.673412
    102          6           0      -11.496523    2.043583    1.506888
    103          7           0       -4.810478    2.737150   -0.555774
    104          6           0       -5.872207    3.511896   -0.152100
    105          6           0       -5.419372    4.969985   -0.116191
    106          6           0       -3.854363    4.913865   -0.472427
    107          6           0       -3.648041    3.442397   -0.718502
    108          6           0       -6.346965    5.838479   -1.037557
    109          6           0       -2.895845    5.524023    0.538196
    110          6           0       -1.906653    6.560959   -0.080217
    111          7           0       -3.052272    0.495081   -1.053520
    112          6           0       -2.119206    1.528684   -1.380151
    113          6           0       -0.892476    0.965883   -1.819322
    114          6           0       -1.129855   -0.414734   -1.710791
    115          6           0       -2.461129   -0.623248   -1.294528
    116          6           0        0.383473    1.617396   -2.245847
    117          6           0       -0.552210   -1.710652   -1.871687
    118          8           0        0.529226   -2.085338   -2.260080
    119          6           0       -1.585882   -2.755616   -1.364392
    120          6           0       -1.699920   -3.845948   -2.366953
    121          8           0       -2.215832   -3.790382   -3.479688
    122          8           0       -1.178046   -4.941628   -1.807018
    123          6           0       -1.252706   -6.168455   -2.572315
    124          1           0       -8.256665   -2.370640    0.583721
    125          1           0       -7.861587    3.882156    0.414174
    126          1           0       -1.635229    3.568006   -1.443378
    127          1           0       -3.897434   -4.592695   -1.039039
    128          1           0       -6.087651   -4.227190    0.962594
    129          1           0       -6.023910   -4.904139   -1.976312
    130          1           0       -7.303528   -3.722369   -1.635326
    131          1           0       -7.260223   -5.250896   -0.698577
    132          1           0       -4.194060   -4.041580    1.993421
    133          1           0       -2.848548   -3.317152    1.172412
    134          1           0       -2.878548   -5.831615    2.401541
    135          1           0       -1.730844   -5.437693    1.209298
    136          1           0      -10.559870   -0.782853    1.799865
    137          1           0      -10.076865   -1.861942    0.496147
    138          1           0      -11.186849   -0.528104    0.156902
    139          1           0      -11.932892    3.036241    1.615448
    140          1           0      -11.693627    1.382456    2.351611
    141          1           0      -12.002774    1.636745    0.631712
    142          1           0       -5.502732    5.466571    0.850490
    143          1           0       -3.702426    5.424253   -1.423578
    144          1           0       -6.590629    6.726393   -0.454065
    145          1           0       -7.234842    5.315010   -1.392318
    146          1           0       -5.776205    6.316728   -1.834428
    147          1           0       -2.309151    4.795091    1.096376
    148          1           0       -3.537220    6.148146    1.162062
    149          1           0       -2.155594    6.756724   -1.123323
    150          1           0       -0.902840    6.148855   -0.181311
    151          1           0       -1.922066    7.501304    0.471182
    152          1           0        0.782217    1.947804   -1.286316
    153          1           0        0.111974    2.388010   -2.966998
    154          1           0        1.097376    0.906417   -2.659339
    155          1           0       -1.084091   -3.199596   -0.503597
    156          1           0       -0.818393   -6.017359   -3.560963
    157          1           0       -2.250215   -6.545559   -2.800369
    158          1           0       -0.672307   -6.905627   -2.017212
 ---------------------------------------------------------------------

 SCF Done:  E(RPBE1PBE) =  -4067.40101929     A.U. after   16 cycles

 Excitation energies and oscillator strengths:

 Excited State   1:      Singlet-A      1.6142 eV  768.09 nm  f=0.0072  <S**2>=0.000
     311 -> 313        0.54550
     311 -> 314        0.35612
     312 -> 313        0.24915
     312 -> 314        0.10724
 This state for optimization and/or second-order correction.
 Total Energy, E(TD-HF/TD-DFT) =  -4067.34169880
 Copying the excited state density for this state as the 1-particle RhoCI density.

 Excited State   2:      Singlet-A      1.6422 eV  754.98 nm  f=0.0203  <S**2>=0.000
     311 -> 313       -0.22120
     311 -> 314        0.11978
     312 -> 313        0.49905
     312 -> 314       -0.43173

 Excited State   3:      Singlet-A      1.7888 eV  693.10 nm  f=0.9254  <S**2>=0.000
     311 -> 313       -0.34211
     311 -> 314        0.19419
     312 -> 313        0.24994
     312 -> 314        0.52046

 Excited State   4:      Singlet-A      1.8797 eV  659.60 nm  f=0.0101  <S**2>=0.000
     311 -> 313       -0.17179
     311 -> 314        0.55523
     312 -> 313       -0.34302
     312 -> 314       -0.15738

 Excited State   5:      Singlet-A      2.1779 eV  569.29 nm  f=0.0128  <S**2>=0.000
     310 -> 313        0.67766
     311 -> 315       -0.12080

 The electronic state is 1-A.
 Alpha  occ. eigenvalues --  -46.91594 -46.90801 -19.27406 -19.25951 -19.21026
 Alpha  occ. eigenvalues --  -19.20654 -19.19665 -19.18942 -19.18756 -19.18234
 Alpha  occ. eigenvalues --  -14.41802 -14.41345 -14.41088 -14.40828 -14.39389
 Alpha  occ. eigenvalues --  -14.39104 -14.38900 -14.37985 -10.37778 -10.35199
 Alpha  occ. eigenvalues --  -10.33919 -10.32898 -10.32074 -10.30588 -10.29050
 Alpha  occ. eigenvalues --  -10.29033 -10.28996 -10.28579 -10.28508 -10.28175
 Alpha  occ. eigenvalues --  -10.28148 -10.27968 -10.27912 -10.27858 -10.27854
 Alpha  occ. eigenvalues --  -10.27816 -10.27647 -10.27478 -10.27283 -10.27223
 Alpha  occ. eigenvalues --  -10.26745 -10.26536 -10.26306 -10.26105 -10.25944
 Alpha  occ. eigenvalues --  -10.25909 -10.25872 -10.25614 -10.25511 -10.25496
 Alpha  occ. eigenvalues --  -10.25478 -10.25295 -10.25190 -10.25175 -10.25136
 Alpha  occ. eigenvalues --  -10.25132 -10.25047 -10.24980 -10.24830 -10.24816
 Alpha  occ. eigenvalues --  -10.24803 -10.24777 -10.24471 -10.24430 -10.24131
 Alpha  occ. eigenvalues --  -10.24071 -10.23966 -10.23889 -10.23849 -10.23577
 Alpha  occ. eigenvalues --  -10.23515 -10.23426 -10.23414 -10.23248 -10.23218
 Alpha  occ. eigenvalues --  -10.23114 -10.23106 -10.23055 -10.23043 -10.23023
 Alpha  occ. eigenvalues --  -10.23012 -10.23007 -10.22882 -10.22798 -10.22711
 Alpha  occ. eigenvalues --  -10.21399  -3.13816  -3.13089  -1.86636  -1.86175
 Alpha  occ. eigenvalues --   -1.86069  -1.85941  -1.85444  -1.85347  -1.11869
 Alpha  occ. eigenvalues --   -1.11104  -1.04841  -1.04625  -1.04607  -1.04248
 Alpha  occ. eigenvalues --   -1.02732  -1.01824  -0.99146  -0.98443  -0.98408
 Alpha  occ. eigenvalues --   -0.97832  -0.97138  -0.97050  -0.96653  -0.96312
 Alpha  occ. eigenvalues --   -0.86773  -0.86705  -0.83586  -0.83380  -0.82606
 Alpha  occ. eigenvalues --   -0.82483  -0.82265  -0.82002  -0.81918  -0.81486
 Alpha  occ. eigenvalues --   -0.81411  -0.81207  -0.80621  -0.80179  -0.78262
 Alpha  occ. eigenvalues --   -0.77950  -0.77905  -0.77560  -0.76808  -0.76243
 Alpha  occ. eigenvalues --   -0.76012  -0.75744  -0.75324  -0.75021  -0.74407
 Alpha  occ. eigenvalues --   -0.74205  -0.72769  -0.72657  -0.71895  -0.71617
 Alpha  occ. eigenvalues --   -0.70970  -0.70697  -0.70311  -0.69583  -0.68956
 Alpha  occ. eigenvalues --   -0.68915  -0.67294  -0.66661  -0.65504  -0.65308
 Alpha  occ. eigenvalues --   -0.63452  -0.63259  -0.62897  -0.62739  -0.61831
 Alpha  occ. eigenvalues --   -0.61696  -0.60962  -0.60895  -0.59710  -0.59534
 Alpha  occ. eigenvalues --   -0.59363  -0.59330  -0.59152  -0.59096  -0.58752
 Alpha  occ. eigenvalues --   -0.58662  -0.57125  -0.56908  -0.54953  -0.54790
 Alpha  occ. eigenvalues --   -0.54106  -0.53905  -0.53428  -0.53248  -0.52974
 Alpha  occ. eigenvalues --   -0.52841  -0.52763  -0.52152  -0.51855  -0.51529
 Alpha  occ. eigenvalues --   -0.50921  -0.50694  -0.50040  -0.49885  -0.49571
 Alpha  occ. eigenvalues --   -0.49511  -0.49376  -0.48875  -0.48386  -0.48243
 Alpha  occ. eigenvalues --   -0.48023  -0.47762  -0.47703  -0.47135  -0.47071
 Alpha  occ. eigenvalues --   -0.47002  -0.46790  -0.46741  -0.46621  -0.46426
 Alpha  occ. eigenvalues --   -0.46299  -0.46079  -0.45964  -0.45887  -0.45716
 Alpha  occ. eigenvalues --   -0.45279  -0.45175  -0.45141  -0.44885  -0.44848
 Alpha  occ. eigenvalues --   -0.44689  -0.44625  -0.44402  -0.44163  -0.44054
 Alpha  occ. eigenvalues --   -0.43580  -0.43503  -0.43242  -0.43166  -0.43152
 Alpha  occ. eigenvalues --   -0.43085  -0.42839  -0.42787  -0.42674  -0.42577
 Alpha  occ. eigenvalues --   -0.42525  -0.42263  -0.42116  -0.41979  -0.41879
 Alpha  occ. eigenvalues --   -0.41645  -0.41533  -0.41471  -0.41211  -0.41066
 Alpha  occ. eigenvalues --   -0.40841  -0.40625  -0.40594  -0.40456  -0.40359
 Alpha  occ. eigenvalues --   -0.40171  -0.39938  -0.39849  -0.39638  -0.39286
 Alpha  occ. eigenvalues --   -0.39213  -0.39105  -0.39001  -0.38975  -0.38839
 Alpha  occ. eigenvalues --   -0.38654  -0.38598  -0.38455  -0.38369  -0.38299
 Alpha  occ. eigenvalues --   -0.37933  -0.37911  -0.37705  -0.37635  -0.37560
 Alpha  occ. eigenvalues --   -0.37207  -0.37122  -0.37022  -0.37000  -0.36551
 Alpha  occ. eigenvalues --   -0.36473  -0.36420  -0.35938  -0.35870  -0.35659
 Alpha  occ. eigenvalues --   -0.35579  -0.35512  -0.35333  -0.35162  -0.34771
 Alpha  occ. eigenvalues --   -0.34755  -0.34155  -0.34017  -0.33907  -0.33123
 Alpha  occ. eigenvalues --   -0.33008  -0.32887  -0.32621  -0.32339  -0.32179
 Alpha  occ. eigenvalues --   -0.32133  -0.31955  -0.31296  -0.31262  -0.31081
 Alpha  occ. eigenvalues --   -0.31034  -0.30820  -0.29829  -0.29448  -0.29146
 Alpha  occ. eigenvalues --   -0.28755  -0.28349  -0.27948  -0.26997  -0.26868
 Alpha  occ. eigenvalues --   -0.26701  -0.26186  -0.26079  -0.25856  -0.25483
 Alpha  occ. eigenvalues --   -0.25293  -0.25017  -0.24661  -0.20906  -0.20573
 Alpha  occ. eigenvalues --   -0.18405  -0.18260
 Alpha virt. eigenvalues --   -0.10961  -0.10679  -0.05081  -0.04648  -0.04635
 Alpha virt. eigenvalues --   -0.03124  -0.02186  -0.01795  -0.01312  -0.00391
 Alpha virt. eigenvalues --    0.00741   0.01141   0.01579   0.01706   0.02094

 Mulliken charges:
               1
     1  Mg  11.999700
     2  C    5.999083
     3  C    6.000839
     4  C    5.999937
     5  C    5.998682
     6  N    6.999784
     7  C    6.000225
     8  C    6.000108
     9  C    6.000289
    10  C    5.998918
    11  C    5.999895
    12  C    5.999830
    13  C    5.999675
    14  H    1.001127
    15  N    7.000003
    16  C    5.998915
    17  C    5.999726
    18  C    5.999634
    19  C    5.999425
    20  C    6.000064
    21  C    5.999787
    22  O    7.999612
    23  C    6.000054
    24  N    6.998862
    25  C    5.999720
    26  C    6.000082
    27  C    5.999972
    28  C    6.000684
    29  C    5.999935
    30  C    5.999931
    31  C    6.000206
    32  N    7.000977
    33  C    6.000866
    34  C    6.002499
    35  C    5.997445
    36  C    6.000603
    37  C    5.997928
    38  C    6.000283
    39  O    8.003146
    40  C    6.000804
    41  C    6.000384
    42  O    8.000592
    43  O    8.000158
    44  C    5.999626
    45  H    1.000163
    46  H    0.999922
    47  H    0.999792
    48  H    1.000274
    49  H    1.000048
    50  H    0.999957
    51  H    1.000328
    52  H    1.000279
    53  H    1.000540
    54  H    0.999010
    55  H    0.999829
    56  H    1.000439
    57  H    0.999783
    58  H    0.999782
    59  H    0.999612
    60  H    0.999916
    61  H    0.999921
    62  H    0.999915
    63  H    1.000124
    64  H    1.000155
    65  H    1.000245
    66  H    0.999891
    67  H    1.000205
    68  H    0.999013
    69  H    1.000589
    70  H    1.000593
    71  H    1.000513
    72  H    0.998911
    73  H    1.002555
    74  H    1.004492
    75  H    1.000266
    76  H    0.999899
    77  H    1.000731
    78  H    1.000360
    79  H    1.000488
    80  Mg  11.999695
    81  C    5.998024
    82  C    5.999708
    83  C    6.003172
    84  C    6.002074
    85  N    6.998139
    86  C    6.001276
    87  C    5.999826
    88  C    6.000725
    89  C    5.996087
    90  C    6.000488
    91  C    5.999573
    92  C    5.999523
    93  H    1.000905
    94  N    7.000907
    95  C    5.995717
    96  C    5.996817
    97  C    5.998668
    98  C    5.994487
    99  C    6.000593
   100  C    5.998314
   101  O    7.996152
   102  C    6.000856
   103  N    7.001343
   104  C    5.995032
   105  C    6.001635
   106  C    5.999060
   107  C    6.001137
   108  C    6.000611
   109  C    5.999072
   110  C    6.000155
   111  N    7.001350
   112  C    6.000221
   113  C    6.007815
   114  C    5.999249
   115  C    6.001879
   116  C    5.999833
   117  C    6.004381
   118  O    8.007538
   119  C    5.998911
   120  C    6.000791
   121  O    8.001141
   122  O    8.000058
   123  C    5.999730
   124  H    0.997936
   125  H    0.999397
   126  H    1.000864
   127  H    0.998567
   128  H    0.999051
   129  H    0.997766
   130  H    1.000375
   131  H    0.999106
   132  H    1.001214
   133  H    0.998772
   134  H    1.000153
   135  H    0.998717
   136  H    0.997422
   137  H    0.997933
   138  H    0.997490
   139  H    0.998130
   140  H    0.998789
   141  H    0.998916
   142  H    0.999294
   143  H    0.999764
   144  H    0.999382
   145  H    1.000679
   146  H    0.998510
   147  H    0.999115
   148  H    1.001388
   149  H    1.000294
   150  H    0.999063
   151  H    1.000616
   152  H    1.001604
   153  H    1.003798
   154  H    1.002187
   155  H    1.000760
   156  H    1.000011
   157  H    1.001267
   158  H    1.000448
 Sum of Mulliken charges = 624.00000

 Dipole moment (field-independent basis, Debye):
    X=              1.5054    Y=             -0.1048    Z=             -0.2896  Tot=              1.5366
 Quadrupole moment (field-independent basis, Debye-Ang):
   XX=            -17.1716   YY=              0.1778   ZZ=              1.0440
   XY=              0.1368   XZ=              1.2434   YZ=             -0.1658

 Normal termination of Gaussian 16 at Thu Oct 14 21:33:28 2021.
