 Gaussian 16, Revision A.03,
 Gaussian 16:  ES64L-G16RevA.03 25-Dec-2016

 --------------------------------------------------------
 #p PBE1PBE/Def2SVP td=(nstates=5) density=(transition=1)
 --------------------------------------------------------

 --------------------------------
 TDDFT excited states in gaussian
 --------------------------------
 Symbolic Z-matrix:
 Charge =  0 Multiplicity = 1

                         Standard orientation:
 ---------------------------------------------------------------------
 Center     Atomic      Atomic             Coordinates (Angstroms)
 Number     Number       Type             X           Y           Z
 ---------------------------------------------------------------------
      1         12           0       21.437298   -0.096158    0.573717
      2          6           0       17.917219   -0.224358    0.428177
      3          6           0       21.483565   -3.157453   -0.920772
      4          6           0       24.780022    0.356497    0.023489
      5          6           0       21.053788    3.284389    1.634300
      6          7           0       19.843032   -1.485903   -0.303062
      7          6           0       18.488951   -1.445609   -0.131909
      8          6           0       17.775056   -2.599797   -0.856536
      9          6           0       19.020361   -3.615008   -0.889452
     10          6           0       20.200645   -2.697290   -0.688666
     11          6           0       18.996237   -4.745583    0.173915
     12          6           0       17.274822   -2.250203   -2.329943
     13          6           0       16.128569   -3.051806   -2.927140
     14          1           0       16.335974   -4.036005   -4.097977
     15          7           0       23.032650   -1.238792   -0.305392
     16          6           0       22.822731   -2.520641   -0.723744
     17          6           0       24.030677   -3.163143   -1.000465
     18          6           0       25.049849   -2.178848   -0.713009
     19          6           0       24.335990   -0.925893   -0.336901
     20          6           0       24.168205   -4.606288   -1.470387
     21          6           0       26.526779   -2.476642   -0.839767
     22          8           0       26.900247   -3.622835   -1.199593
     23          6           0       27.656718   -1.463991   -0.439145
     24          7           0       22.655475    1.573371    0.815135
     25          6           0       24.048867    1.496026    0.546268
     26          6           0       24.751481    2.687504    1.135344
     27          6           0       23.634239    3.736357    1.324923
     28          6           0       22.364716    2.835889    1.342784
     29          6           0       25.487574    2.555559    2.487804
     30          6           0       23.555208    4.781208    0.091178
     31          6           0       24.479962    5.989081    0.101930
     32          7           0       19.797181    1.184228    1.126158
     33          6           0       19.799886    2.507784    1.540178
     34          6           0       18.516676    2.995028    1.702460
     35          6           0       17.696504    1.918908    1.322337
     36          6           0       18.532605    0.850252    0.957394
     37          6           0       18.169149    4.370730    2.176971
     38          6           0       16.401119    1.486295    1.265334
     39          8           0       15.379371    2.018830    1.651644
     40          6           0       16.486384    0.182357    0.444421
     41          6           0       15.905973    0.531053   -0.893605
     42          8           0       16.322448    1.398336   -1.596772
     43          8           0       14.776357   -0.248916   -1.147486
     44          6           0       14.092967    0.158669   -2.325546
     45          1           0       21.549488   -4.210583   -1.202739
     46          1           0       25.863928    0.487150    0.061470
     47          1           0       21.020916    4.274920    2.092309
     48          1           0       17.025655   -3.084305   -0.231528
     49          1           0       18.984514   -4.111069   -1.858972
     50          1           0       18.606094   -5.591435   -0.392842
     51          1           0       18.306127   -4.531431    0.989908
     52          1           0       19.999059   -4.985611    0.527613
     53          1           0       18.081461   -2.394692   -3.048725
     54          1           0       17.074493   -1.178591   -2.339427
     55          1           0       15.410940   -2.290061   -3.235294
     56          1           0       15.663776   -3.603594   -2.110231
     57          1           0       25.008805   -5.209233   -1.125313
     58          1           0       24.146065   -4.417386   -2.543412
     59          1           0       23.332798   -5.198984   -1.097623
     60          1           0       27.587641   -1.247381    0.626537
     61          1           0       27.443035   -0.613791   -1.086614
     62          1           0       28.671493   -1.736526   -0.728767
     63          1           0       25.428000    3.053944    0.363922
     64          1           0       23.748014    4.299570    2.251249
     65          1           0       25.044596    3.113030    3.312904
     66          1           0       26.567679    2.505678    2.348455
     67          1           0       25.289576    1.526885    2.788592
     68          1           0       22.510824    5.081970    0.171792
     69          1           0       23.713301    4.271099   -0.859218
     70          1           0       25.019914    6.033357   -0.843514
     71          1           0       25.193361    5.887583    0.920241
     72          1           0       23.917045    6.919984    0.174846
     73          1           0       17.439349    4.755818    1.465380
     74          1           0       19.016132    5.056673    2.135363
     75          1           0       17.715196    4.375699    3.168081
     76          1           0       15.872654   -0.568193    0.941336
     77          1           0       13.316141    0.877738   -2.067019
     78          1           0       13.495837   -0.634068   -2.777824
     79          1           0       14.759783    0.610989   -3.057632
     80         12           0      -20.801310    0.657280    0.183484
     81          6           0      -20.200882   -2.813311    0.316066
     82          6           0      -17.549746    1.040516   -0.541159
     83          6           0      -21.579913    3.775696   -0.408013
     84          6           0      -24.277350   -0.168226    0.261908
     85          7           0      -19.095957   -0.756169   -0.121788
     86          6           0      -19.024103   -2.097610    0.048841
     87          6           0      -17.628558   -2.660007   -0.130495
     88          6           0      -16.789602   -1.319455   -0.129381
     89          6           0      -17.839784   -0.239507   -0.287678
     90          6           0      -15.898297   -1.090912    1.160458
     91          6           0      -17.251860   -3.592772   -1.362947
     92          6           0      -18.165703   -3.694238   -2.613030
     93          1           0      -17.479251   -3.915519   -4.012525
     94          7           0      -19.621581    2.226136   -0.277343
     95          6           0      -18.347092    2.189896   -0.642556
     96          6           0      -17.931751    3.550809   -1.079106
     97          6           0      -19.130567    4.410985   -0.869133
     98          6           0      -20.181236    3.456988   -0.512884
     99          6           0      -16.517513    3.929196   -1.427889
    100          6           0      -19.206841    5.893143   -1.126878
    101          8           0      -18.186132    6.485004   -1.469170
    102          6           0      -20.514336    6.765419   -1.058141
    103          7           0      -22.736287    1.697108   -0.162539
    104          6           0      -22.664721    2.982365   -0.208529
    105          6           0      -24.154823    3.544624   -0.157590
    106          6           0      -24.953191    2.239851   -0.194319
    107          6           0      -23.917055    1.143667   -0.037063
    108          6           0      -24.561691    4.485741    0.988501
    109          6           0      -25.660657    1.952686   -1.618306
    110          6           0      -27.199898    1.984043   -1.638507
    111          7           0      -22.040332   -1.068594    0.205155
    112          6           0      -23.388957   -1.253435    0.358685
    113          6           0      -23.688407   -2.668879    0.697657
    114          6           0      -22.459101   -3.375352    0.569584
    115          6           0      -21.492361   -2.295859    0.377129
    116          6           0      -25.081209   -3.303316    0.909105
    117          6           0      -21.785200   -4.630462    0.597547
    118          8           0      -22.158604   -5.815425    0.634308
    119          6           0      -20.269223   -4.319901    0.510413
    120          6           0      -19.626461   -4.893173    1.776719
    121          8           0      -18.935108   -5.856388    1.976410
    122          8           0      -19.791909   -3.952451    2.799063
    123          6           0      -19.141423   -4.237222    4.115734
    124          1           0      -16.488908    1.134604   -0.783244
    125          1           0      -21.783965    4.836196   -0.574473
    126          1           0      -25.313910   -0.362908    0.543645
    127          1           0      -17.420471   -3.177363    0.805890
    128          1           0      -16.095497   -1.330149   -0.969868
    129          1           0      -16.051252   -1.889255    1.885874
    130          1           0      -16.378702   -0.218063    1.601192
    131          1           0      -14.857220   -0.953985    0.867458
    132          1           0      -17.107883   -4.596122   -0.961913
    133          1           0      -16.261209   -3.313956   -1.723670
    134          1           0      -18.717527   -2.754869   -2.648069
    135          1           0      -18.799140   -4.580681   -2.624551
    136          1           0      -16.355589    5.006419   -1.460002
    137          1           0      -16.269470    3.378469   -2.336009
    138          1           0      -15.923341    3.431422   -0.660837
    139          1           0      -21.155674    6.751082   -0.176097
    140          1           0      -21.189544    6.419423   -1.840761
    141          1           0      -20.306795    7.825867   -1.198317
    142          1           0      -24.373541    4.170302   -1.022258
    143          1           0      -25.767006    2.100003    0.518044
    144          1           0      -23.728172    4.691153    1.660370
    145          1           0      -25.424868    4.105210    1.535626
    146          1           0      -24.856800    5.479130    0.650569
    147          1           0      -25.403918    0.967259   -2.004632
    148          1           0      -25.258873    2.704652   -2.297780
    149          1           0      -27.674636    1.300442   -2.342801
    150          1           0      -27.458591    2.988481   -1.973480
    151          1           0      -27.467127    1.733419   -0.611850
    152          1           0      -25.922101   -2.687540    0.591695
    153          1           0      -25.140814   -3.450766    1.987161
    154          1           0      -25.073832   -4.294911    0.457248
    155          1           0      -19.850242   -4.812590   -0.366354
    156          1           0      -19.016936   -5.275656    4.421967
    157          1           0      -19.841409   -3.809780    4.833410
    158          1           0      -18.193802   -3.749088    4.344328
 ---------------------------------------------------------------------

 SCF Done:  E(RPBE1PBE) =  -4067.33766145     A.U. after   17 cycles

 Excitation energies and oscillator strengths:

 Excited State   1:      Singlet-A      1.8621 eV  665.85 nm  f=0.3882  <S**2>=0.000
     310 -> 315       -0.18177
     311 -> 313        0.68862
     311 <- 313       -0.10550
 This state for optimization and/or second-order correction.
 Total Energy, E(TD-HF/TD-DFT) =  -4067.26923226
 Copying the excited state density for this state as the 1-particle RhoCI density.

 Excited State   2:      Singlet-A      1.8700 eV  663.00 nm  f=0.0000  <S**2>=0.000
     312 -> 313        0.70710

 Excited State   3:      Singlet-A      1.9112 eV  648.72 nm  f=0.3953  <S**2>=0.000
     309 -> 316        0.17696
     312 -> 314        0.69109
     312 <- 314       -0.10568

 Excited State   4:      Singlet-A      2.1473 eV  577.38 nm  f=0.0000  <S**2>=0.000
     311 -> 314        0.70711

 Excited State   5:      Singlet-A      2.1541 eV  575.57 nm  f=0.1183  <S**2>=0.000
     310 -> 313        0.65690
     311 -> 315        0.24318

 The electronic state is 1-A.
 Alpha  occ. eigenvalues --  -46.93693 -46.93449 -19.26011 -19.25203 -19.21079
 Alpha  occ. eigenvalues --  -19.20569 -19.19515 -19.18959 -19.18357 -19.18159
 Alpha  occ. eigenvalues --  -14.42501 -14.42337 -14.41820 -14.41295 -14.40002
 Alpha  occ. eigenvalues --  -14.39873 -14.39442 -14.38834 -10.36846 -10.36678
 Alpha  occ. eigenvalues --  -10.32907 -10.32656 -10.32228 -10.30459 -10.30110
 Alpha  occ. eigenvalues --  -10.30098 -10.29452 -10.29100 -10.29054 -10.28721
 Alpha  occ. eigenvalues --  -10.28669 -10.28542 -10.28536 -10.28496 -10.28357
 Alpha  occ. eigenvalues --  -10.28197 -10.27931 -10.27920 -10.27790 -10.27687
 Alpha  occ. eigenvalues --  -10.27623 -10.27619 -10.27048 -10.26850 -10.26732
 Alpha  occ. eigenvalues --  -10.26585 -10.26582 -10.26477 -10.26215 -10.25966
 Alpha  occ. eigenvalues --  -10.25882 -10.25836 -10.25830 -10.25744 -10.25696
 Alpha  occ. eigenvalues --  -10.25662 -10.25606 -10.25579 -10.25497 -10.25461
 Alpha  occ. eigenvalues --  -10.25460 -10.25252 -10.25214 -10.25213 -10.25135
 Alpha  occ. eigenvalues --  -10.25012 -10.24932 -10.24925 -10.24768 -10.24450
 Alpha  occ. eigenvalues --  -10.24374 -10.24172 -10.24132 -10.24055 -10.24026
 Alpha  occ. eigenvalues --  -10.24026 -10.23990 -10.23985 -10.23667 -10.23663
 Alpha  occ. eigenvalues --  -10.23553 -10.23282 -10.23204 -10.23103 -10.23003
 Alpha  occ. eigenvalues --  -10.21873  -3.15573  -3.15509  -1.88410  -1.88337
 Alpha  occ. eigenvalues --   -1.87939  -1.87881  -1.87790  -1.87735  -1.12357
 Alpha  occ. eigenvalues --   -1.10746  -1.04823  -1.04442  -1.04290  -1.03878
 Alpha  occ. eigenvalues --   -1.02057  -1.02054  -1.01392  -1.00332  -0.99420
 Alpha  occ. eigenvalues --   -0.99344  -0.98695  -0.98597  -0.98021  -0.96523
 Alpha  occ. eigenvalues --   -0.88718  -0.87839  -0.84163  -0.83221  -0.83173
 Alpha  occ. eigenvalues --   -0.83024  -0.82984  -0.82865  -0.82620  -0.81927
 Alpha  occ. eigenvalues --   -0.81421  -0.81098  -0.80216  -0.79883  -0.79183
 Alpha  occ. eigenvalues --   -0.78650  -0.78185  -0.77917  -0.77167  -0.77164
 Alpha  occ. eigenvalues --   -0.76152  -0.76017  -0.75106  -0.75009  -0.74775
 Alpha  occ. eigenvalues --   -0.74583  -0.72827  -0.72393  -0.71976  -0.71700
 Alpha  occ. eigenvalues --   -0.71325  -0.71215  -0.70936  -0.70274  -0.70045
 Alpha  occ. eigenvalues --   -0.69780  -0.68068  -0.67732  -0.66878  -0.66692
 Alpha  occ. eigenvalues --   -0.64003  -0.63912  -0.63575  -0.63058  -0.62913
 Alpha  occ. eigenvalues --   -0.62790  -0.62061  -0.61641  -0.61304  -0.60680
 Alpha  occ. eigenvalues --   -0.60157  -0.59989  -0.59793  -0.59405  -0.59283
 Alpha  occ. eigenvalues --   -0.58768  -0.57654  -0.57352  -0.55122  -0.55021
 Alpha  occ. eigenvalues --   -0.54883  -0.54720  -0.54139  -0.54038  -0.53774
 Alpha  occ. eigenvalues --   -0.53551  -0.53172  -0.52732  -0.52710  -0.51661
 Alpha  occ. eigenvalues --   -0.51124  -0.51013  -0.50404  -0.50185  -0.50134
 Alpha  occ. eigenvalues --   -0.49854  -0.49659  -0.49598  -0.49053  -0.48503
 Alpha  occ. eigenvalues --   -0.48443  -0.48266  -0.48156  -0.47807  -0.47525
 Alpha  occ. eigenvalues --   -0.47362  -0.47335  -0.47221  -0.46682  -0.46608
 Alpha  occ. eigenvalues --   -0.46423  -0.46293  -0.46088  -0.46050  -0.45781
 Alpha  occ. eigenvalues --   -0.45741  -0.45626  -0.45473  -0.45202  -0.45148
 Alpha  occ. eigenvalues --   -0.44714  -0.44649  -0.44474  -0.44410  -0.44337
 Alpha  occ. eigenvalues --   -0.44066  -0.43983  -0.43702  -0.43635  -0.43544
 Alpha  occ. eigenvalues --   -0.43473  -0.43214  -0.43135  -0.43094  -0.42899
 Alpha  occ. eigenvalues --   -0.42646  -0.42596  -0.42313  -0.42167  -0.42018
 Alpha  occ. eigenvalues --   -0.41885  -0.41880  -0.41698  -0.41683  -0.41341
 Alpha  occ. eigenvalues --   -0.41278  -0.41126  -0.41085  -0.41083  -0.40788
 Alpha  occ. eigenvalues --   -0.40765  -0.40577  -0.40541  -0.40224  -0.40112
 Alpha  occ. eigenvalues --   -0.40057  -0.39841  -0.39654  -0.39498  -0.39405
 Alpha  occ. eigenvalues --   -0.39010  -0.38799  -0.38655  -0.38624  -0.38388
 Alpha  occ. eigenvalues --   -0.38158  -0.38132  -0.38000  -0.37907  -0.37778
 Alpha  occ. eigenvalues --   -0.37681  -0.37412  -0.37291  -0.37082  -0.37039
 Alpha  occ. eigenvalues --   -0.36957  -0.36841  -0.36398  -0.36298  -0.36200
 Alpha  occ. eigenvalues --   -0.36135  -0.36003  -0.35836  -0.35803  -0.35588
 Alpha  occ. eigenvalues --   -0.35381  -0.35214  -0.34891  -0.34355  -0.34102
 Alpha  occ. eigenvalues --   -0.33812  -0.33484  -0.33258  -0.32821  -0.32688
 Alpha  occ. eigenvalues --   -0.32627  -0.32077  -0.31964  -0.31906  -0.31602
 Alpha  occ. eigenvalues --   -0.31530  -0.31307  -0.30384  -0.30250  -0.30048
 Alpha  occ. eigenvalues --   -0.29408  -0.29084  -0.29011  -0.27427  -0.27080
 Alpha  occ. eigenvalues --   -0.26574  -0.26143  -0.25886  -0.25695  -0.25336
 Alpha  occ. eigenvalues --   -0.25232  -0.25057  -0.24619  -0.21408  -0.21305
 Alpha  occ. eigenvalues --   -0.19626  -0.19177
 Alpha virt. eigenvalues --   -0.11987  -0.11421  -0.05979  -0.05522  -0.04770
 Alpha virt. eigenvalues --   -0.04270  -0.02646  -0.01857  -0.01442  -0.01392
 Alpha virt. eigenvalues --    0.00110   0.00183   0.00528   0.00756   0.01254

 Mulliken charges:
               1
     1  Mg  12.000093
     2  C    5.996967
     3  C    5.974647
     4  C    5.994786
     5  C    6.027535
     6  N    6.989969
     7  C    5.970411
     8  C    6.011216
     9  C    5.988980
    10  C    6.035567
    11  C    5.997186
    12  C    6.001578
    13  C    6.001986
    14  H    0.988581
    15  N    6.994589
    16  C    6.040855
    17  C    6.017464
    18  C    6.012710
    19  C    6.033250
    20  C    6.000102
    21  C    6.009829
    22  O    8.024438
    23  C    5.999403
    24  N    7.014008
    25  C    6.027582
    26  C    5.989162
    27  C    6.006998
    28  C    5.961581
    29  C    6.002788
    30  C    6.001140
    31  C    5.999293
    32  N    6.998231
    33  C    5.964488
    34  C    5.977721
    35  C    5.993090
    36  C    5.981877
    37  C    6.001932
    38  C    5.982344
    39  O    7.966777
    40  C    6.005887
    41  C    5.995077
    42  O    7.995873
    43  O    7.996834
    44  C    6.003475
    45  H    1.004217
    46  H    1.010967
    47  H    0.995544
    48  H    0.998748
    49  H    1.001275
    50  H    1.003521
    51  H    1.010927
    52  H    0.992774
    53  H    0.988628
    54  H    1.005888
    55  H    1.001751
    56  H    0.998518
    57  H    1.012941
    58  H    1.015545
    59  H    1.018257
    60  H    1.009259
    61  H    1.007619
    62  H    1.013136
    63  H    1.001514
    64  H    1.000384
    65  H    1.012883
    66  H    1.000887
    67  H    0.997682
    68  H    1.007294
    69  H    0.990664
    70  H    0.996120
    71  H    0.996096
    72  H    1.002474
    73  H    0.986468
    74  H    0.981836
    75  H    0.983403
    76  H    0.988838
    77  H    0.997090
    78  H    0.993124
    79  H    0.995431
    80  Mg  12.000031
    81  C    5.999997
    82  C    5.999861
    83  C    5.999830
    84  C    6.000113
    85  N    6.999976
    86  C    5.999775
    87  C    6.000128
    88  C    5.999875
    89  C    6.000305
    90  C    5.999973
    91  C    5.999972
    92  C    6.000090
    93  H    0.999913
    94  N    6.999953
    95  C    6.000517
    96  C    6.000413
    97  C    6.000091
    98  C    6.000399
    99  C    5.999924
   100  C    6.000082
   101  O    8.000262
   102  C    5.999962
   103  N    7.000054
   104  C    6.000253
   105  C    5.999893
   106  C    6.000063
   107  C    5.999670
   108  C    6.000000
   109  C    6.000099
   110  C    6.000003
   111  N    7.000016
   112  C    5.999579
   113  C    5.999629
   114  C    5.999838
   115  C    5.999781
   116  C    6.000058
   117  C    5.999840
   118  O    7.999540
   119  C    6.000043
   120  C    5.999970
   121  O    7.999917
   122  O    8.000032
   123  C    6.000044
   124  H    1.000182
   125  H    1.000046
   126  H    0.999873
   127  H    1.000015
   128  H    1.000073
   129  H    1.000163
   130  H    0.999952
   131  H    1.000141
   132  H    1.000023
   133  H    0.999972
   134  H    0.999940
   135  H    1.000008
   136  H    1.000223
   137  H    1.000269
   138  H    1.000317
   139  H    1.000110
   140  H    1.000077
   141  H    1.000135
   142  H    0.999969
   143  H    0.999978
   144  H    0.999987
   145  H    1.000064
   146  H    0.999971
   147  H    1.000036
   148  H    0.999841
   149  H    0.999948
   150  H    0.999904
   151  H    0.999995
   152  H    0.999742
   153  H    0.999770
   154  H    0.999793
   155  H    0.999887
   156  H    0.999940
   157  H    0.999946
   158  H    0.999949
 Sum of Mulliken charges = 624.00000

 Dipole moment (field-independent basis, Debye):
    X=              9.0185    Y=             -4.9287    Z=             -2.0818  Tot=             10.4861
 Quadrupole moment (field-independent basis, Debye-Ang):
   XX=            375.2596   YY=              1.6223   ZZ=             -2.7618
   XY=           -111.6310   XZ=            -42.5316   YZ=             -1.7464

 Normal termination of Gaussian 16 at Thu Oct 14 18:07:20 2021.
