 Gaussian 16, Revision A.03,
 Gaussian 16:  ES64L-G16RevA.03 25-Dec-2016

 --------------------------------------------------------
 #p PBE1PBE/Def2SVP td=(nstates=5) density=(transition=1)
 --------------------------------------------------------

 --------------------------------
 TDDFT excited states in gaussian
 --------------------------------
 Symbolic Z-matrix:
 Charge =  0 Multiplicity = 1

                         Standard orientation:
 ---------------------------------------------------------------------
 Center     Atomic      Atomic             Coordinates (Angstroms)
 Number     Number       Type             X           Y           Z
 ---------------------------------------------------------------------
      1         12           0      -28.177208   -0.194650   -0.408608
      2          6           0      -25.061175    0.937990    0.574763
      3          6           0      -27.592686   -3.163599    1.445171
      4          6           0      -31.442122   -1.138084   -0.847284
      5          6           0      -28.920782    2.877188   -1.801417
      6          7           0      -26.449191   -1.026554    0.739529
      7          6           0      -25.316442   -0.320645    1.086427
      8          6           0      -24.417027   -1.043085    2.158236
      9          6           0      -25.035885   -2.519441    2.118872
     10          6           0      -26.455250   -2.298894    1.351117
     11          6           0      -24.197547   -3.690013    1.477504
     12          6           0      -24.454111   -0.450048    3.522729
     13          6           0      -23.195251    0.101749    4.163803
     14          1           0      -23.142513    0.051458    5.699201
     15          7           0      -29.336073   -1.974283    0.140060
     16          6           0      -28.839069   -3.077103    0.859890
     17          6           0      -29.843621   -4.089409    0.939599
     18          6           0      -31.065721   -3.441011    0.395750
     19          6           0      -30.671168   -2.100657   -0.138063
     20          6           0      -29.679961   -5.404333    1.708960
     21          6           0      -32.427281   -4.157406    0.416038
     22          8           0      -32.676449   -5.267642    0.876923
     23          6           0      -33.631124   -3.326345    0.145100
     24          7           0      -30.065992    0.838339   -1.083335
     25          6           0      -31.185778    0.141560   -1.320444
     26          6           0      -32.273130    1.164848   -1.644933
     27          6           0      -31.495019    2.499182   -2.061478
     28          6           0      -30.018038    2.062571   -1.651848
     29          6           0      -33.112453    0.669716   -2.875684
     30          6           0      -31.905518    3.885396   -1.414611
     31          6           0      -32.502737    4.991870   -2.271151
     32          7           0      -27.160305    1.581986   -0.667796
     33          6           0      -27.573424    2.761931   -1.294325
     34          6           0      -26.548518    3.754915   -1.188154
     35          6           0      -25.509496    3.108244   -0.450036
     36          6           0      -25.960792    1.751043   -0.215521
     37          6           0      -26.555919    5.161290   -1.698824
     38          6           0      -24.210882    3.211610    0.075434
     39          8           0      -23.463608    4.168640    0.039681
     40          6           0      -23.891677    1.861030    0.826133
     41          6           0      -22.532112    1.432384    0.462117
     42          8           0      -21.568916    1.540291    1.212607
     43          8           0      -22.518966    0.931323   -0.831043
     44          6           0      -21.169155    0.521323   -1.279292
     45          1           0      -27.512187   -4.131145    1.944134
     46          1           0      -32.437599   -1.553360   -1.020002
     47          1           0      -29.190075    3.853771   -2.208814
     48          1           0      -23.386780   -1.071822    1.805166
     49          1           0      -25.311089   -2.764660    3.145283
     50          1           0      -23.178349   -3.323087    1.356668
     51          1           0      -24.581020   -4.054297    0.524340
     52          1           0      -24.257171   -4.533929    2.163769
     53          1           0      -24.757563   -1.252658    4.196604
     54          1           0      -25.151583    0.386598    3.545197
     55          1           0      -23.144627    1.164716    3.929730
     56          1           0      -22.289466   -0.420409    3.856417
     57          1           0      -28.782447   -5.613765    2.290516
     58          1           0      -29.865745   -6.143820    0.930412
     59          1           0      -30.607418   -5.473982    2.276457
     60          1           0      -33.991246   -3.215504   -0.876804
     61          1           0      -33.574998   -2.349957    0.626602
     62          1           0      -34.463898   -3.845844    0.620593
     63          1           0      -32.940814    1.354650   -0.804224
     64          1           0      -31.451379    2.584661   -3.146681
     65          1           0      -34.161704    0.750146   -2.591634
     66          1           0      -32.895398   -0.343641   -3.215814
     67          1           0      -32.949149    1.264477   -3.774696
     68          1           0      -30.984591    4.238053   -0.950777
     69          1           0      -32.687037    3.638979   -0.694519
     70          1           0      -32.288260    5.913642   -1.729789
     71          1           0      -33.585812    4.870353   -2.298842
     72          1           0      -32.139193    5.153482   -3.285401
     73          1           0      -25.590581    5.584224   -1.419475
     74          1           0      -27.413028    5.662294   -1.249892
     75          1           0      -26.637958    5.262441   -2.781166
     76          1           0      -23.869345    2.153542    1.876456
     77          1           0      -20.662034    1.360145   -1.755941
     78          1           0      -21.318673   -0.358842   -1.904597
     79          1           0      -20.559169    0.160806   -0.451501
     80         12           0       27.952867    0.451898   -0.385830
     81          6           0       25.898548   -2.240775   -0.074230
     82          6           0       25.259692    2.519469    0.604344
     83          6           0       30.174511    2.837855    0.339219
     84          6           0       30.759511   -1.772305   -0.853052
     85          7           0       25.869927    0.131677    0.153048
     86          6           0       25.212787   -0.977128    0.239301
     87          6           0       23.664829   -0.770980    0.401964
     88          6           0       23.460863    0.789901    0.323100
     89          6           0       24.962204    1.240716    0.324388
     90          6           0       22.518717    1.298369   -0.768988
     91          6           0       23.080970   -1.498157    1.753715
     92          6           0       24.037410   -1.782046    2.900620
     93          1           0       23.506125   -2.035120    4.311491
     94          7           0       27.731394    2.405504    0.377507
     95          6           0       26.574210    3.093641    0.652791
     96          6           0       26.887950    4.366593    1.139155
     97          6           0       28.329854    4.500941    1.121442
     98          6           0       28.831401    3.190673    0.629612
     99          6           0       25.798452    5.389596    1.403482
    100          6           0       29.085709    5.768176    1.560323
    101          8           0       28.408164    6.741756    1.959663
    102          6           0       30.510131    5.936853    1.556211
    103          7           0       30.230799    0.485477   -0.115068
    104          6           0       30.800847    1.652375   -0.011897
    105          6           0       32.343262    1.595030   -0.202794
    106          6           0       32.536326    0.126178   -0.638891
    107          6           0       31.085442   -0.501122   -0.570515
    108          6           0       32.875618    2.540177   -1.218669
    109          6           0       33.616241   -0.650100    0.252533
    110          6           0       34.969590   -1.039410   -0.472718
    111          7           0       28.326717   -1.566505   -0.575654
    112          6           0       29.469229   -2.346379   -0.794422
    113          6           0       29.054501   -3.779782   -0.902750
    114          6           0       27.689711   -3.747567   -0.583043
    115          6           0       27.288175   -2.397385   -0.357951
    116          6           0       29.862243   -4.949319   -1.192321
    117          6           0       26.618417   -4.609152   -0.372655
    118          8           0       26.476074   -5.837907   -0.455940
    119          6           0       25.392582   -3.684038   -0.127746
    120          6           0       24.315219   -4.023196   -1.185167
    121          8           0       23.149624   -4.321767   -0.988215
    122          8           0       24.807310   -3.952802   -2.470543
    123          6           0       23.893273   -4.290643   -3.568108
    124          1           0       24.383562    3.064718    0.961049
    125          1           0       30.934929    3.618649    0.403801
    126          1           0       31.587548   -2.412600   -1.163877
    127          1           0       23.212796   -1.137127   -0.520216
    128          1           0       23.084754    1.203023    1.259550
    129          1           0       23.082575    1.881865   -1.496531
    130          1           0       21.743039    1.954221   -0.371969
    131          1           0       21.939506    0.534366   -1.287637
    132          1           0       22.619442   -2.389931    1.328993
    133          1           0       22.323371   -0.931980    2.295981
    134          1           0       24.675803   -0.898971    2.907901
    135          1           0       24.655722   -2.610859    2.555393
    136          1           0       25.828199    6.356599    0.900692
    137          1           0       25.704784    5.525593    2.481156
    138          1           0       24.837567    4.962674    1.116834
    139          1           0       31.028225    5.868775    0.599796
    140          1           0       30.990246    5.114232    2.085244
    141          1           0       30.848085    6.818917    2.099239
    142          1           0       32.984011    1.816558    0.650609
    143          1           0       32.782306    0.019601   -1.695480
    144          1           0       33.386020    3.413799   -0.813537
    145          1           0       32.060290    3.037933   -1.744845
    146          1           0       33.547033    2.019500   -1.901260
    147          1           0       33.187941   -1.612897    0.534537
    148          1           0       33.979905   -0.087318    1.111193
    149          1           0       35.813352   -0.782306    0.166413
    150          1           0       35.081947   -0.388845   -1.340133
    151          1           0       34.928787   -2.124084   -0.574009
    152          1           0       30.651796   -4.575496   -1.844632
    153          1           0       29.276141   -5.699526   -1.724356
    154          1           0       30.148559   -5.367151   -0.227612
    155          1           0       24.798539   -3.978222    0.737204
    156          1           0       24.489246   -4.608628   -4.423773
    157          1           0       23.264276   -3.499684   -3.976253
    158          1           0       23.143432   -5.036547   -3.302909
 ---------------------------------------------------------------------

 SCF Done:  E(RPBE1PBE) =  -4067.33059599     A.U. after   24 cycles

 Excitation energies and oscillator strengths:

 Excited State   1:      Singlet-A      1.8537 eV  668.86 nm  f=0.4047  <S**2>=0.000
     309 -> 316       -0.15848
     312 -> 314        0.69692
     312 <- 314       -0.12235
 This state for optimization and/or second-order correction.
 Total Energy, E(TD-HF/TD-DFT) =  -4067.26247460
 Copying the excited state density for this state as the 1-particle RhoCI density.

 Excited State   2:      Singlet-A      1.8863 eV  657.30 nm  f=0.0000  <S**2>=0.000
     312 -> 313        0.70711

 Excited State   3:      Singlet-A      2.0673 eV  599.74 nm  f=0.0000  <S**2>=0.000
     311 -> 314        0.70711

 Excited State   4:      Singlet-A      2.5608 eV  484.16 nm  f=0.0000  <S**2>=0.000
     310 -> 314        0.70711

 Excited State   5:      Singlet-A      2.5624 eV  483.86 nm  f=0.0000  <S**2>=0.000
     309 -> 313        0.70711

 The electronic state is 1-A.
 Alpha  occ. eigenvalues --  -46.93861 -46.93706 -19.25824 -19.25474 -19.20303
 Alpha  occ. eigenvalues --  -19.20142 -19.19160 -19.19011 -19.18792 -19.17855
 Alpha  occ. eigenvalues --  -14.42955 -14.42691 -14.41548 -14.41398 -14.40104
 Alpha  occ. eigenvalues --  -14.39632 -14.39629 -14.39596 -10.36726 -10.36200
 Alpha  occ. eigenvalues --  -10.32243 -10.31641 -10.31584 -10.31536 -10.30678
 Alpha  occ. eigenvalues --  -10.30542 -10.29545 -10.29509 -10.29250 -10.29245
 Alpha  occ. eigenvalues --  -10.28859 -10.28773 -10.28768 -10.28678 -10.28677
 Alpha  occ. eigenvalues --  -10.28587 -10.28564 -10.28207 -10.27829 -10.27810
 Alpha  occ. eigenvalues --  -10.27233 -10.27187 -10.27123 -10.27062 -10.27037
 Alpha  occ. eigenvalues --  -10.27007 -10.26962 -10.26510 -10.26490 -10.26321
 Alpha  occ. eigenvalues --  -10.26297 -10.26290 -10.26279 -10.26217 -10.26153
 Alpha  occ. eigenvalues --  -10.26097 -10.25843 -10.25771 -10.25676 -10.25619
 Alpha  occ. eigenvalues --  -10.25542 -10.25136 -10.25119 -10.25054 -10.25037
 Alpha  occ. eigenvalues --  -10.24804 -10.24803 -10.24789 -10.24755 -10.24742
 Alpha  occ. eigenvalues --  -10.24386 -10.24381 -10.24126 -10.24120 -10.23922
 Alpha  occ. eigenvalues --  -10.23830 -10.23692 -10.23666 -10.23577 -10.23519
 Alpha  occ. eigenvalues --  -10.23391 -10.23076 -10.23071 -10.22958 -10.22631
 Alpha  occ. eigenvalues --  -10.22556  -3.15695  -3.15663  -1.88530  -1.88511
 Alpha  occ. eigenvalues --   -1.88102  -1.88011  -1.87886  -1.87882  -1.10845
 Alpha  occ. eigenvalues --   -1.10344  -1.04757  -1.04632  -1.03590  -1.02520
 Alpha  occ. eigenvalues --   -1.02374  -1.02135  -0.99673  -0.99591  -0.99109
 Alpha  occ. eigenvalues --   -0.98768  -0.98194  -0.97118  -0.97053  -0.96259
 Alpha  occ. eigenvalues --   -0.87230  -0.87045  -0.84024  -0.83774  -0.83726
 Alpha  occ. eigenvalues --   -0.83633  -0.83322  -0.82490  -0.82448  -0.82087
 Alpha  occ. eigenvalues --   -0.82018  -0.81713  -0.79949  -0.79749  -0.79000
 Alpha  occ. eigenvalues --   -0.78721  -0.78421  -0.78216  -0.77216  -0.77151
 Alpha  occ. eigenvalues --   -0.76815  -0.76373  -0.75679  -0.75264  -0.75117
 Alpha  occ. eigenvalues --   -0.74553  -0.72843  -0.72256  -0.71702  -0.71480
 Alpha  occ. eigenvalues --   -0.71250  -0.71184  -0.70644  -0.70518  -0.69864
 Alpha  occ. eigenvalues --   -0.69707  -0.68024  -0.67837  -0.66735  -0.66428
 Alpha  occ. eigenvalues --   -0.63971  -0.63777  -0.63555  -0.63267  -0.62750
 Alpha  occ. eigenvalues --   -0.62418  -0.61534  -0.61372  -0.60412  -0.60142
 Alpha  occ. eigenvalues --   -0.60074  -0.59896  -0.59767  -0.59359  -0.59319
 Alpha  occ. eigenvalues --   -0.59105  -0.57829  -0.57602  -0.55398  -0.54816
 Alpha  occ. eigenvalues --   -0.54577  -0.54389  -0.54022  -0.53685  -0.53579
 Alpha  occ. eigenvalues --   -0.53160  -0.52660  -0.52453  -0.51688  -0.51502
 Alpha  occ. eigenvalues --   -0.51146  -0.51015  -0.50509  -0.50254  -0.50019
 Alpha  occ. eigenvalues --   -0.49978  -0.49350  -0.49283  -0.48959  -0.48509
 Alpha  occ. eigenvalues --   -0.48414  -0.48292  -0.48042  -0.47823  -0.47764
 Alpha  occ. eigenvalues --   -0.47488  -0.47395  -0.47335  -0.47116  -0.47030
 Alpha  occ. eigenvalues --   -0.46727  -0.46704  -0.46139  -0.46095  -0.45955
 Alpha  occ. eigenvalues --   -0.45711  -0.45686  -0.45545  -0.45303  -0.44974
 Alpha  occ. eigenvalues --   -0.44841  -0.44811  -0.44503  -0.44314  -0.44182
 Alpha  occ. eigenvalues --   -0.44180  -0.43871  -0.43661  -0.43645  -0.43541
 Alpha  occ. eigenvalues --   -0.43424  -0.43354  -0.43272  -0.43011  -0.42966
 Alpha  occ. eigenvalues --   -0.42675  -0.42385  -0.42345  -0.42099  -0.41932
 Alpha  occ. eigenvalues --   -0.41897  -0.41767  -0.41548  -0.41456  -0.41369
 Alpha  occ. eigenvalues --   -0.41340  -0.40998  -0.40808  -0.40761  -0.40670
 Alpha  occ. eigenvalues --   -0.40513  -0.40489  -0.40366  -0.40167  -0.40063
 Alpha  occ. eigenvalues --   -0.39974  -0.39830  -0.39581  -0.39449  -0.39320
 Alpha  occ. eigenvalues --   -0.39318  -0.39146  -0.39030  -0.38680  -0.38558
 Alpha  occ. eigenvalues --   -0.38495  -0.38494  -0.37783  -0.37604  -0.37543
 Alpha  occ. eigenvalues --   -0.37471  -0.37288  -0.37190  -0.37039  -0.36845
 Alpha  occ. eigenvalues --   -0.36741  -0.36430  -0.36395  -0.36352  -0.36039
 Alpha  occ. eigenvalues --   -0.35821  -0.35702  -0.35567  -0.35314  -0.34987
 Alpha  occ. eigenvalues --   -0.34958  -0.34744  -0.34669  -0.34409  -0.34015
 Alpha  occ. eigenvalues --   -0.33590  -0.33377  -0.33035  -0.32880  -0.32877
 Alpha  occ. eigenvalues --   -0.32458  -0.32211  -0.31836  -0.31785  -0.31574
 Alpha  occ. eigenvalues --   -0.31300  -0.30936  -0.29783  -0.29778  -0.29627
 Alpha  occ. eigenvalues --   -0.29361  -0.29290  -0.28770  -0.27440  -0.27143
 Alpha  occ. eigenvalues --   -0.26383  -0.26110  -0.25854  -0.25819  -0.25562
 Alpha  occ. eigenvalues --   -0.25046  -0.25031  -0.24834  -0.21801  -0.21582
 Alpha  occ. eigenvalues --   -0.19768  -0.19316
 Alpha virt. eigenvalues --   -0.12148  -0.11935  -0.05867  -0.05427  -0.04189
 Alpha virt. eigenvalues --   -0.04144  -0.02359  -0.02234  -0.02037  -0.00403
 Alpha virt. eigenvalues --    0.00366   0.00487   0.00617   0.00844   0.01423

 Mulliken charges:
               1
     1  Mg  12.000045
     2  C    6.000524
     3  C    6.000012
     4  C    5.999367
     5  C    5.999916
     6  N    7.000319
     7  C    5.999359
     8  C    6.000178
     9  C    5.999923
    10  C    6.000486
    11  C    5.999909
    12  C    5.999979
    13  C    6.000032
    14  H    0.999930
    15  N    6.999815
    16  C    6.000686
    17  C    6.000413
    18  C    6.000202
    19  C    6.000752
    20  C    5.999915
    21  C    6.000206
    22  O    8.000385
    23  C    5.999877
    24  N    6.999809
    25  C    6.000694
    26  C    5.999841
    27  C    6.000056
    28  C    5.999575
    29  C    5.999965
    30  C    6.000073
    31  C    6.000026
    32  N    7.000032
    33  C    5.999358
    34  C    5.999564
    35  C    5.999905
    36  C    5.999424
    37  C    6.000041
    38  C    5.999664
    39  O    7.999405
    40  C    5.999957
    41  C    5.999905
    42  O    7.999869
    43  O    8.000047
    44  C    6.000041
    45  H    1.000269
    46  H    1.000001
    47  H    0.999739
    48  H    1.000067
    49  H    1.000037
    50  H    1.000274
    51  H    1.000021
    52  H    1.000057
    53  H    0.999860
    54  H    1.000082
    55  H    1.000110
    56  H    0.999993
    57  H    1.000296
    58  H    1.000315
    59  H    1.000255
    60  H    1.000254
    61  H    1.000181
    62  H    1.000192
    63  H    1.000008
    64  H    0.999983
    65  H    0.999988
    66  H    0.999905
    67  H    1.000111
    68  H    1.000120
    69  H    0.999796
    70  H    0.999968
    71  H    0.999862
    72  H    0.999987
    73  H    0.999771
    74  H    0.999670
    75  H    0.999647
    76  H    0.999890
    77  H    0.999991
    78  H    0.999907
    79  H    0.999910
    80  Mg  12.001267
    81  C    5.983735
    82  C    5.965494
    83  C    6.007132
    84  C    6.029609
    85  N    6.979674
    86  C    5.977772
    87  C    6.005888
    88  C    5.989144
    89  C    6.044351
    90  C    6.000564
    91  C    6.001231
    92  C    6.007770
    93  H    0.989431
    94  N    7.000673
    95  C    6.048827
    96  C    6.010001
    97  C    6.019404
    98  C    6.028106
    99  C    5.994338
   100  C    6.012858
   101  O    8.025754
   102  C    5.992523
   103  N    7.020779
   104  C    6.014939
   105  C    5.990645
   106  C    6.004634
   107  C    5.966079
   108  C    5.998343
   109  C    6.000080
   110  C    6.000259
   111  N    6.996632
   112  C    5.954555
   113  C    5.976503
   114  C    5.991364
   115  C    5.985077
   116  C    6.001369
   117  C    5.981568
   118  O    7.964919
   119  C    6.006982
   120  C    5.994782
   121  O    7.987784
   122  O    8.004209
   123  C    6.004321
   124  H    1.005884
   125  H    1.013531
   126  H    0.996105
   127  H    0.999648
   128  H    0.999493
   129  H    0.997819
   130  H    0.999788
   131  H    1.010339
   132  H    1.002843
   133  H    0.990858
   134  H    0.989409
   135  H    1.011110
   136  H    1.015367
   137  H    1.017244
   138  H    1.019354
   139  H    1.011326
   140  H    1.009718
   141  H    1.014253
   142  H    1.003559
   143  H    1.002149
   144  H    0.999274
   145  H    0.996780
   146  H    1.011912
   147  H    1.006633
   148  H    0.993069
   149  H    0.997356
   150  H    0.996310
   151  H    1.004320
   152  H    0.983737
   153  H    0.988141
   154  H    0.981906
   155  H    0.987537
   156  H    0.996021
   157  H    0.990606
   158  H    0.995235
 Sum of Mulliken charges = 624.00000

 Dipole moment (field-independent basis, Debye):
    X=              0.8516    Y=             10.4973    Z=              2.0561  Tot=             10.7306
 Quadrupole moment (field-independent basis, Debye-Ang):
   XX=             54.6943   YY=              6.8822   ZZ=             -0.4780
   XY=            301.4944   XZ=             55.4442   YZ=              3.0440

 Normal termination of Gaussian 16 at Fri Oct 15 07:03:03 2021.
