 Gaussian 16, Revision A.03,
 Gaussian 16:  ES64L-G16RevA.03 25-Dec-2016

 --------------------------------------------------------
 #p PBE1PBE/Def2SVP td=(nstates=5) density=(transition=1)
 --------------------------------------------------------

 --------------------------------
 TDDFT excited states in gaussian
 --------------------------------
 Symbolic Z-matrix:
 Charge =  0 Multiplicity = 1

                         Standard orientation:
 ---------------------------------------------------------------------
 Center     Atomic      Atomic             Coordinates (Angstroms)
 Number     Number       Type             X           Y           Z
 ---------------------------------------------------------------------
      1         12           0       16.313751    0.621978   -0.063308
      2          6           0       15.176962   -2.331623    1.421985
      3          6           0       13.706614    2.271891    1.481799
      4          6           0       16.935972    3.355286   -2.010852
      5          6           0       18.440769   -1.274681   -2.030910
      6          7           0       14.744768    0.012559    1.334451
      7          6           0       14.620147   -1.170442    1.949506
      8          6           0       13.660627   -1.172255    3.148550
      9          6           0       13.039807    0.273964    3.051386
     10          6           0       13.954362    0.993031    1.910484
     11          6           0       11.532152    0.376154    2.734799
     12          6           0       14.319951   -1.483187    4.492403
     13          6           0       13.350946   -2.100768    5.516952
     14          1           0       11.881284   -2.313430    5.127381
     15          7           0       15.537642    2.576970   -0.180644
     16          6           0       14.482740    3.100281    0.602106
     17          6           0       14.309806    4.497029    0.256835
     18          6           0       15.211892    4.823113   -0.823548
     19          6           0       15.969992    3.590108   -1.030009
     20          6           0       13.376872    5.379011    1.040171
     21          6           0       15.507622    6.216279   -1.540474
     22          8           0       16.395132    6.384382   -2.341199
     23          6           0       14.588982    7.363625   -1.180263
     24          7           0       17.431510    0.961974   -1.816385
     25          6           0       17.577890    2.174345   -2.424514
     26          6           0       18.589047    2.119628   -3.628367
     27          6           0       19.075094    0.673757   -3.542422
     28          6           0       18.261622    0.092986   -2.401114
     29          6           0       18.177616    2.605059   -5.076569
     30          6           0       20.596522    0.609242   -3.271485
     31          6           0       21.103454    0.761495   -1.820194
     32          7           0       16.895511   -1.383961   -0.223305
     33          6           0       17.771574   -2.017309   -1.066248
     34          6           0       17.829724   -3.414772   -0.795980
     35          6           0       16.784203   -3.615069    0.213460
     36          6           0       16.276865   -2.401919    0.473760
     37          6           0       18.657120   -4.482529   -1.361805
     38          6           0       16.016575   -4.602572    0.959494
     39          8           0       16.185380   -5.821639    1.069917
     40          6           0       14.941116   -3.840649    1.788630
     41          6           0       13.594040   -4.306148    1.475068
     42          8           0       12.938297   -4.004536    0.483466
     43          8           0       13.253520   -5.313977    2.342041
     44          6           0       12.147900   -6.230074    2.000798
     45          1           0       12.842347    2.703317    1.991489
     46          1           0       17.271829    4.264886   -2.513070
     47          1           0       19.179076   -1.861389   -2.581414
     48          1           0       12.809120   -1.831085    2.979826
     49          1           0       13.271096    0.902669    3.910490
     50          1           0       11.205389    1.014474    3.555505
     51          1           0       11.059399   -0.604138    2.790162
     52          1           0       11.377820    0.800225    1.742531
     53          1           0       14.791559   -0.604276    4.930288
     54          1           0       15.136407   -2.192584    4.354653
     55          1           0       13.441897   -1.383185    6.332630
     56          1           0       13.746115   -3.022353    5.946683
     57          1           0       12.807962    4.703737    1.679374
     58          1           0       12.734258    5.921238    0.346203
     59          1           0       13.898526    6.126259    1.640048
     60          1           0       13.585766    7.350137   -1.607506
     61          1           0       15.106580    8.290816   -1.426228
     62          1           0       14.537338    7.273354   -0.095291
     63          1           0       19.341263    2.832345   -3.291041
     64          1           0       18.831660    0.212137   -4.498687
     65          1           0       18.428924    1.911143   -5.877841
     66          1           0       18.737684    3.512822   -5.298788
     67          1           0       17.118340    2.862310   -5.049289
     68          1           0       21.032735    1.379384   -3.906493
     69          1           0       20.906817   -0.353624   -3.678389
     70          1           0       21.984486    1.396948   -1.906412
     71          1           0       21.433806   -0.177773   -1.377231
     72          1           0       20.357901    1.137668   -1.120548
     73          1           0       18.970942   -5.125873   -0.540521
     74          1           0       19.535750   -4.154147   -1.917114
     75          1           0       18.037098   -5.160722   -1.948367
     76          1           0       15.222460   -4.034463    2.823598
     77          1           0       11.656804   -5.953270    1.067248
     78          1           0       11.403943   -6.159850    2.794713
     79          1           0       12.680536   -7.178476    1.940012
     80         12           0      -16.070157    0.465568    0.352040
     81          6           0      -15.271637   -2.618503   -1.042334
     82          6           0      -12.891543    0.539373    1.735749
     83          6           0      -16.484151    3.613705    1.270218
     84          6           0      -19.005952    0.504371   -1.480480
     85          7           0      -14.240967   -0.790173    0.219833
     86          6           0      -14.193938   -2.071327   -0.290390
     87          6           0      -12.913536   -2.781518    0.035959
     88          6           0      -12.351288   -1.893714    1.232192
     89          6           0      -13.160532   -0.616007    1.053739
     90          6           0      -12.203721   -2.467621    2.720799
     91          6           0      -11.921411   -3.006682   -1.197329
     92          6           0      -11.910011   -1.930983   -2.323909
     93          1           0      -10.533739   -1.589547   -2.842462
     94          7           0      -14.815433    1.936619    1.264839
     95          6           0      -13.526083    1.753260    1.779789
     96          6           0      -12.987470    2.979083    2.302181
     97          6           0      -14.027356    3.928337    2.158535
     98          6           0      -15.175167    3.214994    1.523219
     99          6           0      -11.675454    2.971569    3.088307
    100          6           0      -13.872609    5.385717    2.649685
    101          8           0      -12.806116    5.815775    3.100691
    102          6           0      -15.087029    6.213900    2.600382
    103          7           0      -17.505505    1.853490   -0.183569
    104          6           0      -17.582760    3.011109    0.572362
    105          6           0      -18.890156    3.798903    0.336130
    106          6           0      -19.540852    2.841464   -0.744652
    107          6           0      -18.632899    1.698745   -0.857893
    108          6           0      -19.797796    4.081100    1.491550
    109          6           0      -19.699037    3.540198   -2.188666
    110          6           0      -21.067743    3.289149   -2.765813
    111          7           0      -17.110261   -0.868640   -0.864649
    112          6           0      -18.303704   -0.707726   -1.543842
    113          6           0      -18.604910   -1.926486   -2.329151
    114          6           0      -17.418682   -2.720867   -2.154147
    115          6           0      -16.578411   -2.024608   -1.277525
    116          6           0      -19.669308   -2.191324   -3.314934
    117          6           0      -16.673550   -3.936857   -2.543907
    118          8           0      -16.964192   -4.787409   -3.352903
    119          6           0      -15.290974   -3.935527   -1.815678
    120          6           0      -15.129555   -5.159364   -1.029753
    121          8           0      -14.296847   -6.060798   -1.129893
    122          8           0      -16.311627   -5.309395   -0.258122
    123          6           0      -16.327128   -6.468283    0.660053
    124          1           0      -11.999115    0.412017    2.352868
    125          1           0      -16.813616    4.570121    1.681240
    126          1           0      -19.985303    0.585831   -1.955350
    127          1           0      -13.121384   -3.794745    0.379687
    128          1           0      -11.343385   -1.693528    0.867787
    129          1           0      -12.422175   -3.528185    2.844361
    130          1           0      -12.881676   -2.006242    3.438739
    131          1           0      -11.152867   -2.444500    3.010672
    132          1           0      -12.062394   -3.998371   -1.625929
    133          1           0      -10.921359   -3.071929   -0.768747
    134          1           0      -12.413445   -1.021898   -1.993528
    135          1           0      -12.468096   -2.294842   -3.186167
    136          1           0      -11.105938    3.897593    3.003265
    137          1           0      -11.007385    2.224728    2.660140
    138          1           0      -11.957051    2.817016    4.130168
    139          1           0      -15.782307    5.853008    3.357719
    140          1           0      -15.511131    6.186030    1.596168
    141          1           0      -14.750996    7.219288    2.853945
    142          1           0      -18.632311    4.691189   -0.234823
    143          1           0      -20.417223    2.461136   -0.219878
    144          1           0      -20.727330    4.446594    1.054798
    145          1           0      -19.378072    4.934284    2.024510
    146          1           0      -19.903337    3.195966    2.119966
    147          1           0      -18.893097    3.147360   -2.808402
    148          1           0      -19.475185    4.605838   -2.251953
    149          1           0      -20.951877    2.620367   -3.618356
    150          1           0      -21.468187    4.163326   -3.280270
    151          1           0      -21.681488    2.754308   -2.041280
    152          1           0      -20.385474   -1.383058   -3.470259
    153          1           0      -20.244346   -3.025184   -2.913807
    154          1           0      -19.078642   -2.236614   -4.229680
    155          1           0      -14.559819   -3.881474   -2.621931
    156          1           0      -16.715720   -6.022512    1.576404
    157          1           0      -15.410160   -7.003993    0.905743
    158          1           0      -17.162977   -7.075441    0.311972
 ---------------------------------------------------------------------

 SCF Done:  E(RPBE1PBE) =  -4067.39172970     A.U. after   16 cycles

 Excitation energies and oscillator strengths:

 Excited State   1:      Singlet-A      1.8709 eV  662.72 nm  f=0.2972  <S**2>=0.000
     309 -> 315       -0.17333
     311 -> 314        0.67597
     312 -> 313       -0.13848
     311 <- 314       -0.10185
 This state for optimization and/or second-order correction.
 Total Energy, E(TD-HF/TD-DFT) =  -4067.32297716
 Copying the excited state density for this state as the 1-particle RhoCI density.

 Excited State   2:      Singlet-A      1.8757 eV  661.01 nm  f=0.4516  <S**2>=0.000
     310 -> 316       -0.17124
     311 -> 314        0.13812
     312 -> 313        0.67686
     312 <- 313       -0.10713

 Excited State   3:      Singlet-A      1.9616 eV  632.07 nm  f=0.0000  <S**2>=0.000
     311 -> 313        0.70710

 Excited State   4:      Singlet-A      1.9811 eV  625.83 nm  f=0.0000  <S**2>=0.000
     312 -> 314        0.70710

 Excited State   5:      Singlet-A      2.1488 eV  577.00 nm  f=0.1402  <S**2>=0.000
     310 -> 313        0.66653
     312 -> 316        0.21046

 The electronic state is 1-A.
 Alpha  occ. eigenvalues --  -46.92498 -46.91638 -19.25014 -19.24529 -19.20757
 Alpha  occ. eigenvalues --  -19.20042 -19.19183 -19.19180 -19.19108 -19.18976
 Alpha  occ. eigenvalues --  -14.41754 -14.41685 -14.41673 -14.41445 -14.39248
 Alpha  occ. eigenvalues --  -14.39061 -14.38889 -14.37893 -10.36736 -10.35628
 Alpha  occ. eigenvalues --  -10.33239 -10.32351 -10.32261 -10.32180 -10.29332
 Alpha  occ. eigenvalues --  -10.28965 -10.28573 -10.28571 -10.28524 -10.28421
 Alpha  occ. eigenvalues --  -10.28413 -10.28367 -10.28268 -10.28255 -10.27957
 Alpha  occ. eigenvalues --  -10.27952 -10.27904 -10.27489 -10.26928 -10.26720
 Alpha  occ. eigenvalues --  -10.26572 -10.26470 -10.26356 -10.26346 -10.26295
 Alpha  occ. eigenvalues --  -10.26199 -10.26036 -10.25983 -10.25951 -10.25918
 Alpha  occ. eigenvalues --  -10.25880 -10.25846 -10.25753 -10.25740 -10.25572
 Alpha  occ. eigenvalues --  -10.25565 -10.25473 -10.25446 -10.25219 -10.25204
 Alpha  occ. eigenvalues --  -10.24955 -10.24854 -10.24778 -10.24766 -10.24695
 Alpha  occ. eigenvalues --  -10.24604 -10.24562 -10.24542 -10.24428 -10.24364
 Alpha  occ. eigenvalues --  -10.24316 -10.24114 -10.23961 -10.23695 -10.23626
 Alpha  occ. eigenvalues --  -10.23530 -10.23436 -10.23428 -10.23352 -10.23293
 Alpha  occ. eigenvalues --  -10.23282 -10.23223 -10.23220 -10.23212 -10.22856
 Alpha  occ. eigenvalues --  -10.22534  -3.14604  -3.13743  -1.87429  -1.86994
 Alpha  occ. eigenvalues --   -1.86819  -1.86585  -1.86114  -1.85973  -1.09821
 Alpha  occ. eigenvalues --   -1.09539  -1.06232  -1.05185  -1.04035  -1.03629
 Alpha  occ. eigenvalues --   -1.01722  -1.01432  -0.99691  -0.99015  -0.98361
 Alpha  occ. eigenvalues --   -0.97949  -0.97847  -0.97120  -0.96968  -0.95603
 Alpha  occ. eigenvalues --   -0.86825  -0.86444  -0.83959  -0.83522  -0.83427
 Alpha  occ. eigenvalues --   -0.83020  -0.82420  -0.82283  -0.81953  -0.81371
 Alpha  occ. eigenvalues --   -0.81251  -0.80688  -0.80439  -0.80385  -0.79041
 Alpha  occ. eigenvalues --   -0.78768  -0.78456  -0.77664  -0.76957  -0.76581
 Alpha  occ. eigenvalues --   -0.76563  -0.76061  -0.75298  -0.75194  -0.74513
 Alpha  occ. eigenvalues --   -0.74501  -0.72692  -0.72419  -0.71785  -0.71393
 Alpha  occ. eigenvalues --   -0.71110  -0.71098  -0.70511  -0.70186  -0.70100
 Alpha  occ. eigenvalues --   -0.69358  -0.67117  -0.66871  -0.66584  -0.65512
 Alpha  occ. eigenvalues --   -0.64137  -0.63750  -0.63668  -0.62824  -0.62586
 Alpha  occ. eigenvalues --   -0.62095  -0.61251  -0.60869  -0.60428  -0.59374
 Alpha  occ. eigenvalues --   -0.59230  -0.59095  -0.59078  -0.58918  -0.58550
 Alpha  occ. eigenvalues --   -0.58261  -0.57074  -0.55959  -0.54799  -0.54260
 Alpha  occ. eigenvalues --   -0.53985  -0.53640  -0.53575  -0.53545  -0.52896
 Alpha  occ. eigenvalues --   -0.52821  -0.52279  -0.52118  -0.51952  -0.51775
 Alpha  occ. eigenvalues --   -0.50896  -0.50381  -0.50365  -0.49963  -0.49910
 Alpha  occ. eigenvalues --   -0.49664  -0.49641  -0.49167  -0.49115  -0.48380
 Alpha  occ. eigenvalues --   -0.48225  -0.47792  -0.47611  -0.47430  -0.47261
 Alpha  occ. eigenvalues --   -0.47232  -0.47033  -0.46754  -0.46723  -0.46667
 Alpha  occ. eigenvalues --   -0.46497  -0.46377  -0.46262  -0.46229  -0.45722
 Alpha  occ. eigenvalues --   -0.45485  -0.45393  -0.45118  -0.45061  -0.44793
 Alpha  occ. eigenvalues --   -0.44737  -0.44302  -0.44211  -0.44179  -0.44069
 Alpha  occ. eigenvalues --   -0.43913  -0.43885  -0.43636  -0.43581  -0.43490
 Alpha  occ. eigenvalues --   -0.43188  -0.43140  -0.42945  -0.42872  -0.42793
 Alpha  occ. eigenvalues --   -0.42737  -0.42407  -0.42292  -0.41901  -0.41758
 Alpha  occ. eigenvalues --   -0.41648  -0.41401  -0.41248  -0.40983  -0.40969
 Alpha  occ. eigenvalues --   -0.40928  -0.40844  -0.40496  -0.40465  -0.40360
 Alpha  occ. eigenvalues --   -0.40153  -0.39973  -0.39893  -0.39809  -0.39755
 Alpha  occ. eigenvalues --   -0.39708  -0.39517  -0.39412  -0.39375  -0.39034
 Alpha  occ. eigenvalues --   -0.38736  -0.38610  -0.38423  -0.38278  -0.38211
 Alpha  occ. eigenvalues --   -0.37974  -0.37953  -0.37855  -0.37839  -0.37690
 Alpha  occ. eigenvalues --   -0.37613  -0.37434  -0.37331  -0.37220  -0.37003
 Alpha  occ. eigenvalues --   -0.36819  -0.36783  -0.36602  -0.36528  -0.36313
 Alpha  occ. eigenvalues --   -0.36096  -0.35910  -0.35705  -0.35519  -0.35332
 Alpha  occ. eigenvalues --   -0.35074  -0.34871  -0.34797  -0.34059  -0.33519
 Alpha  occ. eigenvalues --   -0.33456  -0.33300  -0.32966  -0.32776  -0.32661
 Alpha  occ. eigenvalues --   -0.32443  -0.31957  -0.31703  -0.31602  -0.31170
 Alpha  occ. eigenvalues --   -0.30577  -0.30563  -0.30308  -0.29710  -0.29522
 Alpha  occ. eigenvalues --   -0.28940  -0.28891  -0.28454  -0.26918  -0.26577
 Alpha  occ. eigenvalues --   -0.26308  -0.25896  -0.25750  -0.25705  -0.25536
 Alpha  occ. eigenvalues --   -0.25346  -0.25158  -0.24358  -0.21005  -0.20475
 Alpha  occ. eigenvalues --   -0.18872  -0.18859
 Alpha virt. eigenvalues --   -0.11253  -0.11167  -0.05718  -0.04844  -0.03598
 Alpha virt. eigenvalues --   -0.03537  -0.01961  -0.01894  -0.01117  -0.00504
 Alpha virt. eigenvalues --   -0.00143   0.00727   0.00794   0.01118   0.01735

 Mulliken charges:
               1
     1  Mg  12.000469
     2  C    5.996945
     3  C    6.002509
     4  C    6.003506
     5  C    5.999973
     6  N    6.998814
     7  C    6.006007
     8  C    5.997411
     9  C    6.000485
    10  C    5.994826
    11  C    6.000501
    12  C    5.999572
    13  C    5.999843
    14  H    1.000666
    15  N    7.000344
    16  C    5.992418
    17  C    5.996118
    18  C    5.996359
    19  C    5.994351
    20  C    6.000852
    21  C    5.997214
    22  O    7.994978
    23  C    6.000778
    24  N    7.001366
    25  C    5.993106
    26  C    6.001561
    27  C    5.998033
    28  C    6.006058
    29  C    5.999735
    30  C    5.999098
    31  C    5.998864
    32  N    7.000343
    33  C    6.004753
    34  C    6.007742
    35  C    6.000073
    36  C    6.004029
    37  C    5.999048
    38  C    6.002935
    39  O    8.004986
    40  C    6.000324
    41  C    6.000937
    42  O    8.001377
    43  O    8.000107
    44  C    5.999693
    45  H    0.997854
    46  H    0.998766
    47  H    1.002155
    48  H    1.000175
    49  H    1.000146
    50  H    0.999604
    51  H    0.997614
    52  H    1.000550
    53  H    1.001558
    54  H    0.998608
    55  H    1.000759
    56  H    0.999603
    57  H    0.996627
    58  H    0.996320
    59  H    0.995956
    60  H    0.997970
    61  H    0.997237
    62  H    0.999556
    63  H    1.000365
    64  H    1.000722
    65  H    0.998259
    66  H    1.000126
    67  H    1.000744
    68  H    1.002277
    69  H    0.999457
    70  H    1.001645
    71  H    0.999015
    72  H    1.001286
    73  H    1.003914
    74  H    1.003850
    75  H    1.004794
    76  H    1.001442
    77  H    1.000679
    78  H    1.001107
    79  H    1.000155
    80  Mg  11.998178
    81  C    6.020241
    82  C    5.990249
    83  C    5.972310
    84  C    6.007797
    85  N    7.006113
    86  C    5.968945
    87  C    6.010558
    88  C    5.988791
    89  C    6.030659
    90  C    5.996230
    91  C    6.002340
    92  C    6.004025
    93  H    0.992724
    94  N    6.994877
    95  C    6.037550
    96  C    6.018427
    97  C    6.012063
    98  C    6.036391
    99  C    5.997873
   100  C    6.012810
   101  O    8.018881
   102  C    5.995864
   103  N    6.997937
   104  C    6.039202
   105  C    5.984523
   106  C    6.011363
   107  C    5.967202
   108  C    5.997385
   109  C    6.004140
   110  C    5.999995
   111  N    7.000844
   112  C    5.967915
   113  C    5.969699
   114  C    5.996732
   115  C    5.973114
   116  C    6.001846
   117  C    5.984181
   118  O    7.974106
   119  C    5.998506
   120  C    5.992716
   121  O    7.991087
   122  O    8.005817
   123  C    6.002114
   124  H    1.011879
   125  H    1.005610
   126  H    0.989004
   127  H    1.000392
   128  H    1.004856
   129  H    1.013045
   130  H    0.999773
   131  H    1.002872
   132  H    1.003947
   133  H    0.992042
   134  H    0.993079
   135  H    1.006588
   136  H    1.014262
   137  H    1.014150
   138  H    1.016764
   139  H    1.008809
   140  H    1.009628
   141  H    1.012097
   142  H    1.001334
   143  H    0.998989
   144  H    1.008387
   145  H    0.994941
   146  H    1.004343
   147  H    1.000150
   148  H    0.988114
   149  H    1.003623
   150  H    0.994745
   151  H    0.999529
   152  H    0.982780
   153  H    0.983296
   154  H    0.984911
   155  H    0.993543
   156  H    0.995252
   157  H    0.993791
   158  H    0.999157
 Sum of Mulliken charges = 624.00000

 Dipole moment (field-independent basis, Debye):
    X=              6.1149    Y=              4.1008    Z=              5.4381  Tot=              9.1532
 Quadrupole moment (field-independent basis, Debye-Ang):
   XX=           -148.6226   YY=              2.9246   ZZ=              0.1458
   XY=           -124.1488   XZ=            -88.2073   YZ=              4.0914

 Normal termination of Gaussian 16 at Thu Oct 14 20:45:57 2021.
