 Gaussian 16, Revision A.03,
 Gaussian 16:  ES64L-G16RevA.03 25-Dec-2016

 --------------------------------------------------------
 #p PBE1PBE/Def2SVP td=(nstates=5) density=(transition=1)
 --------------------------------------------------------

 --------------------------------
 TDDFT excited states in gaussian
 --------------------------------
 Symbolic Z-matrix:
 Charge =  0 Multiplicity = 1

                         Standard orientation:
 ---------------------------------------------------------------------
 Center     Atomic      Atomic             Coordinates (Angstroms)
 Number     Number       Type             X           Y           Z
 ---------------------------------------------------------------------
      1         12           0       -4.584685   -0.533642    1.010269
      2          6           0       -5.541098    2.427302   -0.446405
      3          6           0       -2.774775    1.359178    3.418813
      4          6           0       -3.127189   -3.329609    2.230080
      5          6           0       -6.013397   -2.308847   -1.451045
      6          7           0       -4.203670    1.656693    1.426695
      7          6           0       -4.713033    2.666177    0.654781
      8          6           0       -4.377808    4.035880    1.249320
      9          6           0       -3.321103    3.620709    2.374207
     10          6           0       -3.427724    2.124430    2.418286
     11          6           0       -1.872356    4.185204    2.137190
     12          6           0       -5.642951    4.799132    1.854826
     13          6           0       -5.889018    6.271881    1.631549
     14          1           0       -4.756056    7.216062    1.825150
     15          7           0       -3.173254   -0.972313    2.650821
     16          6           0       -2.716627   -0.114273    3.589412
     17          6           0       -2.037932   -0.800746    4.637066
     18          6           0       -2.150599   -2.194547    4.334960
     19          6           0       -2.783688   -2.190676    2.982362
     20          6           0       -1.376243    0.003593    5.709085
     21          6           0       -1.551438   -3.379481    5.073112
     22          8           0       -1.478724   -4.504628    4.569291
     23          6           0       -0.994230   -3.205232    6.475034
     24          7           0       -4.440149   -2.561465    0.375425
     25          6           0       -3.882915   -3.544671    1.130286
     26          6           0       -4.212358   -4.920512    0.553605
     27          6           0       -5.296668   -4.572338   -0.535809
     28          6           0       -5.263208   -3.056752   -0.542062
     29          6           0       -3.088729   -5.882705    0.066947
     30          6           0       -6.735628   -5.208985   -0.339635
     31          6           0       -7.817162   -4.447668    0.397267
     32          7           0       -5.483794   -0.084998   -0.660919
     33          6           0       -6.170416   -0.873257   -1.549219
     34          6           0       -6.767159   -0.142244   -2.606926
     35          6           0       -6.592004    1.175371   -2.195729
     36          6           0       -5.828728    1.154189   -1.000091
     37          6           0       -7.546230   -0.553399   -3.849480
     38          6           0       -6.821515    2.518474   -2.504813
     39          8           0       -7.372558    2.981329   -3.486580
     40          6           0       -6.123594    3.471986   -1.381223
     41          6           0       -5.138763    4.308975   -2.055319
     42          8           0       -4.102672    3.908009   -2.621646
     43          8           0       -5.468434    5.627675   -2.069388
     44          6           0       -4.745357    6.529258   -2.973303
     45          1           0       -2.332654    2.041686    4.147116
     46          1           0       -2.911627   -4.260382    2.758508
     47          1           0       -6.775168   -2.829388   -2.033911
     48          1           0       -4.008570    4.676771    0.447663
     49          1           0       -3.588759    4.038982    3.344668
     50          1           0       -1.614078    4.802368    2.997031
     51          1           0       -1.930417    4.689717    1.172568
     52          1           0       -1.074427    3.442135    2.150587
     53          1           0       -5.502381    4.622658    2.921366
     54          1           0       -6.557088    4.229126    1.692246
     55          1           0       -6.770556    6.590571    2.187765
     56          1           0       -6.090486    6.371446    0.565578
     57          1           0       -1.653491   -0.492393    6.638548
     58          1           0       -1.800555    1.006719    5.758217
     59          1           0       -0.291842    0.098014    5.642578
     60          1           0       -1.612147   -2.584435    7.124468
     61          1           0        0.067708   -2.961985    6.419346
     62          1           0       -1.049713   -4.204819    6.907198
     63          1           0       -4.597623   -5.460817    1.418592
     64          1           0       -5.068967   -5.003184   -1.510086
     65          1           0       -3.105453   -5.963436   -1.019835
     66          1           0       -3.317639   -6.857954    0.496262
     67          1           0       -2.157503   -5.461842    0.444554
     68          1           0       -6.584914   -6.152104    0.183875
     69          1           0       -7.172374   -5.437193   -1.312151
     70          1           0       -8.260051   -5.043083    1.196009
     71          1           0       -8.622408   -4.096908   -0.249583
     72          1           0       -7.308271   -3.578949    0.814990
     73          1           0       -7.656614   -1.638445   -3.857344
     74          1           0       -7.016501   -0.202949   -4.735657
     75          1           0       -8.526620   -0.079150   -3.814365
     76          1           0       -6.978868    4.084752   -1.094925
     77          1           0       -5.297313    7.431906   -3.235717
     78          1           0       -4.307201    6.060378   -3.853855
     79          1           0       -3.949303    6.954963   -2.362226
     80         12           0        3.918081   -0.636067   -1.007459
     81          6           0        6.591321    1.315250   -0.154180
     82          6           0        1.815886    1.911052   -0.565570
     83          6           0        1.485668   -2.714878   -1.627502
     84          6           0        6.167296   -3.396757   -0.858560
     85          7           0        4.150832    1.383446   -0.247545
     86          6           0        5.355098    2.007547   -0.231487
     87          6           0        5.211576    3.504635   -0.259813
     88          6           0        3.645394    3.655540   -0.101401
     89          6           0        3.152051    2.230462   -0.227665
     90          6           0        3.193655    4.387973    1.184848
     91          6           0        5.904033    4.229396   -1.568482
     92          6           0        6.787461    5.465574   -1.341184
     93          1           0        6.527503    6.290485   -0.041630
     94          7           0        2.026217   -0.403916   -1.248493
     95          6           0        1.273038    0.705185   -1.028687
     96          6           0       -0.143526    0.467069   -1.162383
     97          6           0       -0.237056   -0.796245   -1.663217
     98          6           0        1.111571   -1.391633   -1.409139
     99          6           0       -1.078223    1.578662   -0.721620
    100          6           0       -1.487622   -1.549596   -2.158359
    101          8           0       -1.482370   -2.699545   -2.531601
    102          6           0       -2.747237   -0.736500   -2.105216
    103          7           0        3.852527   -2.792513   -1.037619
    104          6           0        2.703963   -3.357300   -1.451599
    105          6           0        2.881719   -4.863557   -1.666874
    106          6           0        4.438424   -5.025639   -1.731423
    107          6           0        4.870406   -3.664860   -1.147536
    108          6           0        2.191861   -5.860052   -0.640802
    109          6           0        5.064688   -5.203319   -3.165769
    110          6           0        4.892471   -4.186197   -4.263059
    111          7           0        5.980041   -1.057165   -0.687640
    112          6           0        6.754879   -2.214804   -0.562562
    113          6           0        8.154494   -1.897878   -0.251095
    114          6           0        8.140352   -0.504404   -0.089027
    115          6           0        6.802296   -0.085358   -0.372240
    116          6           0        9.333477   -2.834443   -0.184991
    117          6           0        8.900345    0.618024    0.223703
    118          8           0       10.063600    0.770644    0.562293
    119          6           0        8.007464    1.859875   -0.031493
    120          6           0        8.242464    2.676627    1.181267
    121          8           0        7.712809    2.494431    2.280128
    122          8           0        9.219338    3.605654    0.968355
    123          6           0        9.808482    4.307860    2.112875
    124          1           0        1.187801    2.803852   -0.601936
    125          1           0        0.732961   -3.459794   -1.891147
    126          1           0        6.745247   -4.323583   -0.889051
    127          1           0        5.625169    3.947359    0.646363
    128          1           0        3.252622    4.174575   -0.975450
    129          1           0        2.827826    3.651009    1.899692
    130          1           0        2.369735    5.054796    0.930628
    131          1           0        4.071749    4.906791    1.569585
    132          1           0        5.063894    4.502580   -2.207062
    133          1           0        6.561726    3.532253   -2.086685
    134          1           0        6.605160    6.206260   -2.119351
    135          1           0        7.837369    5.192761   -1.447125
    136          1           0       -1.007765    1.853597    0.330897
    137          1           0       -2.154945    1.413882   -0.686089
    138          1           0       -0.824062    2.356419   -1.441784
    139          1           0       -2.632742    0.187835   -2.670934
    140          1           0       -2.910641   -0.651864   -1.031061
    141          1           0       -3.650632   -1.136134   -2.564558
    142          1           0        2.374024   -5.008407   -2.621146
    143          1           0        4.738430   -5.794585   -1.019165
    144          1           0        1.647364   -5.287541    0.109716
    145          1           0        2.941354   -6.386409   -0.050969
    146          1           0        1.543160   -6.626352   -1.067880
    147          1           0        4.617899   -6.160101   -3.437254
    148          1           0        6.146772   -5.325371   -3.129972
    149          1           0        4.160895   -3.438161   -3.954760
    150          1           0        4.495528   -4.657628   -5.161980
    151          1           0        5.770947   -3.594324   -4.519317
    152          1           0        9.673779   -3.002848    0.835779
    153          1           0       10.152201   -2.438660   -0.786186
    154          1           0        8.913072   -3.779043   -0.530998
    155          1           0        8.252370    2.350378   -0.973760
    156          1           0       10.820963    4.656293    1.905571
    157          1           0        9.683316    3.752215    3.040967
    158          1           0        9.250812    5.203541    2.385868
 ---------------------------------------------------------------------

 SCF Done:  E(RPBE1PBE) =  -4067.39461430     A.U. after   17 cycles

 Excitation energies and oscillator strengths:

 Excited State   1:      Singlet-A      1.1944 eV 1038.08 nm  f=0.0002  <S**2>=0.000
     312 -> 313        0.70690
 This state for optimization and/or second-order correction.
 Total Energy, E(TD-HF/TD-DFT) =  -4067.35072230
 Copying the excited state density for this state as the 1-particle RhoCI density.

 Excited State   2:      Singlet-A      1.8424 eV  672.93 nm  f=0.0001  <S**2>=0.000
     310 -> 313        0.70634

 Excited State   3:      Singlet-A      1.8644 eV  665.01 nm  f=0.2652  <S**2>=0.000
     309 -> 315       -0.16639
     311 -> 313        0.68093
     312 -> 314       -0.13297
     311 <- 313       -0.10658

 Excited State   4:      Singlet-A      1.8969 eV  653.61 nm  f=0.4837  <S**2>=0.000
     310 -> 316        0.18040
     311 -> 313        0.13317
     312 -> 314        0.67523

 Excited State   5:      Singlet-A      2.1919 eV  565.64 nm  f=0.0993  <S**2>=0.000
     309 -> 313        0.62719
     311 -> 314        0.23587
     311 -> 315        0.19898

 The electronic state is 1-A.
 Alpha  occ. eigenvalues --  -46.93094 -46.90862 -19.26340 -19.24370 -19.19521
 Alpha  occ. eigenvalues --  -19.19433 -19.19329 -19.19151 -19.18371 -19.17676
 Alpha  occ. eigenvalues --  -14.42242 -14.41520 -14.40721 -14.40067 -14.39702
 Alpha  occ. eigenvalues --  -14.39663 -14.38966 -14.38029 -10.36627 -10.35042
 Alpha  occ. eigenvalues --  -10.32714 -10.32261 -10.31994 -10.30420 -10.29431
 Alpha  occ. eigenvalues --  -10.29401 -10.29127 -10.28595 -10.28203 -10.28190
 Alpha  occ. eigenvalues --  -10.28188 -10.28144 -10.27851 -10.27742 -10.27735
 Alpha  occ. eigenvalues --  -10.27643 -10.27360 -10.27287 -10.26956 -10.26893
 Alpha  occ. eigenvalues --  -10.26510 -10.26479 -10.26452 -10.26430 -10.26356
 Alpha  occ. eigenvalues --  -10.26343 -10.26301 -10.26251 -10.26229 -10.25872
 Alpha  occ. eigenvalues --  -10.25565 -10.25543 -10.25471 -10.25462 -10.25363
 Alpha  occ. eigenvalues --  -10.25259 -10.25244 -10.25103 -10.25062 -10.24978
 Alpha  occ. eigenvalues --  -10.24977 -10.24915 -10.24749 -10.24685 -10.24664
 Alpha  occ. eigenvalues --  -10.24528 -10.24519 -10.24292 -10.24291 -10.24023
 Alpha  occ. eigenvalues --  -10.23696 -10.23601 -10.23568 -10.23557 -10.23291
 Alpha  occ. eigenvalues --  -10.23244 -10.23103 -10.23076 -10.23066 -10.22944
 Alpha  occ. eigenvalues --  -10.22638 -10.22612 -10.22283 -10.22277 -10.22240
 Alpha  occ. eigenvalues --  -10.21551  -3.15311  -3.13290  -1.88150  -1.87638
 Alpha  occ. eigenvalues --   -1.87575  -1.86098  -1.85680  -1.85546  -1.11279
 Alpha  occ. eigenvalues --   -1.09403  -1.05257  -1.05231  -1.04400  -1.03521
 Alpha  occ. eigenvalues --   -1.01337  -1.00639  -1.00519  -0.99803  -0.99645
 Alpha  occ. eigenvalues --   -0.99264  -0.98764  -0.98686  -0.98352  -0.97303
 Alpha  occ. eigenvalues --   -0.87561  -0.86391  -0.83713  -0.83154  -0.83055
 Alpha  occ. eigenvalues --   -0.82705  -0.82683  -0.82098  -0.82068  -0.81937
 Alpha  occ. eigenvalues --   -0.81737  -0.81362  -0.81239  -0.80528  -0.79085
 Alpha  occ. eigenvalues --   -0.78400  -0.78209  -0.77463  -0.77322  -0.76487
 Alpha  occ. eigenvalues --   -0.76352  -0.75957  -0.75795  -0.75003  -0.74946
 Alpha  occ. eigenvalues --   -0.74268  -0.73060  -0.72375  -0.72160  -0.71911
 Alpha  occ. eigenvalues --   -0.71372  -0.71010  -0.70949  -0.70176  -0.69693
 Alpha  occ. eigenvalues --   -0.69097  -0.68477  -0.66680  -0.66456  -0.65664
 Alpha  occ. eigenvalues --   -0.64335  -0.64041  -0.63571  -0.63067  -0.62907
 Alpha  occ. eigenvalues --   -0.62216  -0.61938  -0.61048  -0.60609  -0.60142
 Alpha  occ. eigenvalues --   -0.59577  -0.59469  -0.59191  -0.59026  -0.58775
 Alpha  occ. eigenvalues --   -0.57928  -0.57386  -0.56014  -0.55108  -0.54960
 Alpha  occ. eigenvalues --   -0.54774  -0.54163  -0.53498  -0.53421  -0.53325
 Alpha  occ. eigenvalues --   -0.52979  -0.52195  -0.52135  -0.52026  -0.51635
 Alpha  occ. eigenvalues --   -0.51294  -0.50404  -0.50212  -0.49988  -0.49601
 Alpha  occ. eigenvalues --   -0.49490  -0.49156  -0.49051  -0.48735  -0.48457
 Alpha  occ. eigenvalues --   -0.48275  -0.47891  -0.47781  -0.47588  -0.47453
 Alpha  occ. eigenvalues --   -0.47365  -0.47296  -0.46967  -0.46916  -0.46768
 Alpha  occ. eigenvalues --   -0.46602  -0.46409  -0.46012  -0.45822  -0.45623
 Alpha  occ. eigenvalues --   -0.45430  -0.45203  -0.45130  -0.44877  -0.44781
 Alpha  occ. eigenvalues --   -0.44577  -0.44517  -0.44397  -0.44233  -0.44022
 Alpha  occ. eigenvalues --   -0.43955  -0.43668  -0.43531  -0.43474  -0.43420
 Alpha  occ. eigenvalues --   -0.43304  -0.43162  -0.42988  -0.42917  -0.42650
 Alpha  occ. eigenvalues --   -0.42435  -0.42281  -0.42239  -0.42169  -0.41916
 Alpha  occ. eigenvalues --   -0.41869  -0.41696  -0.41387  -0.41355  -0.41085
 Alpha  occ. eigenvalues --   -0.40993  -0.40980  -0.40840  -0.40765  -0.40522
 Alpha  occ. eigenvalues --   -0.40286  -0.40027  -0.39804  -0.39765  -0.39542
 Alpha  occ. eigenvalues --   -0.39303  -0.39248  -0.39089  -0.38802  -0.38665
 Alpha  occ. eigenvalues --   -0.38579  -0.38458  -0.38374  -0.38371  -0.38119
 Alpha  occ. eigenvalues --   -0.38008  -0.37704  -0.37558  -0.37441  -0.37336
 Alpha  occ. eigenvalues --   -0.37208  -0.37046  -0.36832  -0.36787  -0.36712
 Alpha  occ. eigenvalues --   -0.36685  -0.36556  -0.36451  -0.36199  -0.36065
 Alpha  occ. eigenvalues --   -0.35873  -0.35628  -0.35478  -0.35229  -0.35171
 Alpha  occ. eigenvalues --   -0.35075  -0.34961  -0.34800  -0.34111  -0.33815
 Alpha  occ. eigenvalues --   -0.33733  -0.33527  -0.33038  -0.32784  -0.32717
 Alpha  occ. eigenvalues --   -0.32089  -0.31779  -0.31546  -0.31250  -0.31093
 Alpha  occ. eigenvalues --   -0.30933  -0.30226  -0.29874  -0.29157  -0.29109
 Alpha  occ. eigenvalues --   -0.28722  -0.28228  -0.27570  -0.27434  -0.27155
 Alpha  occ. eigenvalues --   -0.26863  -0.26481  -0.25965  -0.25887  -0.25850
 Alpha  occ. eigenvalues --   -0.25254  -0.25072  -0.24728  -0.21331  -0.20192
 Alpha  occ. eigenvalues --   -0.19560  -0.17778
 Alpha virt. eigenvalues --   -0.11959  -0.09900  -0.05277  -0.04725  -0.04409
 Alpha virt. eigenvalues --   -0.03354  -0.02400  -0.01419  -0.01355  -0.00508
 Alpha virt. eigenvalues --    0.00389   0.01220   0.01255   0.01998   0.02407

 Mulliken charges:
               1
     1  Mg  12.000299
     2  C    6.000080
     3  C    5.999427
     4  C    6.000567
     5  C    6.000398
     6  N    7.000118
     7  C    6.000139
     8  C    5.999945
     9  C    5.999972
    10  C    5.999931
    11  C    5.999600
    12  C    5.999943
    13  C    5.999979
    14  H    1.000136
    15  N    7.000003
    16  C    5.999920
    17  C    5.999865
    18  C    5.999982
    19  C    5.999754
    20  C    6.000019
    21  C    5.999989
    22  O    7.999874
    23  C    6.000033
    24  N    7.000576
    25  C    5.999715
    26  C    5.999993
    27  C    5.999921
    28  C    6.000019
    29  C    5.999911
    30  C    5.999920
    31  C    5.999938
    32  N    6.999965
    33  C    6.000162
    34  C    6.000259
    35  C    6.000179
    36  C    6.000051
    37  C    5.999958
    38  C    6.000255
    39  O    8.000518
    40  C    6.000031
    41  C    6.000016
    42  O    8.000138
    43  O    8.000026
    44  C    5.999935
    45  H    0.999810
    46  H    1.000214
    47  H    1.000297
    48  H    1.000051
    49  H    1.000056
    50  H    1.000225
    51  H    0.999993
    52  H    1.000680
    53  H    1.000139
    54  H    0.999948
    55  H    1.000059
    56  H    0.999950
    57  H    0.999915
    58  H    0.999974
    59  H    0.999961
    60  H    0.999999
    61  H    1.000060
    62  H    0.999983
    63  H    1.000110
    64  H    1.000161
    65  H    1.000105
    66  H    1.000130
    67  H    1.000252
    68  H    1.000186
    69  H    1.000088
    70  H    1.000172
    71  H    1.000047
    72  H    0.999949
    73  H    1.000139
    74  H    1.000181
    75  H    1.000170
    76  H    1.000152
    77  H    1.000089
    78  H    1.000056
    79  H    1.000115
    80  Mg  11.999892
    81  C    6.000154
    82  C    6.000134
    83  C    5.999824
    84  C    5.999956
    85  N    7.000119
    86  C    5.999610
    87  C    6.000145
    88  C    6.000039
    89  C    5.999675
    90  C    5.999905
    91  C    6.000033
    92  C    6.000072
    93  H    0.999872
    94  N    7.000091
    95  C    5.999941
    96  C    5.999691
    97  C    5.999697
    98  C    6.000440
    99  C    5.999742
   100  C    6.000197
   101  O    8.000173
   102  C    5.999825
   103  N    7.000038
   104  C    5.999740
   105  C    6.000081
   106  C    6.000094
   107  C    5.999680
   108  C    5.999907
   109  C    6.000107
   110  C    6.000066
   111  N    6.999997
   112  C    5.999725
   113  C    5.999685
   114  C    5.999983
   115  C    5.999770
   116  C    6.000052
   117  C    5.999830
   118  O    7.999667
   119  C    6.000028
   120  C    5.999956
   121  O    7.999919
   122  O    7.999989
   123  C    6.000056
   124  H    0.999814
   125  H    0.999777
   126  H    0.999775
   127  H    0.999877
   128  H    0.999857
   129  H    1.000003
   130  H    0.999894
   131  H    1.000039
   132  H    0.999854
   133  H    0.999993
   134  H    0.999888
   135  H    0.999995
   136  H    1.000476
   137  H    0.999915
   138  H    1.000135
   139  H    1.000112
   140  H    1.000083
   141  H    0.999818
   142  H    0.999823
   143  H    0.999872
   144  H    1.000003
   145  H    1.000022
   146  H    0.999870
   147  H    0.999802
   148  H    0.999955
   149  H    0.999949
   150  H    0.999845
   151  H    0.999992
   152  H    0.999774
   153  H    0.999803
   154  H    0.999857
   155  H    0.999870
   156  H    0.999924
   157  H    0.999952
   158  H    0.999905
 Sum of Mulliken charges = 624.00000

 Dipole moment (field-independent basis, Debye):
    X=             -0.2863    Y=              0.0125    Z=             -0.0353  Tot=              0.2888
 Quadrupole moment (field-independent basis, Debye-Ang):
   XX=             -0.2104   YY=              0.0579   ZZ=             -0.0132
   XY=              0.1488   XZ=              0.3381   YZ=             -0.1050

 Normal termination of Gaussian 16 at Fri Oct 15 17:31:16 2021.
