 Gaussian 16, Revision A.03,
 Gaussian 16:  ES64L-G16RevA.03 25-Dec-2016

 --------------------------------------------------------
 #p PBE1PBE/Def2SVP td=(nstates=5) density=(transition=1)
 --------------------------------------------------------

 --------------------------------
 TDDFT excited states in gaussian
 --------------------------------
 Symbolic Z-matrix:
 Charge =  0 Multiplicity = 1

                         Standard orientation:
 ---------------------------------------------------------------------
 Center     Atomic      Atomic             Coordinates (Angstroms)
 Number     Number       Type             X           Y           Z
 ---------------------------------------------------------------------
      1         12           0       24.442328   -0.776910    0.161521
      2          6           0       24.187718    2.248438   -1.391571
      3          6           0       23.714865    0.830436    3.227651
      4          6           0       24.910730   -3.682263    1.759255
      5          6           0       25.073954   -2.238431   -2.882125
      6          7           0       24.314172    1.316109    0.898016
      7          6           0       24.122247    2.390917    0.020511
      8          6           0       23.837721    3.717767    0.779766
      9          6           0       23.776560    3.160115    2.226653
     10          6           0       24.013451    1.662952    2.144699
     11          6           0       24.643801    3.790481    3.398211
     12          6           0       22.518144    4.508977    0.370804
     13          6           0       22.324457    5.793292    1.220806
     14          1           0       22.578296    7.081038    0.435871
     15          7           0       24.274922   -1.358461    2.256504
     16          6           0       23.741283   -0.589245    3.268070
     17          6           0       23.809641   -1.413679    4.468919
     18          6           0       24.168311   -2.727576    4.026455
     19          6           0       24.452323   -2.659418    2.627544
     20          6           0       23.448002   -0.860710    5.793328
     21          6           0       24.361825   -3.937646    5.005674
     22          8           0       24.874992   -5.024072    4.669121
     23          6           0       23.988829   -3.796415    6.458401
     24          7           0       24.924585   -2.577248   -0.429924
     25          6           0       25.087180   -3.699616    0.430095
     26          6           0       25.740599   -4.850797   -0.300464
     27          6           0       25.325175   -4.521312   -1.732963
     28          6           0       25.032752   -3.027756   -1.710701
     29          6           0       27.294078   -4.893198   -0.110317
     30          6           0       24.034392   -5.252538   -2.164789
     31          6           0       24.151311   -6.647502   -2.717864
     32          7           0       24.661141   -0.207173   -1.807754
     33          6           0       24.761200   -0.895568   -2.956318
     34          6           0       24.801785    0.020679   -4.057538
     35          6           0       24.562335    1.266314   -3.517279
     36          6           0       24.437740    1.075875   -2.132304
     37          6           0       24.963268   -0.428051   -5.468036
     38          6           0       24.399406    2.616637   -3.851390
     39          8           0       24.395108    3.190190   -4.923489
     40          6           0       24.138915    3.340063   -2.447702
     41          6           0       25.168829    4.400882   -2.282879
     42          8           0       26.355513    4.247317   -2.124831
     43          8           0       24.606753    5.608794   -2.178486
     44          6           0       25.549682    6.771332   -1.953425
     45          1           0       23.333446    1.365078    4.099914
     46          1           0       25.060293   -4.638020    2.265506
     47          1           0       25.140403   -2.643825   -3.893553
     48          1           0       24.703839    4.370323    0.669249
     49          1           0       22.753856    3.229519    2.598480
     50          1           0       24.172255    3.830725    4.380471
     51          1           0       25.099930    4.721027    3.059911
     52          1           0       25.444297    3.066676    3.550638
     53          1           0       21.734572    3.759547    0.475514
     54          1           0       22.591155    4.768802   -0.685176
     55          1           0       22.896817    5.716962    2.145296
     56          1           0       21.270658    5.823691    1.496162
     57          1           0       24.357808   -0.803432    6.391191
     58          1           0       22.625488   -1.476909    6.156501
     59          1           0       23.014539    0.134355    5.692022
     60          1           0       24.131800   -4.747272    6.971762
     61          1           0       22.908136   -3.649527    6.435716
     62          1           0       24.461614   -2.987851    7.015279
     63          1           0       25.346577   -5.808548    0.040603
     64          1           0       26.105955   -4.719740   -2.466917
     65          1           0       27.782009   -4.110895   -0.690416
     66          1           0       27.682538   -5.873402   -0.387997
     67          1           0       27.456436   -4.746295    0.956897
     68          1           0       23.435896   -4.676193   -2.869146
     69          1           0       23.339903   -5.287918   -1.325306
     70          1           0       23.564448   -7.290950   -2.062995
     71          1           0       25.189437   -6.906415   -2.509060
     72          1           0       23.917363   -6.736220   -3.778884
     73          1           0       23.992285   -0.497708   -5.956839
     74          1           0       25.588007   -1.299285   -5.667282
     75          1           0       25.479043    0.392807   -5.966604
     76          1           0       23.145053    3.787472   -2.474034
     77          1           0       26.191493    6.501346   -1.114514
     78          1           0       25.038097    7.691151   -1.668822
     79          1           0       26.129365    6.909318   -2.866393
     80         12           0      -24.815411   -0.595703   -0.091032
     81          6           0      -22.299528    1.759832   -0.179085
     82          6           0      -26.476192    1.568501    2.229728
     83          6           0      -27.104333   -2.879840    0.352494
     84          6           0      -22.950572   -2.731215   -2.072740
     85          7           0      -24.278801    1.385753    1.071017
     86          6           0      -23.325497    2.208259    0.666548
     87          6           0      -23.593291    3.657723    1.161457
     88          6           0      -24.584314    3.357509    2.339885
     89          6           0      -25.192458    2.015942    1.900594
     90          6           0      -23.853575    3.257531    3.725980
     91          6           0      -24.232618    4.405510   -0.029712
     92          6           0      -24.463529    5.911949    0.151257
     93          1           0      -24.309175    6.548102    1.518111
     94          7           0      -26.590649   -0.689535    0.986766
     95          6           0      -27.102299    0.335726    1.854519
     96          6           0      -28.448050   -0.085104    2.219637
     97          6           0      -28.678504   -1.342143    1.578159
     98          6           0      -27.416133   -1.727740    0.949061
     99          6           0      -29.441910    0.753816    3.106561
    100          6           0      -30.021560   -2.142893    1.527651
    101          8           0      -30.005078   -3.241958    1.044944
    102          6           0      -31.273933   -1.564162    2.101571
    103          7           0      -25.044035   -2.521574   -0.849706
    104          6           0      -26.096779   -3.306876   -0.528329
    105          6           0      -26.008091   -4.709984   -1.127423
    106          6           0      -24.744577   -4.598966   -2.011872
    107          6           0      -24.198392   -3.167682   -1.614209
    108          6           0      -25.931682   -5.889848   -0.090102
    109          6           0      -24.900945   -4.885192   -3.483600
    110          6           0      -26.056780   -4.265225   -4.305340
    111          7           0      -22.999843   -0.588840   -0.971785
    112          6           0      -22.359401   -1.504226   -1.757020
    113          6           0      -21.139394   -0.882883   -2.227517
    114          6           0      -21.044993    0.439499   -1.672253
    115          6           0      -22.229380    0.544000   -0.892631
    116          6           0      -20.155527   -1.551597   -3.136066
    117          6           0      -20.257048    1.618111   -1.535433
    118          8           0      -19.138130    1.950955   -1.983278
    119          6           0      -20.976500    2.400603   -0.306539
    120          6           0      -20.889600    3.892357   -0.633207
    121          8           0      -21.249229    4.394754   -1.628461
    122          8           0      -20.281036    4.517563    0.417692
    123          6           0      -20.402844    5.957574    0.515481
    124          1           0      -26.943680    2.201753    2.986029
    125          1           0      -27.812916   -3.696709    0.504563
    126          1           0      -22.305677   -3.362685   -2.686180
    127          1           0      -22.699672    4.124227    1.575830
    128          1           0      -25.305040    4.173107    2.276368
    129          1           0      -24.041894    4.164310    4.299454
    130          1           0      -22.790006    3.117707    3.531709
    131          1           0      -24.226145    2.450584    4.357018
    132          1           0      -25.228351    3.987709   -0.175958
    133          1           0      -23.733932    4.178521   -0.971493
    134          1           0      -25.327024    6.282957   -0.401311
    135          1           0      -23.704037    6.373779   -0.479883
    136          1           0      -29.865269    0.167875    3.922907
    137          1           0      -30.192464    1.139716    2.416929
    138          1           0      -28.932381    1.642248    3.481563
    139          1           0      -32.039571   -2.045537    1.492742
    140          1           0      -31.379073   -0.499858    1.894215
    141          1           0      -31.414922   -1.506963    3.180866
    142          1           0      -26.911984   -4.815722   -1.726920
    143          1           0      -23.925075   -5.227729   -1.663845
    144          1           0      -25.279673   -6.634908   -0.545253
    145          1           0      -26.966642   -6.230460   -0.053039
    146          1           0      -25.654556   -5.514264    0.894855
    147          1           0      -25.227947   -5.923407   -3.437205
    148          1           0      -24.018285   -4.781112   -4.115505
    149          1           0      -26.780044   -4.936767   -4.766065
    150          1           0      -25.684871   -3.768731   -5.201567
    151          1           0      -26.629110   -3.592967   -3.665948
    152          1           0      -19.332931   -0.845332   -3.244755
    153          1           0      -20.592356   -1.682741   -4.126967
    154          1           0      -19.863002   -2.560224   -2.845663
    155          1           0      -20.419507    2.095545    0.579591
    156          1           0      -19.320942    6.068772    0.589163
    157          1           0      -21.046667    6.290552    1.329834
    158          1           0      -20.736554    6.445202   -0.400836
 ---------------------------------------------------------------------

 SCF Done:  E(RPBE1PBE) =  -4067.39437506     A.U. after   16 cycles

 Excitation energies and oscillator strengths:

 Excited State   1:      Singlet-A      1.8106 eV  684.78 nm  f=0.3725  <S**2>=0.000
     309 -> 316       -0.15517
     311 -> 313        0.69953
     311 <- 313       -0.12511
 This state for optimization and/or second-order correction.
 Total Energy, E(TD-HF/TD-DFT) =  -4067.32783802
 Copying the excited state density for this state as the 1-particle RhoCI density.

 Excited State   2:      Singlet-A      1.8859 eV  657.44 nm  f=0.3660  <S**2>=0.000
     310 -> 315        0.19017
     312 -> 314        0.68805
     312 <- 314       -0.10014

 Excited State   3:      Singlet-A      1.8963 eV  653.83 nm  f=0.0000  <S**2>=0.000
     312 -> 313        0.70711

 Excited State   4:      Singlet-A      2.0548 eV  603.38 nm  f=0.0000  <S**2>=0.000
     311 -> 314        0.70711

 Excited State   5:      Singlet-A      2.2137 eV  560.07 nm  f=0.0897  <S**2>=0.000
     310 -> 314        0.64980
     312 -> 315       -0.26392

 The electronic state is 1-A.
 Alpha  occ. eigenvalues --  -46.91671 -46.90892 -19.25482 -19.25033 -19.20407
 Alpha  occ. eigenvalues --  -19.19466 -19.19359 -19.19206 -19.18875 -19.18874
 Alpha  occ. eigenvalues --  -14.42134 -14.41358 -14.41259 -14.41182 -14.39022
 Alpha  occ. eigenvalues --  -14.38931 -14.38586 -14.38449 -10.35877 -10.35440
 Alpha  occ. eigenvalues --  -10.32471 -10.32469 -10.32164 -10.31942 -10.29752
 Alpha  occ. eigenvalues --  -10.29465 -10.29018 -10.28675 -10.28387 -10.28380
 Alpha  occ. eigenvalues --  -10.28360 -10.28297 -10.28258 -10.28165 -10.27832
 Alpha  occ. eigenvalues --  -10.27324 -10.27232 -10.27143 -10.26960 -10.26943
 Alpha  occ. eigenvalues --  -10.26704 -10.26554 -10.26516 -10.26379 -10.26288
 Alpha  occ. eigenvalues --  -10.26268 -10.26180 -10.26176 -10.25882 -10.25640
 Alpha  occ. eigenvalues --  -10.25633 -10.25599 -10.25597 -10.25592 -10.25586
 Alpha  occ. eigenvalues --  -10.25413 -10.25329 -10.25288 -10.25261 -10.25210
 Alpha  occ. eigenvalues --  -10.25121 -10.25063 -10.24947 -10.24933 -10.24537
 Alpha  occ. eigenvalues --  -10.24339 -10.24326 -10.24265 -10.24196 -10.24088
 Alpha  occ. eigenvalues --  -10.24048 -10.24003 -10.23824 -10.23766 -10.23549
 Alpha  occ. eigenvalues --  -10.23506 -10.23391 -10.23267 -10.23244 -10.23187
 Alpha  occ. eigenvalues --  -10.23187 -10.23164 -10.22695 -10.22646 -10.22546
 Alpha  occ. eigenvalues --  -10.22509  -3.13886  -3.13246  -1.86727  -1.86276
 Alpha  occ. eigenvalues --   -1.86100  -1.86091  -1.85639  -1.85468  -1.12354
 Alpha  occ. eigenvalues --   -1.11608  -1.06336  -1.05059  -1.04622  -1.03087
 Alpha  occ. eigenvalues --   -1.02683  -1.01884  -1.00043  -0.99884  -0.98665
 Alpha  occ. eigenvalues --   -0.98512  -0.97725  -0.97693  -0.96826  -0.96712
 Alpha  occ. eigenvalues --   -0.87602  -0.87346  -0.83667  -0.83378  -0.83114
 Alpha  occ. eigenvalues --   -0.83060  -0.82922  -0.82777  -0.82183  -0.81660
 Alpha  occ. eigenvalues --   -0.81483  -0.80886  -0.80714  -0.79957  -0.78628
 Alpha  occ. eigenvalues --   -0.78366  -0.78257  -0.78009  -0.76794  -0.76725
 Alpha  occ. eigenvalues --   -0.75969  -0.75811  -0.75740  -0.75492  -0.74900
 Alpha  occ. eigenvalues --   -0.74615  -0.72732  -0.72340  -0.71851  -0.71676
 Alpha  occ. eigenvalues --   -0.71508  -0.71083  -0.70461  -0.70189  -0.69905
 Alpha  occ. eigenvalues --   -0.69580  -0.67629  -0.67106  -0.66461  -0.66250
 Alpha  occ. eigenvalues --   -0.64642  -0.63860  -0.63308  -0.63303  -0.62658
 Alpha  occ. eigenvalues --   -0.62510  -0.60693  -0.60551  -0.60229  -0.59668
 Alpha  occ. eigenvalues --   -0.59428  -0.59392  -0.59182  -0.58829  -0.58688
 Alpha  occ. eigenvalues --   -0.58638  -0.56897  -0.56614  -0.55087  -0.54801
 Alpha  occ. eigenvalues --   -0.54571  -0.54205  -0.53727  -0.53702  -0.53488
 Alpha  occ. eigenvalues --   -0.53384  -0.52887  -0.52736  -0.52398  -0.52384
 Alpha  occ. eigenvalues --   -0.51137  -0.50767  -0.50596  -0.50446  -0.50252
 Alpha  occ. eigenvalues --   -0.49861  -0.49653  -0.49223  -0.48812  -0.48797
 Alpha  occ. eigenvalues --   -0.48287  -0.48079  -0.48011  -0.47974  -0.47675
 Alpha  occ. eigenvalues --   -0.47388  -0.47269  -0.47004  -0.46795  -0.46747
 Alpha  occ. eigenvalues --   -0.46606  -0.46299  -0.46273  -0.46268  -0.45888
 Alpha  occ. eigenvalues --   -0.45372  -0.45269  -0.45000  -0.44878  -0.44778
 Alpha  occ. eigenvalues --   -0.44636  -0.44577  -0.44437  -0.44275  -0.44262
 Alpha  occ. eigenvalues --   -0.44125  -0.43944  -0.43913  -0.43812  -0.43568
 Alpha  occ. eigenvalues --   -0.43397  -0.43360  -0.42958  -0.42924  -0.42799
 Alpha  occ. eigenvalues --   -0.42724  -0.42640  -0.42359  -0.42314  -0.42136
 Alpha  occ. eigenvalues --   -0.41831  -0.41594  -0.41547  -0.41429  -0.41318
 Alpha  occ. eigenvalues --   -0.41261  -0.41111  -0.40837  -0.40690  -0.40653
 Alpha  occ. eigenvalues --   -0.40549  -0.40246  -0.40170  -0.39944  -0.39936
 Alpha  occ. eigenvalues --   -0.39703  -0.39530  -0.39419  -0.38985  -0.38706
 Alpha  occ. eigenvalues --   -0.38560  -0.38550  -0.38336  -0.38203  -0.38198
 Alpha  occ. eigenvalues --   -0.38172  -0.37795  -0.37724  -0.37695  -0.37600
 Alpha  occ. eigenvalues --   -0.37230  -0.36956  -0.36870  -0.36827  -0.36700
 Alpha  occ. eigenvalues --   -0.36682  -0.36532  -0.36409  -0.36345  -0.36315
 Alpha  occ. eigenvalues --   -0.35978  -0.35840  -0.35775  -0.35575  -0.35318
 Alpha  occ. eigenvalues --   -0.35108  -0.34911  -0.34728  -0.34457  -0.34424
 Alpha  occ. eigenvalues --   -0.33352  -0.33337  -0.32966  -0.32813  -0.32545
 Alpha  occ. eigenvalues --   -0.32463  -0.32177  -0.31969  -0.31667  -0.31487
 Alpha  occ. eigenvalues --   -0.31300  -0.30889  -0.30142  -0.29483  -0.29137
 Alpha  occ. eigenvalues --   -0.29101  -0.28838  -0.28460  -0.27053  -0.26967
 Alpha  occ. eigenvalues --   -0.26190  -0.26044  -0.25977  -0.25633  -0.25403
 Alpha  occ. eigenvalues --   -0.25250  -0.24997  -0.24802  -0.21455  -0.20762
 Alpha  occ. eigenvalues --   -0.18775  -0.18741
 Alpha virt. eigenvalues --   -0.11504  -0.10952  -0.05356  -0.05098  -0.04019
 Alpha virt. eigenvalues --   -0.03825  -0.02057  -0.01817   0.00205   0.00270
 Alpha virt. eigenvalues --    0.01009   0.01280   0.01380   0.01468   0.01735

 Mulliken charges:
               1
     1  Mg  11.998538
     2  C    5.975186
     3  C    5.995373
     4  C    6.029691
     5  C    6.013534
     6  N    6.988157
     7  C    6.038967
     8  C    5.985299
     9  C    6.006719
    10  C    5.975261
    11  C    6.004224
    12  C    5.997179
    13  C    6.002431
    14  H    0.995901
    15  N    7.006049
    16  C    5.963748
    17  C    5.976256
    18  C    5.992469
    19  C    5.955215
    20  C    6.004749
    21  C    5.987501
    22  O    7.974867
    23  C    6.005567
    24  N    7.017833
    25  C    5.961443
    26  C    6.007940
    27  C    5.994644
    28  C    6.020903
    29  C    6.001065
    30  C    5.992627
    31  C    5.999384
    32  N    6.996266
    33  C    6.022529
    34  C    6.035185
    35  C    5.998651
    36  C    6.031539
    37  C    5.995928
    38  C    6.015405
    39  O    8.026317
    40  C    6.002811
    41  C    6.001787
    42  O    8.003892
    43  O    8.001683
    44  C    5.999126
    45  H    0.983688
    46  H    0.995713
    47  H    1.013954
    48  H    1.001850
    49  H    0.998875
    50  H    0.999766
    51  H    0.985440
    52  H    1.001592
    53  H    1.005207
    54  H    0.992606
    55  H    1.006940
    56  H    1.002277
    57  H    0.981699
    58  H    0.982799
    59  H    0.984835
    60  H    0.986361
    61  H    0.994327
    62  H    0.994516
    63  H    1.001585
    64  H    1.001198
    65  H    0.987912
    66  H    0.994486
    67  H    1.007470
    68  H    0.995333
    69  H    1.015169
    70  H    1.007198
    71  H    1.004580
    72  H    0.999464
    73  H    1.022017
    74  H    1.017605
    75  H    1.015888
    76  H    1.007620
    77  H    1.005021
    78  H    1.004966
    79  H    1.000203
    80  Mg  11.999998
    81  C    6.000020
    82  C    6.000037
    83  C    5.999988
    84  C    5.999950
    85  N    7.000018
    86  C    5.999969
    87  C    6.000003
    88  C    5.999980
    89  C    6.000002
    90  C    5.999994
    91  C    6.000010
    92  C    5.999996
    93  H    1.000015
    94  N    6.999997
    95  C    6.000021
    96  C    6.000008
    97  C    5.999994
    98  C    6.000034
    99  C    6.000006
   100  C    6.000028
   101  O    8.000028
   102  C    6.000003
   103  N    6.999988
   104  C    6.000029
   105  C    5.999991
   106  C    6.000011
   107  C    6.000008
   108  C    6.000002
   109  C    6.000006
   110  C    6.000003
   111  N    7.000004
   112  C    5.999997
   113  C    5.999963
   114  C    6.000025
   115  C    5.999971
   116  C    5.999994
   117  C    5.999951
   118  O    7.999948
   119  C    6.000011
   120  C    5.999982
   121  O    7.999975
   122  O    8.000008
   123  C    6.000006
   124  H    1.000022
   125  H    1.000015
   126  H    0.999987
   127  H    1.000011
   128  H    1.000002
   129  H    1.000017
   130  H    1.000033
   131  H    1.000015
   132  H    0.999977
   133  H    0.999997
   134  H    0.999980
   135  H    0.999991
   136  H    1.000038
   137  H    1.000012
   138  H    1.000032
   139  H    1.000015
   140  H    1.000000
   141  H    1.000027
   142  H    0.999987
   143  H    1.000014
   144  H    1.000018
   145  H    0.999996
   146  H    1.000018
   147  H    0.999990
   148  H    0.999996
   149  H    0.999985
   150  H    0.999985
   151  H    0.999993
   152  H    0.999968
   153  H    0.999937
   154  H    0.999980
   155  H    1.000012
   156  H    1.000000
   157  H    1.000005
   158  H    0.999972
 Sum of Mulliken charges = 624.00000

 Dipole moment (field-independent basis, Debye):
    X=              0.8071    Y=              2.1124    Z=            -10.1682  Tot=             10.4166
 Quadrupole moment (field-independent basis, Debye-Ang):
   XX=             40.2073   YY=             -0.1562   ZZ=             -4.9654
   XY=             51.7536   XZ=           -247.5844   YZ=              8.2719

 Normal termination of Gaussian 16 at Fri Oct 15 04:17:50 2021.
