 Gaussian 16, Revision A.03,
 Gaussian 16:  ES64L-G16RevA.03 25-Dec-2016

 --------------------------------------------------------
 #p PBE1PBE/Def2SVP td=(nstates=5) density=(transition=1)
 --------------------------------------------------------

 --------------------------------
 TDDFT excited states in gaussian
 --------------------------------
 Symbolic Z-matrix:
 Charge =  0 Multiplicity = 1

                         Standard orientation:
 ---------------------------------------------------------------------
 Center     Atomic      Atomic             Coordinates (Angstroms)
 Number     Number       Type             X           Y           Z
 ---------------------------------------------------------------------
      1         12           0       -9.268135    0.641802    0.068775
      2          6           0       -7.199439   -1.900448    1.124116
      3          6           0       -7.259935    2.863244    1.710913
      4          6           0      -10.465601    2.981096   -1.932848
      5          6           0      -11.196256   -1.774501   -1.595951
      6          7           0       -7.176431    0.468723    0.881103
      7          6           0       -6.666859   -0.669235    1.419062
      8          6           0       -5.470056   -0.415496    2.287218
      9          6           0       -5.795004    1.034209    2.772819
     10          6           0       -6.863315    1.472208    1.781878
     11          6           0       -6.210386    1.096697    4.270672
     12          6           0       -4.092152   -0.463766    1.454757
     13          6           0       -2.834738   -1.058612    2.243149
     14          1           0       -1.775727    0.014097    2.305028
     15          7           0       -9.044402    2.677261    0.058852
     16          6           0       -8.138417    3.435182    0.714828
     17          6           0       -8.271848    4.837299    0.340058
     18          6           0       -9.226135    4.887794   -0.696770
     19          6           0       -9.616992    3.464139   -0.897558
     20          6           0       -7.395978    5.930031    0.999651
     21          6           0       -9.499493    6.132288   -1.494516
     22          8           0       -8.948494    7.160058   -1.197311
     23          6           0      -10.417261    6.196640   -2.730297
     24          7           0      -10.758511    0.670041   -1.487744
     25          6           0      -11.034945    1.716358   -2.130099
     26          6           0      -11.938003    1.480778   -3.283916
     27          6           0      -12.209013   -0.072263   -3.191359
     28          6           0      -11.361093   -0.434045   -2.050355
     29          6           0      -13.188034    2.423465   -3.244155
     30          6           0      -11.793411   -0.835830   -4.532968
     31          6           0      -12.399612   -2.264623   -4.770435
     32          7           0       -9.309069   -1.409695   -0.152727
     33          6           0      -10.216814   -2.248662   -0.773244
     34          6           0       -9.922617   -3.622469   -0.473138
     35          6           0       -8.736820   -3.536744    0.337336
     36          6           0       -8.365299   -2.207706    0.402408
     37          6           0      -10.677897   -4.838016   -0.904818
     38          6           0       -7.806240   -4.314146    1.080525
     39          8           0       -7.654175   -5.522342    1.302313
     40          6           0       -6.665654   -3.312027    1.458472
     41          6           0       -6.324079   -3.574385    2.887345
     42          8           0       -5.416286   -4.325086    3.271493
     43          8           0       -7.198044   -2.908489    3.701641
     44          6           0       -6.871152   -3.221331    5.121196
     45          1           0       -6.773503    3.640485    2.304623
     46          1           0      -10.797838    3.764941   -2.615891
     47          1           0      -11.710269   -2.511783   -2.217384
     48          1           0       -5.580467   -1.131900    3.100288
     49          1           0       -4.890894    1.640080    2.710538
     50          1           0       -5.471042    1.674060    4.825008
     51          1           0       -6.152174    0.080093    4.660928
     52          1           0       -7.229458    1.480033    4.311506
     53          1           0       -3.791225    0.462701    0.965906
     54          1           0       -4.203870   -1.099891    0.577301
     55          1           0       -2.465076   -1.850114    1.591076
     56          1           0       -2.980087   -1.540274    3.210159
     57          1           0       -6.777170    6.502091    0.308430
     58          1           0       -6.761969    5.563854    1.807910
     59          1           0       -8.075992    6.603359    1.520421
     60          1           0      -11.460864    5.981408   -2.503139
     61          1           0      -10.087461    5.564059   -3.554801
     62          1           0      -10.240815    7.188299   -3.148039
     63          1           0      -11.302984    1.695003   -4.143440
     64          1           0      -13.201004   -0.408981   -2.891191
     65          1           0      -13.175399    3.001523   -4.167903
     66          1           0      -13.177870    3.076806   -2.371535
     67          1           0      -14.139392    1.908535   -3.376912
     68          1           0      -10.709667   -0.944653   -4.579916
     69          1           0      -12.093876   -0.172000   -5.342295
     70          1           0      -13.017345   -2.476381   -5.642739
     71          1           0      -13.068042   -2.535856   -3.954429
     72          1           0      -11.605106   -3.010398   -4.797052
     73          1           0      -11.641115   -4.670065   -1.386192
     74          1           0      -10.765063   -5.338168    0.058887
     75          1           0       -9.907198   -5.334491   -1.494567
     76          1           0       -5.774797   -3.389928    0.834335
     77          1           0       -7.124164   -4.260547    5.328802
     78          1           0       -7.527346   -2.711942    5.826945
     79          1           0       -5.823267   -2.966485    5.280969
     80         12           0        9.285644    0.170516   -0.150662
     81          6           0        6.594212   -1.910321    0.363071
     82          6           0        7.591660    2.641227    1.661683
     83          6           0       11.842334    2.308330   -0.686827
     84          6           0       10.700910   -2.130982   -2.204288
     85          7           0        7.170192    0.402373    0.670959
     86          6           0        6.356086   -0.700366    0.958116
     87          6           0        5.256265   -0.357187    1.982241
     88          6           0        5.583681    1.155518    2.263617
     89          6           0        6.882230    1.455477    1.546134
     90          6           0        4.461513    2.097602    1.846290
     91          6           0        5.140459   -1.194755    3.304787
     92          6           0        3.817874   -2.120704    3.481056
     93          1           0        3.024450   -1.722876    4.729539
     94          7           0        9.628334    2.182235    0.301541
     95          6           0        8.864116    2.979366    1.169008
     96          6           0        9.573259    4.212938    1.524534
     97          6           0       10.863579    4.210198    0.763277
     98          6           0       10.881842    2.837741    0.116385
     99          6           0        9.000458    5.256983    2.457503
    100          6           0       11.923238    5.202645    0.657133
    101          8           0       12.866732    5.013828   -0.124813
    102          6           0       11.905971    6.517910    1.416141
    103          7           0       10.911878    0.097440   -1.322032
    104          6           0       11.945257    1.052458   -1.305888
    105          6           0       13.251025    0.638432   -2.097468
    106          6           0       12.789563   -0.826101   -2.598191
    107          6           0       11.378744   -0.965048   -1.982777
    108          6           0       13.647518    1.631326   -3.298384
    109          6           0       13.784712   -1.940967   -2.125308
    110          6           0       14.072656   -3.069384   -3.065374
    111          7           0        8.683861   -1.644792   -0.879263
    112          6           0        9.413078   -2.518823   -1.690584
    113          6           0        8.763716   -3.781078   -1.790866
    114          6           0        7.651227   -3.612481   -0.885914
    115          6           0        7.643362   -2.281447   -0.449967
    116          6           0        9.144527   -5.016742   -2.492386
    117          6           0        6.462382   -4.247767   -0.410148
    118          8           0        5.969525   -5.375874   -0.519998
    119          6           0        5.646067   -3.085148    0.317124
    120          6           0        4.375080   -2.859838   -0.420946
    121          8           0        4.123482   -2.029105   -1.202411
    122          8           0        3.393454   -3.737531    0.033259
    123          6           0        2.031441   -3.277602   -0.141458
    124          1           0        7.096384    3.374248    2.301916
    125          1           0       12.756320    2.874125   -0.878740
    126          1           0       11.221930   -2.927275   -2.739856
    127          1           0        4.290183   -0.401701    1.480597
    128          1           0        5.671144    1.357783    3.331471
    129          1           0        4.815250    2.719873    1.024685
    130          1           0        4.315993    2.703328    2.739914
    131          1           0        3.504217    1.627035    1.623120
    132          1           0        5.186634   -0.499839    4.143647
    133          1           0        5.963467   -1.903555    3.397291
    134          1           0        4.252705   -3.103314    3.664937
    135          1           0        3.191190   -2.062296    2.591416
    136          1           0        8.211114    5.767646    1.904518
    137          1           0        9.795388    5.959531    2.702965
    138          1           0        8.491627    4.833555    3.323739
    139          1           0       12.620544    7.159554    0.900195
    140          1           0       12.146005    6.418715    2.475262
    141          1           0       11.014191    7.137429    1.323212
    142          1           0       14.070501    0.476847   -1.397898
    143          1           0       12.768855   -0.956467   -3.680409
    144          1           0       14.008303    1.031405   -4.134126
    145          1           0       14.499472    2.288849   -3.129680
    146          1           0       12.818271    2.259954   -3.623458
    147          1           0       13.531998   -2.378663   -1.159704
    148          1           0       14.795727   -1.561697   -1.977881
    149          1           0       13.630769   -3.942749   -2.585982
    150          1           0       15.090030   -3.440443   -3.189373
    151          1           0       13.596391   -2.878080   -4.027530
    152          1           0       10.231174   -5.040563   -2.578922
    153          1           0        8.712151   -4.898654   -3.485895
    154          1           0        8.630875   -5.855871   -2.022828
    155          1           0        5.408653   -3.379022    1.339253
    156          1           0        1.837353   -3.437826   -1.201458
    157          1           0        2.052284   -2.211283    0.082982
    158          1           0        1.330389   -3.863072    0.454085
 ---------------------------------------------------------------------

 SCF Done:  E(RPBE1PBE) =  -4067.35226692     A.U. after   17 cycles

 Excitation energies and oscillator strengths:

 Excited State   1:      Singlet-A      1.7507 eV  708.18 nm  f=0.0000  <S**2>=0.000
     312 -> 313        0.70708
 This state for optimization and/or second-order correction.
 Total Energy, E(TD-HF/TD-DFT) =  -4067.28792847
 Copying the excited state density for this state as the 1-particle RhoCI density.

 Excited State   2:      Singlet-A      1.7972 eV  689.89 nm  f=0.1645  <S**2>=0.000
     310 -> 316       -0.15532
     311 -> 313        0.18649
     312 -> 314        0.66955
     312 <- 314       -0.10498

 Excited State   3:      Singlet-A      1.8161 eV  682.71 nm  f=0.5581  <S**2>=0.000
     309 -> 315        0.14436
     311 -> 313        0.67034
     312 -> 314       -0.18565
     311 <- 313       -0.11137

 Excited State   4:      Singlet-A      1.8873 eV  656.94 nm  f=0.0000  <S**2>=0.000
     311 -> 314        0.70708

 Excited State   5:      Singlet-A      2.1883 eV  566.57 nm  f=0.1394  <S**2>=0.000
     309 -> 313        0.64004
     310 -> 314        0.14393
     311 -> 315       -0.22180

 The electronic state is 1-A.
 Alpha  occ. eigenvalues --  -46.92594 -46.91272 -19.26320 -19.22693 -19.19640
 Alpha  occ. eigenvalues --  -19.19461 -19.19422 -19.18815 -19.18464 -19.18325
 Alpha  occ. eigenvalues --  -14.41960 -14.41513 -14.41484 -14.41470 -14.39790
 Alpha  occ. eigenvalues --  -14.39751 -14.38452 -14.38275 -10.35852 -10.34990
 Alpha  occ. eigenvalues --  -10.32618 -10.32161 -10.31484 -10.31428 -10.29787
 Alpha  occ. eigenvalues --  -10.29342 -10.29039 -10.29017 -10.28748 -10.28541
 Alpha  occ. eigenvalues --  -10.28460 -10.28370 -10.28312 -10.28202 -10.28111
 Alpha  occ. eigenvalues --  -10.28096 -10.27905 -10.27754 -10.27640 -10.27249
 Alpha  occ. eigenvalues --  -10.26983 -10.26918 -10.26635 -10.26544 -10.26522
 Alpha  occ. eigenvalues --  -10.26155 -10.26147 -10.26089 -10.26085 -10.25995
 Alpha  occ. eigenvalues --  -10.25978 -10.25929 -10.25723 -10.25601 -10.25476
 Alpha  occ. eigenvalues --  -10.25443 -10.25346 -10.25330 -10.25283 -10.25242
 Alpha  occ. eigenvalues --  -10.25239 -10.25095 -10.25015 -10.24994 -10.24778
 Alpha  occ. eigenvalues --  -10.24769 -10.24642 -10.24627 -10.24416 -10.24351
 Alpha  occ. eigenvalues --  -10.24308 -10.24114 -10.23898 -10.23877 -10.23808
 Alpha  occ. eigenvalues --  -10.23804 -10.23793 -10.23763 -10.23683 -10.23517
 Alpha  occ. eigenvalues --  -10.23491 -10.23270 -10.23249 -10.22747 -10.22558
 Alpha  occ. eigenvalues --  -10.22426  -3.14746  -3.13606  -1.87573  -1.87135
 Alpha  occ. eigenvalues --   -1.86961  -1.86417  -1.85991  -1.85848  -1.11415
 Alpha  occ. eigenvalues --   -1.10837  -1.06422  -1.04009  -1.03118  -1.02936
 Alpha  occ. eigenvalues --   -1.02454  -1.01680  -1.01394  -0.99405  -0.99089
 Alpha  occ. eigenvalues --   -0.98547  -0.97994  -0.97708  -0.96525  -0.95012
 Alpha  occ. eigenvalues --   -0.87082  -0.86978  -0.84094  -0.83381  -0.82936
 Alpha  occ. eigenvalues --   -0.82825  -0.82660  -0.82585  -0.81671  -0.81657
 Alpha  occ. eigenvalues --   -0.81480  -0.81205  -0.80812  -0.80714  -0.78544
 Alpha  occ. eigenvalues --   -0.78369  -0.78196  -0.77740  -0.76564  -0.76554
 Alpha  occ. eigenvalues --   -0.75922  -0.75863  -0.75187  -0.75122  -0.74723
 Alpha  occ. eigenvalues --   -0.74487  -0.72872  -0.72823  -0.71977  -0.71659
 Alpha  occ. eigenvalues --   -0.71157  -0.70902  -0.70372  -0.69813  -0.69498
 Alpha  occ. eigenvalues --   -0.69457  -0.67478  -0.67227  -0.66644  -0.66020
 Alpha  occ. eigenvalues --   -0.64886  -0.63667  -0.63531  -0.63042  -0.62627
 Alpha  occ. eigenvalues --   -0.62304  -0.62119  -0.61838  -0.61344  -0.60043
 Alpha  occ. eigenvalues --   -0.59837  -0.59696  -0.59453  -0.59363  -0.59073
 Alpha  occ. eigenvalues --   -0.58402  -0.57091  -0.55322  -0.54943  -0.54547
 Alpha  occ. eigenvalues --   -0.54239  -0.53890  -0.53757  -0.53515  -0.53405
 Alpha  occ. eigenvalues --   -0.53058  -0.52765  -0.52590  -0.52106  -0.51450
 Alpha  occ. eigenvalues --   -0.51302  -0.50964  -0.50787  -0.50316  -0.49983
 Alpha  occ. eigenvalues --   -0.49677  -0.49555  -0.48842  -0.48406  -0.48314
 Alpha  occ. eigenvalues --   -0.48191  -0.47681  -0.47558  -0.47463  -0.47183
 Alpha  occ. eigenvalues --   -0.47178  -0.46819  -0.46703  -0.46457  -0.46348
 Alpha  occ. eigenvalues --   -0.46305  -0.46120  -0.45923  -0.45875  -0.45783
 Alpha  occ. eigenvalues --   -0.45727  -0.45387  -0.45270  -0.45053  -0.44860
 Alpha  occ. eigenvalues --   -0.44797  -0.44689  -0.44548  -0.44408  -0.44252
 Alpha  occ. eigenvalues --   -0.44152  -0.44049  -0.43892  -0.43646  -0.43396
 Alpha  occ. eigenvalues --   -0.43329  -0.43185  -0.43109  -0.42967  -0.42652
 Alpha  occ. eigenvalues --   -0.42602  -0.42471  -0.42394  -0.42038  -0.41853
 Alpha  occ. eigenvalues --   -0.41598  -0.41551  -0.41461  -0.41448  -0.41078
 Alpha  occ. eigenvalues --   -0.41073  -0.41043  -0.40865  -0.40711  -0.40691
 Alpha  occ. eigenvalues --   -0.40549  -0.40094  -0.40070  -0.39955  -0.39819
 Alpha  occ. eigenvalues --   -0.39667  -0.39533  -0.39361  -0.39235  -0.39130
 Alpha  occ. eigenvalues --   -0.38959  -0.38948  -0.38732  -0.38343  -0.38339
 Alpha  occ. eigenvalues --   -0.38254  -0.38065  -0.38058  -0.37724  -0.37670
 Alpha  occ. eigenvalues --   -0.37577  -0.37468  -0.37157  -0.37068  -0.36895
 Alpha  occ. eigenvalues --   -0.36841  -0.36728  -0.36481  -0.36260  -0.36207
 Alpha  occ. eigenvalues --   -0.36159  -0.35975  -0.35807  -0.35740  -0.35333
 Alpha  occ. eigenvalues --   -0.35028  -0.35022  -0.34731  -0.34597  -0.33905
 Alpha  occ. eigenvalues --   -0.33721  -0.33596  -0.33261  -0.32741  -0.32666
 Alpha  occ. eigenvalues --   -0.32612  -0.32067  -0.31942  -0.31835  -0.31594
 Alpha  occ. eigenvalues --   -0.31089  -0.30226  -0.29645  -0.29575  -0.29098
 Alpha  occ. eigenvalues --   -0.29068  -0.28476  -0.28403  -0.27006  -0.26859
 Alpha  occ. eigenvalues --   -0.26300  -0.26120  -0.25992  -0.25439  -0.25347
 Alpha  occ. eigenvalues --   -0.25162  -0.24751  -0.24691  -0.21202  -0.21055
 Alpha  occ. eigenvalues --   -0.18991  -0.18765
 Alpha virt. eigenvalues --   -0.11619  -0.11334  -0.05711  -0.05344  -0.04168
 Alpha virt. eigenvalues --   -0.04007  -0.02289  -0.02094  -0.00822  -0.00467
 Alpha virt. eigenvalues --    0.00217   0.00913   0.01150   0.01357   0.01837

 Mulliken charges:
               1
     1  Mg  12.000000
     2  C    6.000004
     3  C    5.999999
     4  C    5.999998
     5  C    6.000000
     6  N    7.000001
     7  C    5.999995
     8  C    6.000001
     9  C    5.999998
    10  C    6.000006
    11  C    5.999999
    12  C    6.000003
    13  C    6.000004
    14  H    0.999994
    15  N    6.999999
    16  C    6.000006
    17  C    6.000003
    18  C    6.000003
    19  C    6.000004
    20  C    5.999999
    21  C    6.000002
    22  O    8.000003
    23  C    6.000000
    24  N    7.000000
    25  C    6.000004
    26  C    5.999999
    27  C    6.000001
    28  C    5.999996
    29  C    5.999999
    30  C    6.000001
    31  C    6.000000
    32  N    7.000000
    33  C    5.999997
    34  C    5.999996
    35  C    6.000000
    36  C    5.999996
    37  C    6.000000
    38  C    5.999998
    39  O    7.999998
    40  C    6.000000
    41  C    5.999999
    42  O    8.000000
    43  O    8.000000
    44  C    6.000000
    45  H    1.000001
    46  H    1.000001
    47  H    0.999999
    48  H    1.000000
    49  H    1.000001
    50  H    1.000000
    51  H    1.000002
    52  H    1.000000
    53  H    0.999998
    54  H    0.999999
    55  H    0.999999
    56  H    1.000001
    57  H    1.000002
    58  H    1.000002
    59  H    1.000002
    60  H    1.000001
    61  H    1.000001
    62  H    1.000001
    63  H    1.000000
    64  H    1.000000
    65  H    1.000000
    66  H    0.999999
    67  H    1.000001
    68  H    1.000000
    69  H    0.999998
    70  H    0.999999
    71  H    1.000000
    72  H    1.000001
    73  H    0.999998
    74  H    0.999998
    75  H    0.999998
    76  H    0.999999
    77  H    1.000000
    78  H    0.999999
    79  H    0.999999
    80  Mg  11.999999
    81  C    6.000003
    82  C    6.000000
    83  C    5.999992
    84  C    6.000002
    85  N    7.000004
    86  C    5.999992
    87  C    6.000003
    88  C    5.999998
    89  C    6.000007
    90  C    6.000001
    91  C    6.000001
    92  C    6.000001
    93  H    0.999997
    94  N    7.000000
    95  C    6.000010
    96  C    6.000010
    97  C    6.000003
    98  C    6.000010
    99  C    5.999999
   100  C    6.000004
   101  O    8.000010
   102  C    5.999998
   103  N    6.999998
   104  C    6.000011
   105  C    5.999996
   106  C    6.000004
   107  C    5.999990
   108  C    5.999999
   109  C    6.000002
   110  C    6.000000
   111  N    7.000000
   112  C    5.999986
   113  C    5.999992
   114  C    5.999997
   115  C    5.999990
   116  C    6.000000
   117  C    5.999994
   118  O    7.999988
   119  C    6.000000
   120  C    6.000001
   121  O    7.999996
   122  O    8.000000
   123  C    6.000001
   124  H    1.000003
   125  H    1.000002
   126  H    0.999996
   127  H    0.999999
   128  H    1.000000
   129  H    0.999999
   130  H    1.000000
   131  H    1.000000
   132  H    0.999997
   133  H    1.000001
   134  H    1.000001
   135  H    1.000002
   136  H    1.000006
   137  H    1.000005
   138  H    1.000006
   139  H    1.000004
   140  H    1.000003
   141  H    1.000002
   142  H    1.000001
   143  H    0.999999
   144  H    1.000003
   145  H    0.999999
   146  H    0.999999
   147  H    1.000000
   148  H    0.999996
   149  H    1.000002
   150  H    0.999998
   151  H    1.000000
   152  H    0.999994
   153  H    0.999994
   154  H    0.999996
   155  H    0.999996
   156  H    0.999999
   157  H    1.000000
   158  H    0.999997
 Sum of Mulliken charges = 624.00000

 Dipole moment (field-independent basis, Debye):
    X=              0.0002    Y=              0.0047    Z=              0.0011  Tot=              0.0048
 Quadrupole moment (field-independent basis, Debye-Ang):
   XX=              0.0115   YY=              0.0039   ZZ=             -0.0005
   XY=              0.0187   XZ=              0.0095   YZ=             -0.0002

 Normal termination of Gaussian 16 at Fri Oct 15 09:14:32 2021.
