 Gaussian 16, Revision A.03,
 Gaussian 16:  ES64L-G16RevA.03 25-Dec-2016

 --------------------------------------------------------
 #p PBE1PBE/Def2SVP td=(nstates=5) density=(transition=1)
 --------------------------------------------------------

 --------------------------------
 TDDFT excited states in gaussian
 --------------------------------
 Symbolic Z-matrix:
 Charge =  0 Multiplicity = 1

                         Standard orientation:
 ---------------------------------------------------------------------
 Center     Atomic      Atomic             Coordinates (Angstroms)
 Number     Number       Type             X           Y           Z
 ---------------------------------------------------------------------
      1         12           0      -26.479012   -0.435654   -0.278358
      2          6           0      -24.814430    2.555608   -0.504841
      3          6           0      -27.749591    0.572398    2.742716
      4          6           0      -28.078779   -3.498141    0.021766
      5          6           0      -24.824146   -1.574181   -3.104227
      6          7           0      -26.274699    1.365184    1.044594
      7          6           0      -25.593899    2.481848    0.650894
      8          6           0      -25.716267    3.541570    1.635672
      9          6           0      -26.463744    2.923297    2.806585
     10          6           0      -26.852594    1.498822    2.213766
     11          6           0      -25.738957    2.816639    4.192676
     12          6           0      -26.413998    4.810617    1.037992
     13          6           0      -25.956555    6.203557    1.593360
     14          1           0      -25.427794    6.245623    3.040522
     15          7           0      -27.835243   -1.268798    1.151845
     16          6           0      -28.234287   -0.655414    2.326980
     17          6           0      -29.151240   -1.559880    3.049906
     18          6           0      -29.265944   -2.776930    2.249015
     19          6           0      -28.402769   -2.552283    1.076418
     20          6           0      -29.791030   -1.249634    4.393310
     21          6           0      -30.178144   -3.956782    2.491194
     22          8           0      -30.205361   -4.879693    1.658165
     23          6           0      -31.040212   -4.127709    3.685632
     24          7           0      -26.407117   -2.312069   -1.331169
     25          6           0      -27.189093   -3.354342   -1.035645
     26          6           0      -27.065880   -4.449829   -2.107768
     27          6           0      -26.198096   -3.760055   -3.295998
     28          6           0      -25.849477   -2.419696   -2.557980
     29          6           0      -26.447147   -5.754821   -1.518585
     30          6           0      -26.972541   -3.478659   -4.612761
     31          6           0      -26.549838   -4.319745   -5.826549
     32          7           0      -25.034223    0.274361   -1.548293
     33          6           0      -24.428974   -0.303787   -2.666528
     34          6           0      -23.460987    0.640624   -3.267220
     35          6           0      -23.599753    1.755985   -2.407839
     36          6           0      -24.549178    1.481601   -1.387374
     37          6           0      -22.653267    0.470009   -4.458012
     38          6           0      -23.186497    3.163555   -2.231447
     39          8           0      -22.478205    3.877044   -2.890991
     40          6           0      -23.932573    3.710351   -0.962564
     41          6           0      -22.931024    4.262094   -0.036147
     42          8           0      -22.170234    3.504760    0.587691
     43          8           0      -23.015950    5.605552    0.166522
     44          6           0      -22.202126    6.208924    1.217136
     45          1           0      -28.137929    0.923958    3.700875
     46          1           0      -28.561624   -4.469002    0.153030
     47          1           0      -24.426305   -1.926624   -4.058040
     48          1           0      -24.710993    3.815239    1.957882
     49          1           0      -27.447465    3.376808    2.933381
     50          1           0      -24.729215    3.199051    4.345449
     51          1           0      -25.725495    1.766019    4.481669
     52          1           0      -26.311675    3.244056    5.016095
     53          1           0      -27.496246    4.696288    1.100558
     54          1           0      -26.343601    4.769474   -0.048792
     55          1           0      -26.773793    6.921451    1.518197
     56          1           0      -25.088497    6.604336    1.070792
     57          1           0      -29.616456   -0.228082    4.729269
     58          1           0      -29.379596   -1.883302    5.179491
     59          1           0      -30.876651   -1.244438    4.297495
     60          1           0      -31.630128   -5.026912    3.510634
     61          1           0      -31.697010   -3.277579    3.874595
     62          1           0      -30.417712   -4.162927    4.579862
     63          1           0      -28.060333   -4.586965   -2.532651
     64          1           0      -25.271490   -4.295930   -3.501465
     65          1           0      -27.014001   -6.653283   -1.762962
     66          1           0      -26.397761   -5.703694   -0.430563
     67          1           0      -25.428934   -5.760973   -1.908290
     68          1           0      -26.906797   -2.440971   -4.937699
     69          1           0      -28.045160   -3.633364   -4.493865
     70          1           0      -26.152923   -5.275646   -5.484578
     71          1           0      -25.754577   -3.784442   -6.344352
     72          1           0      -27.411222   -4.358552   -6.492069
     73          1           0      -22.297647    1.415762   -4.866298
     74          1           0      -23.168827   -0.064114   -5.255900
     75          1           0      -21.709126    0.018695   -4.152682
     76          1           0      -24.572842    4.469351   -1.413372
     77          1           0      -21.128474    6.169519    1.031221
     78          1           0      -22.468281    5.809067    2.195546
     79          1           0      -22.412193    7.277100    1.269376
     80         12           0       25.933746   -0.988859    0.155647
     81          6           0       26.768001    2.360832   -1.077636
     82          6           0       24.500877    0.616888    2.920497
     83          6           0       25.471467   -3.926681    1.490969
     84          6           0       27.229330   -2.332301   -2.721601
     85          7           0       25.852369    1.187271    0.931174
     86          6           0       26.136963    2.424119    0.214156
     87          6           0       25.817366    3.700149    1.022130
     88          6           0       25.271171    3.008021    2.401670
     89          6           0       25.199368    1.494989    2.116815
     90          6           0       26.102266    3.343293    3.624856
     91          6           0       24.828832    4.614224    0.236769
     92          6           0       24.213843    5.726935    1.031218
     93          1           0       24.114075    7.111879    0.431512
     94          7           0       25.113105   -1.615223    1.990177
     95          6           0       24.565910   -0.814676    2.999279
     96          6           0       24.047235   -1.661238    4.072123
     97          6           0       24.317571   -3.032934    3.669254
     98          6           0       24.999506   -2.941187    2.325509
     99          6           0       23.270547   -1.140044    5.336480
    100          6           0       24.079880   -4.326518    4.361448
    101          8           0       24.329356   -5.429259    3.892967
    102          6           0       23.392659   -4.350488    5.663571
    103          7           0       26.201628   -2.810878   -0.531018
    104          6           0       26.059066   -3.892322    0.237393
    105          6           0       26.409416   -5.203198   -0.505022
    106          6           0       26.526445   -4.705820   -1.930841
    107          6           0       26.735327   -3.154224   -1.734514
    108          6           0       27.686479   -5.861085    0.004708
    109          6           0       25.472688   -4.962808   -2.976775
    110          6           0       24.129460   -4.333141   -2.675475
    111          7           0       26.906779   -0.211471   -1.513672
    112          6           0       27.291926   -0.911616   -2.671219
    113          6           0       27.849580    0.023021   -3.617439
    114          6           0       27.567652    1.275774   -3.014372
    115          6           0       27.009627    1.098195   -1.734014
    116          6           0       28.384869   -0.243510   -4.994019
    117          6           0       27.658240    2.739237   -3.309635
    118          8           0       27.980433    3.345062   -4.354004
    119          6           0       27.172317    3.445885   -2.046126
    120          6           0       28.246397    4.410975   -1.539896
    121          8           0       29.411960    4.180600   -1.101415
    122          8           0       27.675010    5.648141   -1.491952
    123          6           0       28.526472    6.728342   -0.944197
    124          1           0       23.883779    1.116848    3.668651
    125          1           0       25.384870   -4.915998    1.944963
    126          1           0       27.681375   -2.690061   -3.649151
    127          1           0       26.759862    4.245250    1.072935
    128          1           0       24.223278    3.275684    2.537382
    129          1           0       25.456130    3.822983    4.360604
    130          1           0       26.859181    4.053716    3.294372
    131          1           0       26.779429    2.576390    4.000282
    132          1           0       24.127848    3.934092   -0.248354
    133          1           0       25.366458    5.067989   -0.595882
    134          1           0       24.693921    5.985570    1.974724
    135          1           0       23.164250    5.497609    1.212983
    136          1           0       22.277633   -1.582423    5.250683
    137          1           0       23.168057   -0.055399    5.366657
    138          1           0       23.818126   -1.512990    6.202119
    139          1           0       23.737000   -3.584092    6.358259
    140          1           0       23.633124   -5.336753    6.058948
    141          1           0       22.371435   -4.058105    5.421108
    142          1           0       25.580438   -5.891837   -0.341314
    143          1           0       27.400562   -5.116082   -2.437298
    144          1           0       27.528837   -6.938465    0.038902
    145          1           0       27.935379   -5.516054    1.007688
    146          1           0       28.486496   -5.748184   -0.727837
    147          1           0       25.421035   -6.039501   -3.140853
    148          1           0       25.723273   -4.465149   -3.913455
    149          1           0       23.306544   -5.027795   -2.839854
    150          1           0       23.900273   -3.494253   -3.333002
    151          1           0       24.016366   -3.984909   -1.648731
    152          1           0       27.893542    0.414245   -5.710579
    153          1           0       28.328238   -1.240616   -5.430610
    154          1           0       29.447156    0.000520   -4.970931
    155          1           0       26.325732    4.077554   -2.316686
    156          1           0       28.252712    6.922466    0.092645
    157          1           0       28.296464    7.504786   -1.673822
    158          1           0       29.590520    6.527786   -1.075826
 ---------------------------------------------------------------------

 SCF Done:  E(RPBE1PBE) =  -4067.42553330     A.U. after   16 cycles

 Excitation energies and oscillator strengths:

 Excited State   1:      Singlet-A      1.7856 eV  694.37 nm  f=0.0000  <S**2>=0.000
     312 -> 313        0.70711
 This state for optimization and/or second-order correction.
 Total Energy, E(TD-HF/TD-DFT) =  -4067.35991532
 Copying the excited state density for this state as the 1-particle RhoCI density.

 Excited State   2:      Singlet-A      1.8175 eV  682.18 nm  f=0.3862  <S**2>=0.000
     309 -> 315       -0.16217
     311 -> 313        0.69597
     311 <- 313       -0.11404

 Excited State   3:      Singlet-A      1.8897 eV  656.10 nm  f=0.3734  <S**2>=0.000
     310 -> 316        0.18011
     312 -> 314        0.68959
     312 <- 314       -0.10436

 Excited State   4:      Singlet-A      2.1799 eV  568.77 nm  f=0.1280  <S**2>=0.000
     309 -> 313        0.66143
     311 -> 315        0.23371

 Excited State   5:      Singlet-A      2.1931 eV  565.33 nm  f=0.0000  <S**2>=0.000
     311 -> 314        0.70711

 The electronic state is 1-A.
 Alpha  occ. eigenvalues --  -46.92294 -46.91164 -19.26596 -19.26515 -19.20011
 Alpha  occ. eigenvalues --  -19.19543 -19.19277 -19.18902 -19.18774 -19.18577
 Alpha  occ. eigenvalues --  -14.42088 -14.41660 -14.41331 -14.41237 -14.39521
 Alpha  occ. eigenvalues --  -14.39198 -14.38913 -14.38675 -10.37096 -10.36569
 Alpha  occ. eigenvalues --  -10.32065 -10.32038 -10.31989 -10.31613 -10.29914
 Alpha  occ. eigenvalues --  -10.29547 -10.29209 -10.29049 -10.28796 -10.28756
 Alpha  occ. eigenvalues --  -10.28651 -10.28575 -10.28341 -10.28341 -10.28144
 Alpha  occ. eigenvalues --  -10.28138 -10.27856 -10.27841 -10.27721 -10.27689
 Alpha  occ. eigenvalues --  -10.27316 -10.26835 -10.26832 -10.26822 -10.26804
 Alpha  occ. eigenvalues --  -10.26571 -10.26558 -10.26460 -10.26391 -10.26327
 Alpha  occ. eigenvalues --  -10.26094 -10.26080 -10.25818 -10.25815 -10.25709
 Alpha  occ. eigenvalues --  -10.25658 -10.25621 -10.25478 -10.25263 -10.25236
 Alpha  occ. eigenvalues --  -10.25126 -10.25099 -10.25095 -10.25009 -10.24844
 Alpha  occ. eigenvalues --  -10.24790 -10.24707 -10.24639 -10.24470 -10.24133
 Alpha  occ. eigenvalues --  -10.23711 -10.23693 -10.23681 -10.23552 -10.23549
 Alpha  occ. eigenvalues --  -10.23513 -10.23353 -10.23335 -10.23260 -10.23063
 Alpha  occ. eigenvalues --  -10.23033 -10.23028 -10.22923 -10.22813 -10.22724
 Alpha  occ. eigenvalues --  -10.21977  -3.14302  -3.13481  -1.87164  -1.86659
 Alpha  occ. eigenvalues --   -1.86531  -1.86328  -1.85868  -1.85706  -1.11206
 Alpha  occ. eigenvalues --   -1.10873  -1.05727  -1.04899  -1.03611  -1.02698
 Alpha  occ. eigenvalues --   -1.01922  -1.00657  -0.99756  -0.99661  -0.98734
 Alpha  occ. eigenvalues --   -0.98073  -0.97705  -0.96728  -0.95612  -0.95155
 Alpha  occ. eigenvalues --   -0.86853  -0.86767  -0.83994  -0.83436  -0.83129
 Alpha  occ. eigenvalues --   -0.82952  -0.82595  -0.82031  -0.81620  -0.81526
 Alpha  occ. eigenvalues --   -0.81090  -0.81081  -0.80475  -0.80340  -0.79018
 Alpha  occ. eigenvalues --   -0.78407  -0.78266  -0.77848  -0.77223  -0.76597
 Alpha  occ. eigenvalues --   -0.76308  -0.76013  -0.75813  -0.75534  -0.74916
 Alpha  occ. eigenvalues --   -0.74405  -0.72771  -0.72662  -0.71871  -0.71630
 Alpha  occ. eigenvalues --   -0.71621  -0.71205  -0.70563  -0.70328  -0.69809
 Alpha  occ. eigenvalues --   -0.69260  -0.67295  -0.67081  -0.66331  -0.65997
 Alpha  occ. eigenvalues --   -0.64587  -0.63818  -0.63567  -0.62759  -0.62484
 Alpha  occ. eigenvalues --   -0.62057  -0.61628  -0.61378  -0.60277  -0.59866
 Alpha  occ. eigenvalues --   -0.59623  -0.59584  -0.59231  -0.58899  -0.58755
 Alpha  occ. eigenvalues --   -0.58380  -0.57332  -0.56583  -0.54669  -0.54410
 Alpha  occ. eigenvalues --   -0.54129  -0.53795  -0.53794  -0.53710  -0.53236
 Alpha  occ. eigenvalues --   -0.52922  -0.52916  -0.52287  -0.51949  -0.51881
 Alpha  occ. eigenvalues --   -0.50817  -0.50704  -0.50452  -0.50336  -0.49989
 Alpha  occ. eigenvalues --   -0.49931  -0.49787  -0.49353  -0.49288  -0.48946
 Alpha  occ. eigenvalues --   -0.48536  -0.48079  -0.47860  -0.47627  -0.47494
 Alpha  occ. eigenvalues --   -0.47381  -0.47347  -0.47080  -0.46951  -0.46808
 Alpha  occ. eigenvalues --   -0.46622  -0.46266  -0.46130  -0.45835  -0.45823
 Alpha  occ. eigenvalues --   -0.45747  -0.45418  -0.45168  -0.45003  -0.44880
 Alpha  occ. eigenvalues --   -0.44810  -0.44536  -0.44495  -0.44432  -0.43943
 Alpha  occ. eigenvalues --   -0.43942  -0.43568  -0.43512  -0.43477  -0.43219
 Alpha  occ. eigenvalues --   -0.43159  -0.43068  -0.42940  -0.42780  -0.42752
 Alpha  occ. eigenvalues --   -0.42606  -0.42422  -0.42159  -0.42135  -0.41874
 Alpha  occ. eigenvalues --   -0.41788  -0.41734  -0.41484  -0.41373  -0.41328
 Alpha  occ. eigenvalues --   -0.40970  -0.40903  -0.40705  -0.40667  -0.40497
 Alpha  occ. eigenvalues --   -0.40471  -0.40288  -0.40201  -0.39931  -0.39759
 Alpha  occ. eigenvalues --   -0.39694  -0.39335  -0.39253  -0.39151  -0.39147
 Alpha  occ. eigenvalues --   -0.39088  -0.38844  -0.38615  -0.38439  -0.38360
 Alpha  occ. eigenvalues --   -0.38332  -0.37998  -0.37910  -0.37846  -0.37536
 Alpha  occ. eigenvalues --   -0.37480  -0.37353  -0.37047  -0.36992  -0.36690
 Alpha  occ. eigenvalues --   -0.36620  -0.36483  -0.36360  -0.36083  -0.35998
 Alpha  occ. eigenvalues --   -0.35774  -0.35736  -0.35559  -0.35355  -0.35283
 Alpha  occ. eigenvalues --   -0.34876  -0.34847  -0.34529  -0.34202  -0.34001
 Alpha  occ. eigenvalues --   -0.33848  -0.33173  -0.32493  -0.32334  -0.32208
 Alpha  occ. eigenvalues --   -0.32177  -0.31817  -0.31739  -0.31676  -0.31585
 Alpha  occ. eigenvalues --   -0.31186  -0.31092  -0.29534  -0.29275  -0.29132
 Alpha  occ. eigenvalues --   -0.28933  -0.28618  -0.28511  -0.27081  -0.26706
 Alpha  occ. eigenvalues --   -0.25854  -0.25814  -0.25786  -0.25686  -0.25562
 Alpha  occ. eigenvalues --   -0.25386  -0.25139  -0.25015  -0.21162  -0.20827
 Alpha  occ. eigenvalues --   -0.19107  -0.18512
 Alpha virt. eigenvalues --   -0.11698  -0.10796  -0.05236  -0.05226  -0.03874
 Alpha virt. eigenvalues --   -0.03662  -0.02205  -0.01835  -0.00327  -0.00249
 Alpha virt. eigenvalues --    0.00092   0.00333   0.01303   0.01471   0.01929

 Mulliken charges:
               1
     1  Mg  12.000000
     2  C    6.000000
     3  C    6.000000
     4  C    6.000000
     5  C    6.000000
     6  N    7.000000
     7  C    6.000000
     8  C    6.000000
     9  C    6.000000
    10  C    6.000000
    11  C    6.000000
    12  C    6.000000
    13  C    6.000000
    14  H    1.000000
    15  N    7.000000
    16  C    6.000000
    17  C    6.000000
    18  C    6.000000
    19  C    6.000000
    20  C    6.000000
    21  C    6.000000
    22  O    8.000000
    23  C    6.000000
    24  N    7.000000
    25  C    6.000000
    26  C    6.000000
    27  C    6.000000
    28  C    6.000000
    29  C    6.000000
    30  C    6.000000
    31  C    6.000000
    32  N    7.000000
    33  C    6.000000
    34  C    6.000000
    35  C    6.000000
    36  C    6.000000
    37  C    6.000000
    38  C    6.000000
    39  O    8.000000
    40  C    6.000000
    41  C    6.000000
    42  O    8.000000
    43  O    8.000000
    44  C    6.000000
    45  H    1.000000
    46  H    1.000000
    47  H    1.000000
    48  H    1.000000
    49  H    1.000000
    50  H    1.000000
    51  H    1.000000
    52  H    1.000000
    53  H    1.000000
    54  H    1.000000
    55  H    1.000000
    56  H    1.000000
    57  H    1.000000
    58  H    1.000000
    59  H    1.000000
    60  H    1.000000
    61  H    1.000000
    62  H    1.000000
    63  H    1.000000
    64  H    1.000000
    65  H    1.000000
    66  H    1.000000
    67  H    1.000000
    68  H    1.000000
    69  H    1.000000
    70  H    1.000000
    71  H    1.000000
    72  H    1.000000
    73  H    1.000000
    74  H    1.000000
    75  H    1.000000
    76  H    1.000000
    77  H    1.000000
    78  H    1.000000
    79  H    1.000000
    80  Mg  12.000000
    81  C    6.000000
    82  C    6.000000
    83  C    6.000000
    84  C    6.000000
    85  N    7.000000
    86  C    6.000000
    87  C    6.000000
    88  C    6.000000
    89  C    6.000000
    90  C    6.000000
    91  C    6.000000
    92  C    6.000000
    93  H    1.000000
    94  N    7.000000
    95  C    6.000000
    96  C    6.000000
    97  C    6.000000
    98  C    6.000000
    99  C    6.000000
   100  C    6.000000
   101  O    8.000000
   102  C    6.000000
   103  N    7.000000
   104  C    6.000000
   105  C    6.000000
   106  C    6.000000
   107  C    6.000000
   108  C    6.000000
   109  C    6.000000
   110  C    6.000000
   111  N    7.000000
   112  C    6.000000
   113  C    6.000000
   114  C    6.000000
   115  C    6.000000
   116  C    6.000000
   117  C    6.000000
   118  O    8.000000
   119  C    6.000000
   120  C    6.000000
   121  O    8.000000
   122  O    8.000000
   123  C    6.000000
   124  H    1.000000
   125  H    1.000000
   126  H    1.000000
   127  H    1.000000
   128  H    1.000000
   129  H    1.000000
   130  H    1.000000
   131  H    1.000000
   132  H    1.000000
   133  H    1.000000
   134  H    1.000000
   135  H    1.000000
   136  H    1.000000
   137  H    1.000000
   138  H    1.000000
   139  H    1.000000
   140  H    1.000000
   141  H    1.000000
   142  H    1.000000
   143  H    1.000000
   144  H    1.000000
   145  H    1.000000
   146  H    1.000000
   147  H    1.000000
   148  H    1.000000
   149  H    1.000000
   150  H    1.000000
   151  H    1.000000
   152  H    1.000000
   153  H    1.000000
   154  H    1.000000
   155  H    1.000000
   156  H    1.000000
   157  H    1.000000
   158  H    1.000000
 Sum of Mulliken charges = 624.00000

 Dipole moment (field-independent basis, Debye):
    X=             -0.0000    Y=              0.0000    Z=              0.0000  Tot=              0.0000
 Quadrupole moment (field-independent basis, Debye-Ang):
   XX=             -0.0000   YY=             -0.0000   ZZ=             -0.0000
   XY=             -0.0000   XZ=              0.0000   YZ=              0.0000

 Normal termination of Gaussian 16 at Fri Oct 15 01:33:21 2021.
