 Gaussian 16, Revision A.03,
 Gaussian 16:  ES64L-G16RevA.03 25-Dec-2016

 --------------------------------------------------------
 #p PBE1PBE/Def2SVP td=(nstates=5) density=(transition=1)
 --------------------------------------------------------

 --------------------------------
 TDDFT excited states in gaussian
 --------------------------------
 Symbolic Z-matrix:
 Charge =  0 Multiplicity = 1

                         Standard orientation:
 ---------------------------------------------------------------------
 Center     Atomic      Atomic             Coordinates (Angstroms)
 Number     Number       Type             X           Y           Z
 ---------------------------------------------------------------------
      1         12           0      -13.010299   -0.563902    0.350460
      2          6           0      -13.498898    2.470433   -1.261513
      3          6           0      -11.952153    1.055944    3.112805
      4          6           0      -12.411641   -3.552536    1.734136
      5          6           0      -13.969441   -2.156003   -2.617239
      6          7           0      -12.807108    1.565355    0.809216
      7          6           0      -13.134490    2.606739    0.082173
      8          6           0      -12.867399    3.912340    0.963956
      9          6           0      -11.759999    3.358061    1.835104
     10          6           0      -12.207503    1.869076    1.983397
     11          6           0      -10.386631    3.594868    1.170654
     12          6           0      -14.224526    4.455072    1.587578
     13          6           0      -14.179896    5.919216    2.035530
     14          1           0      -12.839081    6.631788    2.076063
     15          7           0      -12.461470   -1.159731    2.204462
     16          6           0      -12.132961   -0.305950    3.254831
     17          6           0      -12.008316   -1.138660    4.488611
     18          6           0      -12.078411   -2.538594    4.081435
     19          6           0      -12.246921   -2.415302    2.609079
     20          6           0      -11.778732   -0.543574    5.857696
     21          6           0      -12.046252   -3.889627    4.934632
     22          8           0      -12.193896   -5.014129    4.444141
     23          6           0      -11.839667   -3.739792    6.427442
     24          7           0      -13.055350   -2.509683   -0.352221
     25          6           0      -12.756345   -3.573817    0.388020
     26          6           0      -12.785747   -4.904243   -0.425867
     27          6           0      -13.510203   -4.427173   -1.692795
     28          6           0      -13.583959   -2.939241   -1.551717
     29          6           0      -11.390672   -5.539705   -0.682080
     30          6           0      -14.858229   -5.162503   -2.118172
     31          6           0      -16.144240   -4.453112   -1.847658
     32          7           0      -13.417644   -0.020053   -1.626256
     33          6           0      -13.847242   -0.743071   -2.687670
     34          6           0      -14.096407    0.048396   -3.839379
     35          6           0      -13.974981    1.376105   -3.321164
     36          6           0      -13.579502    1.222789   -2.011961
     37          6           0      -14.422524   -0.264593   -5.276704
     38          6           0      -14.076582    2.780571   -3.584900
     39          8           0      -14.363414    3.398982   -4.587188
     40          6           0      -13.930956    3.568121   -2.243847
     41          6           0      -12.947682    4.642721   -2.409766
     42          8           0      -11.779486    4.423767   -2.692173
     43          8           0      -13.511709    5.944028   -2.393855
     44          6           0      -12.585624    7.052503   -2.673967
     45          1           0      -11.553898    1.614031    3.961426
     46          1           0      -12.166173   -4.508223    2.200326
     47          1           0      -14.215099   -2.687578   -3.538567
     48          1           0      -12.536604    4.728133    0.322596
     49          1           0      -11.750899    3.747479    2.852819
     50          1           0       -9.925124    4.311431    1.850938
     51          1           0      -10.465519    4.016068    0.167558
     52          1           0       -9.844678    2.654034    1.264096
     53          1           0      -14.498754    3.862294    2.460682
     54          1           0      -14.945270    4.406743    0.770976
     55          1           0      -14.631793    5.953680    3.026366
     56          1           0      -14.849648    6.469368    1.375025
     57          1           0      -12.274480    0.422371    5.960600
     58          1           0      -10.744953   -0.416568    6.177413
     59          1           0      -12.266028   -1.182064    6.594412
     60          1           0      -10.949380   -3.115272    6.497470
     61          1           0      -11.607987   -4.667744    6.949450
     62          1           0      -12.735897   -3.319318    6.883889
     63          1           0      -13.368014   -5.670260    0.086039
     64          1           0      -12.773798   -4.507292   -2.491579
     65          1           0      -11.415167   -5.862368   -1.723223
     66          1           0      -11.097305   -6.365170   -0.035362
     67          1           0      -10.637851   -4.775859   -0.487211
     68          1           0      -14.844941   -6.170107   -1.702491
     69          1           0      -14.880840   -5.254680   -3.203794
     70          1           0      -16.572775   -4.179153   -2.812005
     71          1           0      -16.062447   -3.461283   -1.401332
     72          1           0      -16.895291   -5.055630   -1.336663
     73          1           0      -14.389860   -1.334157   -5.487208
     74          1           0      -13.788383    0.342701   -5.923236
     75          1           0      -15.445452   -0.066616   -5.597620
     76          1           0      -14.875609    4.011567   -1.930181
     77          1           0      -12.988450    8.047893   -2.488428
     78          1           0      -12.360404    6.921552   -3.732725
     79          1           0      -11.685435    6.825458   -2.104029
     80         12           0       12.657289   -0.696722   -0.441952
     81          6           0       14.614088    2.137271    0.015554
     82          6           0        9.922475    1.335519    0.206477
     83          6           0       10.773381   -3.527425   -0.376729
     84          6           0       15.528842   -2.570183   -0.889416
     85          7           0       12.322309    1.479023    0.108628
     86          6           0       13.272618    2.483917    0.207191
     87          6           0       12.681544    3.879059    0.652256
     88          6           0       11.206303    3.444794    1.005461
     89          6           0       11.128663    1.976467    0.446144
     90          6           0       10.704440    3.454745    2.452368
     91          6           0       12.836799    4.923957   -0.467885
     92          6           0       13.868825    6.001497   -0.262980
     93          1           0       13.515579    7.407447   -0.779785
     94          7           0       10.621685   -1.073531   -0.328110
     95          6           0        9.709112   -0.082386   -0.142312
     96          6           0        8.398800   -0.759764   -0.091002
     97          6           0        8.604673   -2.146887   -0.151809
     98          6           0        9.996165   -2.328969   -0.301605
     99          6           0        7.143542    0.014463   -0.107891
    100          6           0        7.621585   -3.276198   -0.051156
    101          8           0        7.930999   -4.486377   -0.233752
    102          6           0        6.244909   -3.106796    0.293128
    103          7           0       13.063248   -2.694645   -0.683516
    104          6           0       12.126244   -3.681167   -0.646874
    105          6           0       12.686458   -5.037056   -0.826812
    106          6           0       14.213969   -4.750507   -1.055781
    107          6           0       14.271845   -3.290433   -0.805480
    108          6           0       12.481638   -6.188738    0.200908
    109          6           0       14.811522   -5.269240   -2.455882
    110          6           0       14.718468   -4.448529   -3.776455
    111          7           0       14.666277   -0.375284   -0.411455
    112          6           0       15.715612   -1.216392   -0.646335
    113          6           0       16.903045   -0.487103   -0.752879
    114          6           0       16.491361    0.855438   -0.399499
    115          6           0       15.120803    0.859988   -0.232942
    116          6           0       18.286475   -0.995498   -1.154237
    117          6           0       16.999289    2.194868   -0.319334
    118          8           0       18.071301    2.715774   -0.551264
    119          6           0       15.793784    3.057513    0.194693
    120          6           0       16.013158    3.436805    1.604541
    121          8           0       15.351798    3.045243    2.591220
    122          8           0       17.056900    4.270959    1.804178
    123          6           0       17.243896    4.920036    3.146575
    124          1           0        9.073028    1.966387    0.474108
    125          1           0       10.230382   -4.473883   -0.329852
    126          1           0       16.458229   -3.058632   -1.191263
    127          1           0       13.017469    4.168284    1.648600
    128          1           0       10.563894    4.080960    0.396684
    129          1           0       10.556619    2.434081    2.806006
    130          1           0        9.686072    3.838716    2.414645
    131          1           0       11.324413    4.003931    3.161820
    132          1           0       11.875509    5.437507   -0.508670
    133          1           0       12.959386    4.392930   -1.411856
    134          1           0       14.777268    5.683485   -0.775223
    135          1           0       14.198683    6.147953    0.765632
    136          1           0        6.647008   -0.282861   -1.030653
    137          1           0        7.180137    1.103771   -0.065015
    138          1           0        6.517112   -0.289370    0.730743
    139          1           0        6.244488   -2.411168    1.131885
    140          1           0        5.747013   -4.071188    0.385229
    141          1           0        5.715003   -2.541371   -0.473462
    142          1           0       12.189363   -5.304754   -1.758737
    143          1           0       14.789849   -5.209873   -0.253247
    144          1           0       11.882346   -7.001660   -0.209197
    145          1           0       11.939400   -5.840067    1.080485
    146          1           0       13.415536   -6.585626    0.598759
    147          1           0       14.223773   -6.170795   -2.629962
    148          1           0       15.827896   -5.522393   -2.153849
    149          1           0       14.361133   -3.424973   -3.666554
    150          1           0       14.239677   -4.948765   -4.618733
    151          1           0       15.750291   -4.413750   -4.123602
    152          1           0       19.036560   -0.779614   -0.392683
    153          1           0       18.594124   -0.440248   -2.040175
    154          1           0       18.317118   -2.046086   -1.444270
    155          1           0       15.838754    4.016007   -0.322669
    156          1           0       17.952885    5.682370    2.823342
    157          1           0       17.638270    4.267394    3.924745
    158          1           0       16.293971    5.328812    3.492415
 ---------------------------------------------------------------------

 SCF Done:  E(RPBE1PBE) =  -4067.39183997     A.U. after   16 cycles

 Excitation energies and oscillator strengths:

 Excited State   1:      Singlet-A      1.8604 eV  666.44 nm  f=0.0000  <S**2>=0.000
     312 -> 313        0.70710
 This state for optimization and/or second-order correction.
 Total Energy, E(TD-HF/TD-DFT) =  -4067.32347213
 Copying the excited state density for this state as the 1-particle RhoCI density.

 Excited State   2:      Singlet-A      1.8652 eV  664.71 nm  f=0.3925  <S**2>=0.000
     310 -> 315       -0.16792
     311 -> 313       -0.11013
     312 -> 314        0.68295
     312 <- 314       -0.10765

 Excited State   3:      Singlet-A      1.8724 eV  662.15 nm  f=0.3577  <S**2>=0.000
     309 -> 316       -0.17350
     311 -> 313        0.68433
     312 -> 314        0.10978
     311 <- 313       -0.10524

 Excited State   4:      Singlet-A      2.0227 eV  612.96 nm  f=0.0000  <S**2>=0.000
     311 -> 314        0.70710

 Excited State   5:      Singlet-A      2.2175 eV  559.12 nm  f=0.1188  <S**2>=0.000
     309 -> 313        0.66275
     311 -> 316        0.23590

 The electronic state is 1-A.
 Alpha  occ. eigenvalues --  -46.91231 -46.90924 -19.24683 -19.24667 -19.20536
 Alpha  occ. eigenvalues --  -19.19786 -19.18497 -19.18496 -19.18394 -19.18157
 Alpha  occ. eigenvalues --  -14.41456 -14.41438 -14.41393 -14.41149 -14.39691
 Alpha  occ. eigenvalues --  -14.39175 -14.38482 -14.38046 -10.35979 -10.35520
 Alpha  occ. eigenvalues --  -10.34240 -10.31576 -10.31484 -10.31343 -10.29216
 Alpha  occ. eigenvalues --  -10.28934 -10.28728 -10.28588 -10.28569 -10.28453
 Alpha  occ. eigenvalues --  -10.28386 -10.28379 -10.28242 -10.28205 -10.28132
 Alpha  occ. eigenvalues --  -10.27865 -10.27778 -10.27704 -10.27669 -10.26902
 Alpha  occ. eigenvalues --  -10.26530 -10.26371 -10.26273 -10.26203 -10.26091
 Alpha  occ. eigenvalues --  -10.25972 -10.25966 -10.25957 -10.25946 -10.25816
 Alpha  occ. eigenvalues --  -10.25625 -10.25443 -10.25434 -10.25425 -10.25377
 Alpha  occ. eigenvalues --  -10.25311 -10.25301 -10.25238 -10.25097 -10.25090
 Alpha  occ. eigenvalues --  -10.24943 -10.24905 -10.24829 -10.24819 -10.24744
 Alpha  occ. eigenvalues --  -10.24689 -10.24467 -10.24340 -10.24324 -10.24302
 Alpha  occ. eigenvalues --  -10.24250 -10.24074 -10.23807 -10.23760 -10.23484
 Alpha  occ. eigenvalues --  -10.23481 -10.23457 -10.23406 -10.23330 -10.23269
 Alpha  occ. eigenvalues --  -10.23148 -10.23141 -10.22888 -10.22403 -10.22243
 Alpha  occ. eigenvalues --  -10.22053  -3.13570  -3.13216  -1.86425  -1.86069
 Alpha  occ. eigenvalues --   -1.85909  -1.85842  -1.85595  -1.85444  -1.09865
 Alpha  occ. eigenvalues --   -1.09322  -1.05061  -1.04575  -1.04313  -1.02592
 Alpha  occ. eigenvalues --   -1.01668  -1.00429  -0.99867  -0.99517  -0.99490
 Alpha  occ. eigenvalues --   -0.98843  -0.98751  -0.97852  -0.97766  -0.96861
 Alpha  occ. eigenvalues --   -0.87474  -0.86656  -0.83597  -0.83260  -0.82867
 Alpha  occ. eigenvalues --   -0.82719  -0.82599  -0.82570  -0.81822  -0.81632
 Alpha  occ. eigenvalues --   -0.81331  -0.81316  -0.80802  -0.80447  -0.78616
 Alpha  occ. eigenvalues --   -0.78577  -0.78070  -0.77925  -0.77069  -0.76963
 Alpha  occ. eigenvalues --   -0.76697  -0.76634  -0.75389  -0.75289  -0.74863
 Alpha  occ. eigenvalues --   -0.74503  -0.72871  -0.72797  -0.71816  -0.71657
 Alpha  occ. eigenvalues --   -0.71129  -0.71075  -0.70502  -0.70196  -0.69637
 Alpha  occ. eigenvalues --   -0.69482  -0.67545  -0.67393  -0.65766  -0.65678
 Alpha  occ. eigenvalues --   -0.64479  -0.63741  -0.63201  -0.63113  -0.62426
 Alpha  occ. eigenvalues --   -0.62419  -0.61491  -0.60936  -0.59663  -0.59640
 Alpha  occ. eigenvalues --   -0.59489  -0.59219  -0.59202  -0.58898  -0.58827
 Alpha  occ. eigenvalues --   -0.58469  -0.56065  -0.55952  -0.55109  -0.54481
 Alpha  occ. eigenvalues --   -0.54266  -0.54165  -0.53797  -0.53707  -0.53252
 Alpha  occ. eigenvalues --   -0.52752  -0.52601  -0.52239  -0.52156  -0.51826
 Alpha  occ. eigenvalues --   -0.50760  -0.50449  -0.50288  -0.50104  -0.50062
 Alpha  occ. eigenvalues --   -0.49453  -0.49377  -0.48912  -0.48482  -0.48388
 Alpha  occ. eigenvalues --   -0.48271  -0.47821  -0.47783  -0.47507  -0.47248
 Alpha  occ. eigenvalues --   -0.47184  -0.47089  -0.47005  -0.46975  -0.46688
 Alpha  occ. eigenvalues --   -0.46577  -0.46499  -0.46497  -0.45898  -0.45650
 Alpha  occ. eigenvalues --   -0.45397  -0.45245  -0.45145  -0.45093  -0.44949
 Alpha  occ. eigenvalues --   -0.44783  -0.44447  -0.44334  -0.44190  -0.44141
 Alpha  occ. eigenvalues --   -0.43986  -0.43931  -0.43652  -0.43590  -0.43534
 Alpha  occ. eigenvalues --   -0.43430  -0.43274  -0.43149  -0.43032  -0.42799
 Alpha  occ. eigenvalues --   -0.42593  -0.42404  -0.42392  -0.42056  -0.41881
 Alpha  occ. eigenvalues --   -0.41721  -0.41420  -0.41308  -0.41186  -0.41169
 Alpha  occ. eigenvalues --   -0.40977  -0.40808  -0.40766  -0.40565  -0.40531
 Alpha  occ. eigenvalues --   -0.40417  -0.40164  -0.40063  -0.39908  -0.39730
 Alpha  occ. eigenvalues --   -0.39574  -0.39489  -0.39186  -0.39033  -0.38878
 Alpha  occ. eigenvalues --   -0.38773  -0.38594  -0.38565  -0.38532  -0.38391
 Alpha  occ. eigenvalues --   -0.38168  -0.38124  -0.37989  -0.37827  -0.37753
 Alpha  occ. eigenvalues --   -0.37654  -0.37456  -0.37337  -0.37032  -0.36727
 Alpha  occ. eigenvalues --   -0.36436  -0.36312  -0.36243  -0.35985  -0.35962
 Alpha  occ. eigenvalues --   -0.35873  -0.35625  -0.35551  -0.35162  -0.35034
 Alpha  occ. eigenvalues --   -0.34923  -0.34791  -0.34589  -0.34167  -0.33811
 Alpha  occ. eigenvalues --   -0.33224  -0.33212  -0.33100  -0.32823  -0.32604
 Alpha  occ. eigenvalues --   -0.31902  -0.31753  -0.31578  -0.31462  -0.31274
 Alpha  occ. eigenvalues --   -0.30624  -0.30512  -0.29746  -0.29519  -0.29082
 Alpha  occ. eigenvalues --   -0.28769  -0.28631  -0.27558  -0.26895  -0.26671
 Alpha  occ. eigenvalues --   -0.26650  -0.26049  -0.25622  -0.25519  -0.25302
 Alpha  occ. eigenvalues --   -0.25193  -0.25006  -0.24879  -0.20887  -0.20599
 Alpha  occ. eigenvalues --   -0.19022  -0.18694
 Alpha virt. eigenvalues --   -0.11343  -0.11072  -0.04867  -0.04852  -0.04244
 Alpha virt. eigenvalues --   -0.03501  -0.02078  -0.02018   0.00073   0.00627
 Alpha virt. eigenvalues --    0.00824   0.00849   0.01355   0.01450   0.01938

 Mulliken charges:
               1
     1  Mg  12.000000
     2  C    6.000000
     3  C    6.000000
     4  C    6.000000
     5  C    6.000000
     6  N    7.000000
     7  C    6.000000
     8  C    6.000000
     9  C    6.000000
    10  C    6.000000
    11  C    6.000000
    12  C    6.000000
    13  C    6.000000
    14  H    1.000000
    15  N    7.000000
    16  C    6.000000
    17  C    6.000000
    18  C    6.000000
    19  C    6.000000
    20  C    6.000000
    21  C    6.000000
    22  O    8.000000
    23  C    6.000000
    24  N    7.000000
    25  C    6.000000
    26  C    6.000000
    27  C    6.000000
    28  C    6.000000
    29  C    6.000000
    30  C    6.000000
    31  C    6.000000
    32  N    7.000000
    33  C    6.000000
    34  C    6.000000
    35  C    6.000000
    36  C    6.000000
    37  C    6.000000
    38  C    6.000000
    39  O    8.000000
    40  C    6.000000
    41  C    6.000000
    42  O    8.000000
    43  O    8.000000
    44  C    6.000000
    45  H    1.000000
    46  H    1.000000
    47  H    1.000000
    48  H    1.000000
    49  H    1.000000
    50  H    1.000000
    51  H    1.000000
    52  H    1.000000
    53  H    1.000000
    54  H    1.000000
    55  H    1.000000
    56  H    1.000000
    57  H    1.000000
    58  H    1.000000
    59  H    1.000000
    60  H    1.000000
    61  H    1.000000
    62  H    1.000000
    63  H    1.000000
    64  H    1.000000
    65  H    1.000000
    66  H    1.000000
    67  H    1.000000
    68  H    1.000000
    69  H    1.000000
    70  H    1.000000
    71  H    1.000000
    72  H    1.000000
    73  H    1.000000
    74  H    1.000000
    75  H    1.000000
    76  H    1.000000
    77  H    1.000000
    78  H    1.000000
    79  H    1.000000
    80  Mg  12.000000
    81  C    6.000000
    82  C    6.000000
    83  C    6.000000
    84  C    6.000000
    85  N    7.000000
    86  C    6.000000
    87  C    6.000000
    88  C    6.000000
    89  C    6.000000
    90  C    6.000000
    91  C    6.000000
    92  C    6.000000
    93  H    1.000000
    94  N    7.000000
    95  C    6.000000
    96  C    6.000000
    97  C    6.000000
    98  C    6.000000
    99  C    6.000000
   100  C    6.000000
   101  O    8.000000
   102  C    6.000000
   103  N    7.000000
   104  C    6.000000
   105  C    6.000000
   106  C    6.000000
   107  C    6.000000
   108  C    6.000000
   109  C    6.000000
   110  C    6.000000
   111  N    7.000000
   112  C    6.000000
   113  C    6.000000
   114  C    6.000000
   115  C    6.000000
   116  C    6.000000
   117  C    6.000000
   118  O    8.000000
   119  C    6.000000
   120  C    6.000000
   121  O    8.000000
   122  O    8.000000
   123  C    6.000000
   124  H    1.000000
   125  H    1.000000
   126  H    1.000000
   127  H    1.000000
   128  H    1.000000
   129  H    1.000000
   130  H    1.000000
   131  H    1.000000
   132  H    1.000000
   133  H    1.000000
   134  H    1.000000
   135  H    1.000000
   136  H    1.000000
   137  H    1.000000
   138  H    1.000000
   139  H    1.000000
   140  H    1.000000
   141  H    1.000000
   142  H    1.000000
   143  H    1.000000
   144  H    1.000000
   145  H    1.000000
   146  H    1.000000
   147  H    1.000000
   148  H    1.000000
   149  H    1.000000
   150  H    1.000000
   151  H    1.000000
   152  H    1.000000
   153  H    1.000000
   154  H    1.000000
   155  H    1.000000
   156  H    1.000000
   157  H    1.000000
   158  H    1.000000
 Sum of Mulliken charges = 624.00000

 Dipole moment (field-independent basis, Debye):
    X=             -0.0000    Y=             -0.0000    Z=              0.0000  Tot=              0.0000
 Quadrupole moment (field-independent basis, Debye-Ang):
   XX=             -0.0000   YY=             -0.0000   ZZ=             -0.0000
   XY=             -0.0000   XZ=              0.0000   YZ=             -0.0000

 Normal termination of Gaussian 16 at Fri Oct 15 17:52:43 2021.
