 Gaussian 16, Revision A.03,
 Gaussian 16:  ES64L-G16RevA.03 25-Dec-2016

 ---------------------------------------------------------
 #p PBE1PBE/Def2SVP td=(nstates=5, root=1) density=current
 ---------------------------------------------------------

 --------------------------------
 TDDFT excited states in gaussian
 --------------------------------
 Symbolic Z-matrix:
 Charge =  0 Multiplicity = 1

                         Standard orientation:
 ---------------------------------------------------------------------
 Center     Atomic      Atomic             Coordinates (Angstroms)
 Number     Number       Type             X           Y           Z
 ---------------------------------------------------------------------
      1         12           0       -0.756077    0.161410   -0.439919
      2          6           0        2.772076    0.267154    0.204414
      3          6           0       -0.444468   -3.370978   -0.009791
      4          6           0       -4.070168   -0.153878    0.014236
      5          6           0       -0.852251    3.560535   -0.075213
      6          7           0        0.959815   -1.305977    0.070929
      7          6           0        2.285572   -1.044040    0.258642
      8          6           0        3.106342   -2.352122    0.533943
      9          6           0        2.068975   -3.471849    0.043155
     10          6           0        0.771771   -2.682092    0.114901
     11          6           0        2.302815   -3.978481   -1.361588
     12          6           0        3.652878   -2.436647    1.949493
     13          6           0        5.118574   -2.912290    2.124199
     14          1           0        5.448458   -4.416734    2.555109
     15          7           0       -2.145138   -1.578406   -0.140752
     16          6           0       -1.780011   -2.939915   -0.090541
     17          6           0       -3.000165   -3.750879    0.002553
     18          6           0       -4.087881   -2.792239   -0.037930
     19          6           0       -3.486813   -1.477658    0.030782
     20          6           0       -3.087029   -5.223143    0.151933
     21          6           0       -5.550450   -3.145790   -0.139750
     22          8           0       -5.844990   -4.300291   -0.353297
     23          6           0       -6.680829   -2.151601   -0.006018
     24          7           0       -2.148085    1.498962    0.024373
     25          6           0       -3.487714    1.121642   -0.004079
     26          6           0       -4.322537    2.384120    0.222888
     27          6           0       -3.308723    3.560836   -0.022997
     28          6           0       -2.014412    2.821408   -0.072774
     29          6           0       -5.690549    2.519031   -0.541401
     30          6           0       -3.331029    4.768201    0.963936
     31          6           0       -3.506041    6.137359    0.392319
     32          7           0        0.619949    1.652015   -0.147869
     33          6           0        0.456804    3.025277   -0.093719
     34          6           0        1.762867    3.709956   -0.149115
     35          6           0        2.691855    2.613482    0.034927
     36          6           0        1.932979    1.439110    0.038268
     37          6           0        2.089713    5.175800   -0.261474
     38          6           0        4.146920    2.301697    0.151483
     39          8           0        5.095298    3.028691    0.236996
     40          6           0        4.199490    0.794148    0.377114
     41          6           0        5.111753    0.208090   -0.658762
     42          8           0        4.781681    0.258175   -1.824172
     43          8           0        6.271674   -0.461365   -0.165350
     44          6           0        7.077251   -1.225072   -1.165892
     45          1           0       -0.384969   -4.459037    0.063431
     46          1           0       -5.151687   -0.079780    0.139607
     47          1           0       -0.920658    4.646876   -0.159145
     48          1           0        3.926977   -2.471537   -0.172864
     49          1           0        1.982563   -4.280152    0.769199
     50          1           0        1.875846   -3.259938   -2.060847
     51          1           0        1.857778   -4.971609   -1.421150
     52          1           0        3.327725   -4.091909   -1.716381
     53          1           0        3.038877   -3.175647    2.463332
     54          1           0        3.410828   -1.502082    2.455486
     55          1           0        5.505278   -2.233634    2.884832
     56          1           0        5.730498   -2.762739    1.234573
     57          1           0       -3.271763   -5.618375   -0.846491
     58          1           0       -3.987073   -5.472206    0.714146
     59          1           0       -2.266957   -5.779790    0.607086
     60          1           0       -7.681696   -2.582567    0.009768
     61          1           0       -6.607986   -1.510812   -0.884844
     62          1           0       -6.672107   -1.440793    0.819455
     63          1           0       -4.637036    2.250023    1.258286
     64          1           0       -3.409457    3.881157   -1.059557
     65          1           0       -5.714080    1.856791   -1.407257
     66          1           0       -5.877849    3.559222   -0.807280
     67          1           0       -6.517522    2.267609    0.122319
     68          1           0       -2.411442    4.758490    1.548964
     69          1           0       -4.090803    4.550895    1.714567
     70          1           0       -2.555964    6.668709    0.444125
     71          1           0       -4.229763    6.692215    0.989210
     72          1           0       -3.835607    6.213620   -0.643635
     73          1           0        3.100531    5.323474   -0.641106
     74          1           0        1.974574    5.593754    0.738997
     75          1           0        1.307678    5.645427   -0.858386
     76          1           0        4.480245    0.630725    1.417690
     77          1           0        7.700763   -0.529211   -1.727497
     78          1           0        6.430914   -1.708725   -1.897998
     79          1           0        7.677334   -1.991484   -0.675745
 ---------------------------------------------------------------------

 SCF Done:  E(RPBE1PBE) =  -2033.68788569     A.U. after   15 cycles

 Excitation energies and oscillator strengths:

 Excited State   1:      Singlet-A      1.8362 eV  675.21 nm  f=0.3827  <S**2>=0.000
     155 ->158         0.16422
     156 ->157         0.69670
     156 <-157        -0.11953
 This state for optimization and/or second-order correction.
 Total Energy, E(TD-HF/TD-DFT) =  -2033.62040569
 Copying the excited state density for this state as the 1-particle RhoCI density.

 Excited State   2:      Singlet-A      2.2360 eV  554.48 nm  f=0.1176  <S**2>=0.000
     154 ->157         0.10035
     155 ->157         0.64815
     156 ->158        -0.25670

 Excited State   3:      Singlet-A      2.7691 eV  447.74 nm  f=0.0114  <S**2>=0.000
     154 ->157         0.69137

 Excited State   4:      Singlet-A      2.9773 eV  416.43 nm  f=0.0032  <S**2>=0.000
     153 ->157         0.68565

 Excited State   5:      Singlet-A      3.0058 eV  412.49 nm  f=0.0068  <S**2>=0.000
     152 ->157         0.68691

 The electronic state is 1-A.
 Alpha  occ. eigenvalues --  -46.92734 -19.25858 -19.20858 -19.19829 -19.18234
 Alpha  occ. eigenvalues --  -14.42124 -14.41354 -14.39000 -14.38821 -10.37178
 Alpha  occ. eigenvalues --  -10.32472 -10.31686 -10.29454 -10.29124 -10.29019
 Alpha  occ. eigenvalues --  -10.28483 -10.28183 -10.27942 -10.27917 -10.27278
 Alpha  occ. eigenvalues --  -10.26786 -10.26702 -10.26387 -10.26365 -10.26349
 Alpha  occ. eigenvalues --  -10.26242 -10.25921 -10.25765 -10.25571 -10.25456
 Alpha  occ. eigenvalues --  -10.24780 -10.24716 -10.24467 -10.24329 -10.24223
 Alpha  occ. eigenvalues --  -10.24067 -10.24036 -10.23930 -10.23505 -10.23227
 Alpha  occ. eigenvalues --  -10.23213 -10.23178 -10.22828  -3.14880  -1.87666
 Alpha  occ. eigenvalues --   -1.87261  -1.87109  -1.10014  -1.06402  -1.04999
 Alpha  occ. eigenvalues --   -1.02637  -0.99236  -0.98192  -0.97373  -0.96195
 Alpha  occ. eigenvalues --   -0.87031  -0.83724  -0.83140  -0.82784  -0.81900
 Alpha  occ. eigenvalues --   -0.80548  -0.79958  -0.78759  -0.78274  -0.76765
 Alpha  occ. eigenvalues --   -0.76024  -0.74845  -0.74514  -0.72494  -0.71792
 Alpha  occ. eigenvalues --   -0.71093  -0.70596  -0.69601  -0.67104  -0.66226
 Alpha  occ. eigenvalues --   -0.63911  -0.63307  -0.62345  -0.61136  -0.60399
 Alpha  occ. eigenvalues --   -0.59516  -0.59138  -0.58839  -0.56871  -0.54352
 Alpha  occ. eigenvalues --   -0.53986  -0.53790  -0.53471  -0.52998  -0.52242
 Alpha  occ. eigenvalues --   -0.51110  -0.50196  -0.50052  -0.48798  -0.48440
 Alpha  occ. eigenvalues --   -0.47900  -0.47727  -0.47486  -0.46887  -0.46331
 Alpha  occ. eigenvalues --   -0.46250  -0.45892  -0.45568  -0.45469  -0.45080
 Alpha  occ. eigenvalues --   -0.44489  -0.44436  -0.44308  -0.43932  -0.43786
 Alpha  occ. eigenvalues --   -0.43320  -0.43272  -0.42820  -0.42383  -0.41839
 Alpha  occ. eigenvalues --   -0.41664  -0.41109  -0.41027  -0.40873  -0.40817
 Alpha  occ. eigenvalues --   -0.40691  -0.40609  -0.39954  -0.39657  -0.39382
 Alpha  occ. eigenvalues --   -0.38605  -0.38440  -0.38261  -0.38123  -0.37794
 Alpha  occ. eigenvalues --   -0.37500  -0.37428  -0.37177  -0.36808  -0.36395
 Alpha  occ. eigenvalues --   -0.36027  -0.35653  -0.35527  -0.35209  -0.34233
 Alpha  occ. eigenvalues --   -0.33445  -0.32686  -0.32346  -0.32040  -0.31563
 Alpha  occ. eigenvalues --   -0.30853  -0.29786  -0.29557  -0.28830  -0.26849
 Alpha  occ. eigenvalues --   -0.26345  -0.25321  -0.25235  -0.24402  -0.21204
 Alpha  occ. eigenvalues --   -0.18781
 Alpha virt. eigenvalues --   -0.11398  -0.05024  -0.03546  -0.01962  -0.01550
 Alpha virt. eigenvalues --   -0.00210   0.00240   0.01248   0.03070   0.03828
 Alpha virt. eigenvalues --    0.04952   0.05377   0.05716   0.06074   0.06723

 Mulliken charges:
               1
     1  Mg   0.978369
     2  C   -0.086270
     3  C   -0.052200
     4  C   -0.079995
     5  C   -0.107542
     6  N   -0.360970
     7  C    0.030692
     8  C   -0.093963
     9  C   -0.153106
    10  C    0.080268
    11  C    0.035428
    12  C    0.028555
    13  C   -0.129374
    14  H    0.030429
    15  N   -0.450515
    16  C    0.132524
    17  C   -0.159946
    18  C   -0.077047
    19  C    0.181511
    20  C    0.073011
    21  C    0.035935
    22  O   -0.241591
    23  C   -0.022715
    24  N   -0.492615
    25  C    0.114316
    26  C   -0.156881
    27  C   -0.062907
    28  C    0.108784
    29  C    0.002231
    30  C   -0.017069
    31  C   -0.061353
    32  N   -0.478773
    33  C    0.140426
    34  C   -0.186530
    35  C   -0.110762
    36  C    0.201193
    37  C    0.078187
    38  C    0.146056
    39  O   -0.190198
    40  C   -0.057280
    41  C    0.301220
    42  O   -0.239682
    43  O   -0.407749
    44  C    0.119208
    45  H    0.000053
    46  H   -0.021633
    47  H   -0.001694
    48  H    0.047047
    49  H    0.039855
    50  H    0.051708
    51  H    0.049195
    52  H    0.042782
    53  H    0.045097
    54  H    0.050156
    55  H    0.061308
    56  H    0.060194
    57  H    0.059064
    58  H    0.058256
    59  H    0.039144
    60  H    0.051202
    61  H    0.055437
    62  H    0.060555
    63  H    0.068437
    64  H    0.051576
    65  H    0.053105
    66  H    0.045664
    67  H    0.037933
    68  H    0.049425
    69  H    0.034826
    70  H    0.043411
    71  H    0.042773
    72  H    0.042383
    73  H    0.075681
    74  H    0.059201
    75  H    0.039807
    76  H    0.078171
    77  H    0.066987
    78  H    0.054873
    79  H    0.066710
 Sum of Mulliken charges =  -0.00000

 Dipole moment (field-independent basis, Debye):
    X=             -1.8259    Y=              1.4400    Z=              0.0392  Tot=              2.3258
 Quadrupole moment (field-independent basis, Debye-Ang):
   XX=           -262.7913   YY=           -248.2535   ZZ=           -257.5061
   XY=            -53.3647   XZ=             -4.5628   YZ=              0.6600

 Normal termination of Gaussian 16 at Wed Oct 13 14:07:35 2021.
