 Gaussian 16, Revision A.03,
 Gaussian 16:  ES64L-G16RevA.03 25-Dec-2016

 --------------------------------------------------------
 #p PBE1PBE/Def2SVP td=(nstates=5) density=(transition=1)
 --------------------------------------------------------

 --------------------------------
 TDDFT excited states in gaussian
 --------------------------------
 Symbolic Z-matrix:
 Charge =  0 Multiplicity = 1

                         Standard orientation:
 ---------------------------------------------------------------------
 Center     Atomic      Atomic             Coordinates (Angstroms)
 Number     Number       Type             X           Y           Z
 ---------------------------------------------------------------------
      1         12           0       -9.335825    0.191376    0.770385
      2          6           0       -8.798941   -2.130074   -1.832884
      3          6           0       -6.357132   -0.863441    2.247690
      4          6           0       -9.374972    3.058204    2.612706
      5          6           0      -12.054534    1.451109   -1.192153
      6          7           0       -7.826049   -1.319504    0.272055
      7          6           0       -7.797295   -2.108689   -0.822789
      8          6           0       -6.471535   -2.934920   -0.885125
      9          6           0       -5.953439   -2.753674    0.615352
     10          6           0       -6.797336   -1.549867    1.146182
     11          6           0       -6.104478   -3.892651    1.649098
     12          6           0       -5.529637   -2.305198   -1.979889
     13          6           0       -4.689657   -3.347883   -2.768506
     14          1           0       -3.194352   -2.929067   -3.075605
     15          7           0       -8.130334    0.920009    2.412598
     16          6           0       -7.000343    0.285128    2.855380
     17          6           0       -6.529763    1.024053    3.964770
     18          6           0       -7.308081    2.212598    4.094044
     19          6           0       -8.378734    2.101799    3.047449
     20          6           0       -5.331680    0.653434    4.806607
     21          6           0       -7.015810    3.382462    4.970533
     22          8           0       -5.997935    3.448438    5.640849
     23          6           0       -7.836783    4.560862    5.071547
     24          7           0      -10.518492    2.063291    0.612046
     25          6           0      -10.414050    3.012318    1.639699
     26          6           0      -11.504829    4.031145    1.527954
     27          6           0      -12.344556    3.581617    0.275468
     28          6           0      -11.630777    2.308906   -0.146374
     29          6           0      -12.295239    4.062303    2.842314
     30          6           0      -12.594354    4.734943   -0.767835
     31          6           0      -14.021179    5.049152   -1.101656
     32          7           0      -10.317554   -0.242878   -1.138124
     33          6           0      -11.417862    0.328584   -1.728627
     34          6           0      -11.831428   -0.453079   -2.914670
     35          6           0      -10.758334   -1.380341   -2.988925
     36          6           0       -9.950748   -1.263695   -1.873166
     37          6           0      -12.960095   -0.193376   -3.900086
     38          6           0      -10.173380   -2.370516   -3.853536
     39          8           0      -10.533766   -2.761234   -4.974839
     40          6           0       -8.916612   -2.930073   -3.187506
     41          6           0       -8.993719   -4.396071   -3.046047
     42          8           0       -8.202324   -5.121487   -3.529835
     43          8           0       -9.937333   -4.811021   -2.151402
     44          6           0       -9.785912   -6.253562   -1.862166
     45          1           0       -5.471649   -1.220021    2.778863
     46          1           0       -9.383313    3.905007    3.300764
     47          1           0      -12.815890    1.707034   -1.932712
     48          1           0       -6.726996   -3.964649   -1.135729
     49          1           0       -4.986886   -2.260496    0.717268
     50          1           0       -6.940501   -4.539742    1.381255
     51          1           0       -6.216733   -3.590713    2.690461
     52          1           0       -5.198273   -4.490796    1.559763
     53          1           0       -4.883226   -1.543641   -1.542748
     54          1           0       -6.209429   -1.793245   -2.661050
     55          1           0       -5.248655   -3.468396   -3.696627
     56          1           0       -4.808770   -4.251011   -2.169539
     57          1           0       -5.296363    1.076898    5.810447
     58          1           0       -4.488700    1.009390    4.214955
     59          1           0       -5.053418   -0.400352    4.822249
     60          1           0       -8.809879    4.234483    5.440737
     61          1           0       -7.898312    5.081838    4.115657
     62          1           0       -7.375952    5.241150    5.787808
     63          1           0      -11.097510    4.998258    1.234165
     64          1           0      -13.294755    3.079256    0.458063
     65          1           0      -11.783391    3.562322    3.664945
     66          1           0      -13.256316    3.556891    2.747495
     67          1           0      -12.305765    5.078494    3.235333
     68          1           0      -12.054684    4.415476   -1.659357
     69          1           0      -12.275820    5.718491   -0.424414
     70          1           0      -14.119328    4.977204   -2.184508
     71          1           0      -14.284421    6.073125   -0.835897
     72          1           0      -14.736524    4.453989   -0.533979
     73          1           0      -12.692027    0.536081   -4.664642
     74          1           0      -13.900431    0.074514   -3.416673
     75          1           0      -13.001692   -1.151104   -4.418712
     76          1           0       -8.063235   -2.804252   -3.852611
     77          1           0      -10.560074   -6.529752   -1.145805
     78          1           0       -8.794982   -6.464178   -1.460161
     79          1           0      -10.013790   -6.906791   -2.703755
     80         12           0        9.448108    0.587819   -0.471262
     81          6           0        8.669969   -2.502815    0.843441
     82          6           0        5.927704    1.037797   -0.953097
     83          6           0       10.052596    3.383836   -2.042899
     84          6           0       12.827456   -0.118824   -0.257095
     85          7           0        7.517406   -0.751406   -0.263073
     86          6           0        7.486081   -1.836873    0.491698
     87          6           0        6.038092   -2.141849    0.969098
     88          6           0        5.228809   -1.321915   -0.095663
     89          6           0        6.249218   -0.246235   -0.500995
     90          6           0        4.774984   -2.204400   -1.312420
     91          6           0        5.935981   -1.587661    2.407590
     92          6           0        4.638542   -1.892243    3.168714
     93          1           0        3.444821   -2.473941    2.438330
     94          7           0        8.260957    2.087625   -1.285618
     95          6           0        6.824824    2.084033   -1.344364
     96          6           0        6.440752    3.411045   -1.805864
     97          6           0        7.650644    4.142089   -2.021470
     98          6           0        8.749932    3.199070   -1.820698
     99          6           0        4.956959    3.913406   -1.961343
    100          6           0        7.784970    5.660302   -2.374363
    101          8           0        8.876893    6.083385   -2.638798
    102          6           0        6.578391    6.540703   -2.416980
    103          7           0       11.218723    1.554037   -0.989121
    104          6           0       11.234154    2.734053   -1.649104
    105          6           0       12.642780    3.208318   -2.004546
    106          6           0       13.522103    2.146374   -1.304470
    107          6           0       12.436938    1.106296   -0.808804
    108          6           0       12.948063    3.344246   -3.541516
    109          6           0       14.516963    2.634178   -0.282385
    110          6           0       14.111682    3.647889    0.814751
    111          7           0       10.601445   -0.954693    0.130844
    112          6           0       11.955952   -1.120590    0.180640
    113          6           0       12.206945   -2.377787    0.853178
    114          6           0       10.948974   -2.988813    1.184960
    115          6           0        9.999162   -2.052667    0.692018
    116          6           0       13.573977   -2.922411    1.127479
    117          6           0       10.286329   -4.127678    1.725876
    118          8           0       10.700608   -5.201033    2.215377
    119          6           0        8.747976   -3.920324    1.245711
    120          6           0        7.865948   -4.429861    2.386759
    121          8           0        7.933901   -4.089538    3.505611
    122          8           0        7.024689   -5.377145    1.876309
    123          6           0        5.863113   -5.747606    2.658316
    124          1           0        4.860189    1.139192   -1.157244
    125          1           0       10.312231    4.282515   -2.606331
    126          1           0       13.876146   -0.410102   -0.177350
    127          1           0        5.780193   -3.195034    0.858754
    128          1           0        4.403481   -0.905087    0.482066
    129          1           0        3.710971   -2.420563   -1.224468
    130          1           0        5.373014   -3.115853   -1.303338
    131          1           0        4.875160   -1.702802   -2.274993
    132          1           0        5.968014   -0.500693    2.337561
    133          1           0        6.821110   -1.818475    2.999565
    134          1           0        4.368697   -1.115419    3.884486
    135          1           0        4.932593   -2.641907    3.903555
    136          1           0        4.770043    4.359152   -2.938765
    137          1           0        4.795169    4.603525   -1.133453
    138          1           0        4.271759    3.087420   -1.766906
    139          1           0        7.004488    7.512570   -2.166956
    140          1           0        5.874076    6.328351   -1.613463
    141          1           0        5.869093    6.470435   -3.241591
    142          1           0       12.736661    4.185380   -1.531114
    143          1           0       14.082896    1.528787   -2.006003
    144          1           0       13.992700    3.056379   -3.656659
    145          1           0       12.804359    4.411607   -3.710699
    146          1           0       12.208837    2.797565   -4.126912
    147          1           0       15.137913    3.267491   -0.915086
    148          1           0       15.119701    1.886105    0.233674
    149          1           0       14.608735    4.616927    0.830572
    150          1           0       14.391582    3.292583    1.806447
    151          1           0       13.044302    3.854005    0.733951
    152          1           0       13.412292   -3.898653    1.583657
    153          1           0       14.078702   -2.305419    1.872112
    154          1           0       14.257484   -2.916577    0.278940
    155          1           0        8.668082   -4.489849    0.319543
    156          1           0        6.129691   -6.802980    2.599776
    157          1           0        4.920187   -5.394523    2.240253
    158          1           0        5.906247   -5.439988    3.703443
 ---------------------------------------------------------------------

 SCF Done:  E(RPBE1PBE) =  -4067.34806341     A.U. after   16 cycles

 Excitation energies and oscillator strengths:

 Excited State   1:      Singlet-A      1.6333 eV  759.08 nm  f=0.0000  <S**2>=0.000
     312 -> 313        0.70707
 This state for optimization and/or second-order correction.
 Total Energy, E(TD-HF/TD-DFT) =  -4067.28803898
 Copying the excited state density for this state as the 1-particle RhoCI density.

 Excited State   2:      Singlet-A      1.8468 eV  671.34 nm  f=0.4003  <S**2>=0.000
     309 -> 315        0.16872
     311 -> 313        0.69396
     311 <- 313       -0.11305

 Excited State   3:      Singlet-A      1.8859 eV  657.44 nm  f=0.3562  <S**2>=0.000
     310 -> 316       -0.19001
     312 -> 314        0.68785
     312 <- 314       -0.10013

 Excited State   4:      Singlet-A      2.1313 eV  581.72 nm  f=0.0000  <S**2>=0.000
     311 -> 314        0.70708

 Excited State   5:      Singlet-A      2.1861 eV  567.14 nm  f=0.0000  <S**2>=0.000
     310 -> 313        0.70708

 The electronic state is 1-A.
 Alpha  occ. eigenvalues --  -46.94363 -46.91597 -19.25855 -19.24979 -19.20349
 Alpha  occ. eigenvalues --  -19.20262 -19.19281 -19.19141 -19.19138 -19.17795
 Alpha  occ. eigenvalues --  -14.42585 -14.42472 -14.41186 -14.41109 -14.39758
 Alpha  occ. eigenvalues --  -14.39046 -14.38947 -14.38859 -10.35861 -10.35818
 Alpha  occ. eigenvalues --  -10.32390 -10.32097 -10.31987 -10.30858 -10.30106
 Alpha  occ. eigenvalues --  -10.29834 -10.29816 -10.29160 -10.29064 -10.28979
 Alpha  occ. eigenvalues --  -10.28631 -10.28315 -10.28308 -10.28225 -10.28185
 Alpha  occ. eigenvalues --  -10.28090 -10.27961 -10.27846 -10.27159 -10.27066
 Alpha  occ. eigenvalues --  -10.27016 -10.27011 -10.26871 -10.26788 -10.26630
 Alpha  occ. eigenvalues --  -10.26537 -10.26437 -10.26415 -10.26266 -10.26237
 Alpha  occ. eigenvalues --  -10.26222 -10.26190 -10.26104 -10.25984 -10.25815
 Alpha  occ. eigenvalues --  -10.25735 -10.25571 -10.25562 -10.25490 -10.25344
 Alpha  occ. eigenvalues --  -10.25258 -10.25213 -10.25194 -10.25146 -10.25029
 Alpha  occ. eigenvalues --  -10.24719 -10.24685 -10.24640 -10.24522 -10.24275
 Alpha  occ. eigenvalues --  -10.24249 -10.24171 -10.24124 -10.24101 -10.24023
 Alpha  occ. eigenvalues --  -10.23756 -10.23692 -10.23465 -10.23320 -10.23283
 Alpha  occ. eigenvalues --  -10.23207 -10.23098 -10.23009 -10.22805 -10.22630
 Alpha  occ. eigenvalues --  -10.22574  -3.16102  -3.13812  -1.88954  -1.88455
 Alpha  occ. eigenvalues --   -1.88317  -1.86654  -1.86203  -1.86026  -1.12869
 Alpha  occ. eigenvalues --   -1.12298  -1.06258  -1.04565  -1.04534  -1.04013
 Alpha  occ. eigenvalues --   -1.03748  -1.02615  -0.99899  -0.99812  -0.98593
 Alpha  occ. eigenvalues --   -0.98575  -0.98188  -0.97620  -0.97434  -0.96751
 Alpha  occ. eigenvalues --   -0.87276  -0.87099  -0.83849  -0.83600  -0.83528
 Alpha  occ. eigenvalues --   -0.82987  -0.82737  -0.82710  -0.82542  -0.81588
 Alpha  occ. eigenvalues --   -0.81430  -0.80641  -0.80386  -0.79880  -0.79336
 Alpha  occ. eigenvalues --   -0.79082  -0.78297  -0.77941  -0.77182  -0.76923
 Alpha  occ. eigenvalues --   -0.76658  -0.75890  -0.75676  -0.75383  -0.75086
 Alpha  occ. eigenvalues --   -0.74546  -0.73146  -0.72263  -0.72057  -0.71604
 Alpha  occ. eigenvalues --   -0.71349  -0.71016  -0.70971  -0.70122  -0.69986
 Alpha  occ. eigenvalues --   -0.69834  -0.67765  -0.67149  -0.67035  -0.66389
 Alpha  occ. eigenvalues --   -0.64574  -0.63955  -0.63777  -0.63234  -0.62601
 Alpha  occ. eigenvalues --   -0.62444  -0.61518  -0.60918  -0.60621  -0.60345
 Alpha  occ. eigenvalues --   -0.59758  -0.59598  -0.59393  -0.59358  -0.58763
 Alpha  occ. eigenvalues --   -0.58568  -0.57971  -0.56838  -0.55010  -0.54838
 Alpha  occ. eigenvalues --   -0.54714  -0.54135  -0.53755  -0.53656  -0.53656
 Alpha  occ. eigenvalues --   -0.53315  -0.53032  -0.52665  -0.52317  -0.51823
 Alpha  occ. eigenvalues --   -0.51170  -0.50771  -0.50689  -0.50538  -0.50344
 Alpha  occ. eigenvalues --   -0.50180  -0.49795  -0.49782  -0.49257  -0.48734
 Alpha  occ. eigenvalues --   -0.48370  -0.48221  -0.48153  -0.48011  -0.47919
 Alpha  occ. eigenvalues --   -0.47604  -0.47592  -0.47256  -0.47052  -0.46931
 Alpha  occ. eigenvalues --   -0.46674  -0.46530  -0.46502  -0.46204  -0.46180
 Alpha  occ. eigenvalues --   -0.46039  -0.45723  -0.45304  -0.45202  -0.44884
 Alpha  occ. eigenvalues --   -0.44708  -0.44663  -0.44563  -0.44390  -0.44196
 Alpha  occ. eigenvalues --   -0.44073  -0.44055  -0.43870  -0.43847  -0.43844
 Alpha  occ. eigenvalues --   -0.43408  -0.43294  -0.43247  -0.42941  -0.42851
 Alpha  occ. eigenvalues --   -0.42724  -0.42568  -0.42431  -0.42241  -0.42157
 Alpha  occ. eigenvalues --   -0.41822  -0.41728  -0.41593  -0.41474  -0.41356
 Alpha  occ. eigenvalues --   -0.41277  -0.41192  -0.41188  -0.40660  -0.40618
 Alpha  occ. eigenvalues --   -0.40580  -0.40179  -0.40103  -0.39962  -0.39877
 Alpha  occ. eigenvalues --   -0.39845  -0.39643  -0.39640  -0.39459  -0.39319
 Alpha  occ. eigenvalues --   -0.39006  -0.38644  -0.38636  -0.38407  -0.38123
 Alpha  occ. eigenvalues --   -0.38101  -0.38012  -0.37827  -0.37728  -0.37658
 Alpha  occ. eigenvalues --   -0.37655  -0.37528  -0.37221  -0.37159  -0.36892
 Alpha  occ. eigenvalues --   -0.36826  -0.36748  -0.36615  -0.36345  -0.36330
 Alpha  occ. eigenvalues --   -0.36246  -0.36085  -0.35771  -0.35760  -0.35162
 Alpha  occ. eigenvalues --   -0.35040  -0.34770  -0.34400  -0.34358  -0.34353
 Alpha  occ. eigenvalues --   -0.33806  -0.33269  -0.33105  -0.32751  -0.32712
 Alpha  occ. eigenvalues --   -0.32473  -0.32401  -0.32132  -0.32105  -0.31606
 Alpha  occ. eigenvalues --   -0.31245  -0.30819  -0.30077  -0.29970  -0.29528
 Alpha  occ. eigenvalues --   -0.29218  -0.29067  -0.28769  -0.27311  -0.26894
 Alpha  occ. eigenvalues --   -0.26138  -0.25969  -0.25868  -0.25562  -0.25227
 Alpha  occ. eigenvalues --   -0.25181  -0.24920  -0.24773  -0.21619  -0.20689
 Alpha  occ. eigenvalues --   -0.19417  -0.18668
 Alpha virt. eigenvalues --   -0.11950  -0.10879  -0.05923  -0.05283  -0.04070
 Alpha virt. eigenvalues --   -0.03946  -0.02172  -0.01742  -0.01685   0.00337
 Alpha virt. eigenvalues --    0.00341   0.01095   0.01264   0.01329   0.01520

 Mulliken charges:
               1
     1  Mg  12.000000
     2  C    6.000000
     3  C    6.000000
     4  C    6.000000
     5  C    6.000000
     6  N    7.000000
     7  C    6.000000
     8  C    6.000000
     9  C    6.000000
    10  C    6.000000
    11  C    6.000000
    12  C    6.000000
    13  C    6.000000
    14  H    1.000000
    15  N    7.000000
    16  C    6.000000
    17  C    6.000000
    18  C    6.000000
    19  C    6.000000
    20  C    6.000000
    21  C    6.000000
    22  O    8.000000
    23  C    6.000000
    24  N    7.000000
    25  C    6.000000
    26  C    6.000000
    27  C    6.000000
    28  C    6.000000
    29  C    6.000000
    30  C    6.000000
    31  C    6.000000
    32  N    7.000000
    33  C    6.000000
    34  C    6.000000
    35  C    6.000000
    36  C    6.000000
    37  C    6.000000
    38  C    6.000000
    39  O    8.000000
    40  C    6.000000
    41  C    6.000000
    42  O    8.000000
    43  O    8.000000
    44  C    6.000000
    45  H    1.000000
    46  H    1.000000
    47  H    1.000000
    48  H    1.000000
    49  H    1.000000
    50  H    1.000000
    51  H    1.000000
    52  H    1.000000
    53  H    1.000000
    54  H    1.000000
    55  H    1.000000
    56  H    1.000000
    57  H    1.000000
    58  H    1.000000
    59  H    1.000000
    60  H    1.000000
    61  H    1.000000
    62  H    1.000000
    63  H    1.000000
    64  H    1.000000
    65  H    1.000000
    66  H    1.000000
    67  H    1.000000
    68  H    1.000000
    69  H    1.000000
    70  H    1.000000
    71  H    1.000000
    72  H    1.000000
    73  H    1.000000
    74  H    1.000000
    75  H    1.000000
    76  H    1.000000
    77  H    1.000000
    78  H    1.000000
    79  H    1.000000
    80  Mg  12.000000
    81  C    6.000000
    82  C    6.000000
    83  C    6.000000
    84  C    6.000000
    85  N    7.000000
    86  C    6.000000
    87  C    6.000000
    88  C    6.000000
    89  C    6.000000
    90  C    6.000000
    91  C    6.000000
    92  C    6.000000
    93  H    1.000000
    94  N    7.000000
    95  C    6.000000
    96  C    6.000000
    97  C    6.000000
    98  C    6.000000
    99  C    6.000000
   100  C    6.000000
   101  O    8.000000
   102  C    6.000000
   103  N    7.000000
   104  C    6.000000
   105  C    6.000000
   106  C    6.000000
   107  C    6.000000
   108  C    6.000000
   109  C    6.000000
   110  C    6.000000
   111  N    7.000000
   112  C    6.000000
   113  C    6.000000
   114  C    6.000000
   115  C    6.000000
   116  C    6.000000
   117  C    6.000000
   118  O    8.000000
   119  C    6.000000
   120  C    6.000000
   121  O    8.000000
   122  O    8.000000
   123  C    6.000000
   124  H    1.000000
   125  H    1.000000
   126  H    1.000000
   127  H    1.000000
   128  H    1.000000
   129  H    1.000000
   130  H    1.000000
   131  H    1.000000
   132  H    1.000000
   133  H    1.000000
   134  H    1.000000
   135  H    1.000000
   136  H    1.000000
   137  H    1.000000
   138  H    1.000000
   139  H    1.000000
   140  H    1.000000
   141  H    1.000000
   142  H    1.000000
   143  H    1.000000
   144  H    1.000000
   145  H    1.000000
   146  H    1.000000
   147  H    1.000000
   148  H    1.000000
   149  H    1.000000
   150  H    1.000000
   151  H    1.000000
   152  H    1.000000
   153  H    1.000000
   154  H    1.000000
   155  H    1.000000
   156  H    1.000000
   157  H    1.000000
   158  H    1.000000
 Sum of Mulliken charges = 624.00000

 Dipole moment (field-independent basis, Debye):
    X=             -0.0000    Y=              0.0000    Z=              0.0000  Tot=              0.0000
 Quadrupole moment (field-independent basis, Debye-Ang):
   XX=             -0.0001   YY=             -0.0000   ZZ=              0.0000
   XY=              0.0000   XZ=             -0.0001   YZ=              0.0000

 Normal termination of Gaussian 16 at Thu Oct 14 04:47:26 2021.
