 Gaussian 16, Revision A.03,
 Gaussian 16:  ES64L-G16RevA.03 25-Dec-2016

 --------------------------------------------------------
 #p PBE1PBE/Def2SVP td=(nstates=5) density=(transition=1)
 --------------------------------------------------------

 --------------------------------
 TDDFT excited states in gaussian
 --------------------------------
 Symbolic Z-matrix:
 Charge =  0 Multiplicity = 1

                         Standard orientation:
 ---------------------------------------------------------------------
 Center     Atomic      Atomic             Coordinates (Angstroms)
 Number     Number       Type             X           Y           Z
 ---------------------------------------------------------------------
      1         12           0       20.128871   -0.836665   -0.153693
      2          6           0       22.008480    2.234047   -0.155618
      3          6           0       17.756432    0.809948    1.666758
      4          6           0       18.532414   -3.775577    0.102403
      5          6           0       22.825023   -2.374071   -1.538722
      6          7           0       19.903792    1.394242    0.640063
      7          6           0       20.800485    2.404133    0.443861
      8          6           0       20.163118    3.653301    0.922067
      9          6           0       18.859174    3.201208    1.636008
     10          6           0       18.787540    1.671771    1.374924
     11          6           0       18.900933    3.499874    3.168494
     12          6           0       19.927543    4.714664   -0.123288
     13          6           0       19.500577    6.106143    0.315377
     14          1           0       20.252625    7.239212   -0.245433
     15          7           0       18.357962   -1.368940    0.650605
     16          6           0       17.537841   -0.548050    1.472996
     17          6           0       16.320075   -1.328722    1.761457
     18          6           0       16.608712   -2.638329    1.386596
     19          6           0       17.927286   -2.650000    0.727520
     20          6           0       15.153951   -0.716665    2.509146
     21          6           0       15.739626   -3.909450    1.500007
     22          8           0       16.171794   -5.066830    1.343724
     23          6           0       14.306273   -3.712833    1.783177
     24          7           0       20.620358   -2.851152   -0.589119
     25          6           0       19.842025   -3.902113   -0.431674
     26          6           0       20.506763   -5.234858   -0.873238
     27          6           0       21.742424   -4.705575   -1.604472
     28          6           0       21.710051   -3.232176   -1.268660
     29          6           0       20.865046   -6.135077    0.357051
     30          6           0       21.813321   -4.952729   -3.094529
     31          6           0       23.175702   -5.396172   -3.656570
     32          7           0       21.969651   -0.187086   -0.805803
     33          6           0       22.964390   -0.957445   -1.367326
     34          6           0       24.136735   -0.122875   -1.769020
     35          6           0       23.733898    1.096116   -1.262008
     36          6           0       22.475321    1.023430   -0.652914
     37          6           0       25.307437   -0.504151   -2.617009
     38          6           0       24.180064    2.475573   -1.133535
     39          8           0       25.212177    2.971560   -1.571080
     40          6           0       23.084094    3.291472   -0.410342
     41          6           0       23.739287    3.997209    0.661191
     42          8           0       24.125387    3.518365    1.754698
     43          8           0       23.745396    5.335548    0.409642
     44          6           0       24.107658    6.241377    1.477790
     45          1           0       16.950576    1.343623    2.174429
     46          1           0       18.098049   -4.751740    0.327302
     47          1           0       23.700011   -2.990525   -1.754259
     48          1           0       20.876085    4.017195    1.660744
     49          1           0       17.973764    3.697528    1.238370
     50          1           0       18.108594    4.027317    3.700566
     51          1           0       19.801990    4.099775    3.295245
     52          1           0       19.143515    2.644477    3.799582
     53          1           0       19.108069    4.439032   -0.787272
     54          1           0       20.709445    4.719706   -0.882193
     55          1           0       19.585169    6.211694    1.395914
     56          1           0       18.535530    6.271004   -0.163092
     57          1           0       14.761880   -1.338306    3.313826
     58          1           0       14.311407   -0.446762    1.872777
     59          1           0       15.387376    0.199009    3.052988
     60          1           0       13.911663   -2.987143    1.071869
     61          1           0       14.326076   -3.293497    2.788491
     62          1           0       13.818720   -4.662526    1.566103
     63          1           0       19.797502   -5.716378   -1.547297
     64          1           0       22.705819   -5.047680   -1.227483
     65          1           0       21.942980   -6.222445    0.489902
     66          1           0       20.509280   -7.155912    0.217566
     67          1           0       20.426276   -5.631110    1.218346
     68          1           0       21.480410   -4.086166   -3.664905
     69          1           0       20.949505   -5.585765   -3.294874
     70          1           0       22.967708   -5.988386   -4.547173
     71          1           0       23.813095   -5.870108   -2.909464
     72          1           0       23.628567   -4.431761   -3.885661
     73          1           0       25.233463   -0.180002   -3.655231
     74          1           0       25.451851   -1.569701   -2.440836
     75          1           0       26.222223   -0.144973   -2.143933
     76          1           0       22.823238    4.077331   -1.119145
     77          1           0       24.242281    5.767176    2.450323
     78          1           0       23.413493    7.080131    1.522296
     79          1           0       25.056995    6.741608    1.284621
     80         12           0      -21.096499   -0.485424   -0.005752
     81          6           0      -20.245736    2.783307   -0.907831
     82          6           0      -20.574145    0.405205    3.286763
     83          6           0      -21.222383   -3.782371    0.869096
     84          6           0      -20.935338   -1.370279   -3.350007
     85          7           0      -20.578227    1.388187    0.998142
     86          6           0      -20.495614    2.607129    0.449808
     87          6           0      -20.495592    3.765536    1.458016
     88          6           0      -20.411382    2.986158    2.826185
     89          6           0      -20.628712    1.433737    2.381348
     90          6           0      -19.131361    3.173688    3.668843
     91          6           0      -21.693608    4.708654    1.345718
     92          6           0      -21.396982    6.131842    1.852302
     93          1           0      -20.006867    6.452764    2.419302
     94          7           0      -21.037988   -1.548976    1.811812
     95          6           0      -20.877076   -0.985978    3.098867
     96          6           0      -20.963433   -2.052693    4.075947
     97          6           0      -21.089142   -3.311726    3.378558
     98          6           0      -21.158798   -2.925617    1.970116
     99          6           0      -21.001720   -1.752712    5.549181
    100          6           0      -21.301714   -4.789083    3.939431
    101          8           0      -21.535659   -5.745358    3.240931
    102          6           0      -21.178401   -4.961235    5.437835
    103          7           0      -20.985971   -2.300359   -1.069736
    104          6           0      -21.097756   -3.539665   -0.510527
    105          6           0      -21.116311   -4.682395   -1.591507
    106          6           0      -21.093630   -3.868584   -2.884320
    107          6           0      -20.993447   -2.434550   -2.399424
    108          6           0      -20.093178   -5.887627   -1.538378
    109          6           0      -22.368045   -4.116590   -3.724958
    110          6           0      -23.656241   -3.339129   -3.374944
    111          7           0      -20.829708    0.474098   -1.848569
    112          6           0      -20.788480   -0.006193   -3.131842
    113          6           0      -20.571773    1.043885   -4.069767
    114          6           0      -20.334925    2.218933   -3.223974
    115          6           0      -20.478013    1.804267   -1.957301
    116          6           0      -20.528603    1.048618   -5.533652
    117          6           0      -19.910710    3.612011   -3.205017
    118          8           0      -19.734842    4.401439   -4.139194
    119          6           0      -19.834044    4.064956   -1.717211
    120          6           0      -18.504288    4.559711   -1.375755
    121          8           0      -17.516082    3.872099   -1.141488
    122          8           0      -18.463920    5.916507   -1.577719
    123          6           0      -17.161604    6.597636   -1.712308
    124          1           0      -20.364680    0.771077    4.294301
    125          1           0      -21.447089   -4.816414    1.138641
    126          1           0      -20.979940   -1.628014   -4.410178
    127          1           0      -19.562752    4.327820    1.422854
    128          1           0      -21.285020    3.130522    3.460802
    129          1           0      -19.569664    3.461242    4.624347
    130          1           0      -18.517123    3.977208    3.263132
    131          1           0      -18.552846    2.250197    3.695930
    132          1           0      -22.570441    4.320234    1.862378
    133          1           0      -22.005424    4.796977    0.304666
    134          1           0      -22.167067    6.233970    2.617199
    135          1           0      -21.669545    6.890506    1.117262
    136          1           0      -20.755811   -0.694300    5.635928
    137          1           0      -20.273187   -2.383407    6.059101
    138          1           0      -21.972681   -1.959093    6.001946
    139          1           0      -20.173013   -4.939569    5.859598
    140          1           0      -21.696410   -5.881359    5.708255
    141          1           0      -21.759446   -4.115827    5.806144
    142          1           0      -22.091980   -5.127005   -1.396634
    143          1           0      -20.203385   -4.183024   -3.427817
    144          1           0      -19.593547   -6.102620   -2.482231
    145          1           0      -20.651097   -6.792103   -1.298080
    146          1           0      -19.398556   -5.694336   -0.720377
    147          1           0      -22.546275   -5.189505   -3.663937
    148          1           0      -22.066335   -3.900863   -4.750335
    149          1           0      -24.452056   -4.077614   -3.468591
    150          1           0      -23.883122   -2.539451   -4.079652
    151          1           0      -23.631703   -2.840934   -2.406410
    152          1           0      -21.057840    1.937371   -5.875569
    153          1           0      -20.950510    0.169408   -6.020661
    154          1           0      -19.513172    1.252310   -5.874002
    155          1           0      -20.601922    4.834320   -1.637714
    156          1           0      -16.323068    5.914816   -1.571154
    157          1           0      -17.102256    7.354240   -0.929535
    158          1           0      -17.236036    6.980381   -2.729573
 ---------------------------------------------------------------------

 SCF Done:  E(RPBE1PBE) =  -4067.40161631     A.U. after   16 cycles

 Excitation energies and oscillator strengths:

 Excited State   1:      Singlet-A      1.8755 eV  661.09 nm  f=0.3903  <S**2>=0.000
     310 -> 316        0.17468
     311 -> 313        0.69088
     311 <- 313       -0.10933
 This state for optimization and/or second-order correction.
 Total Energy, E(TD-HF/TD-DFT) =  -4067.33269461
 Copying the excited state density for this state as the 1-particle RhoCI density.

 Excited State   2:      Singlet-A      1.8970 eV  653.59 nm  f=0.0000  <S**2>=0.000
     312 -> 313        0.70711

 Excited State   3:      Singlet-A      1.9171 eV  646.71 nm  f=0.3721  <S**2>=0.000
     309 -> 315       -0.19061
     312 -> 314        0.68791

 Excited State   4:      Singlet-A      2.1488 eV  577.00 nm  f=0.1394  <S**2>=0.000
     310 -> 313        0.66654
     311 -> 316       -0.21046

 Excited State   5:      Singlet-A      2.1507 eV  576.48 nm  f=0.0000  <S**2>=0.000
     311 -> 314        0.70711

 The electronic state is 1-A.
 Alpha  occ. eigenvalues --  -46.91894 -46.91695 -19.25814 -19.24590 -19.20099
 Alpha  occ. eigenvalues --  -19.19242 -19.19206 -19.19082 -19.19034 -19.18851
 Alpha  occ. eigenvalues --  -14.41730 -14.41501 -14.41401 -14.40611 -14.39417
 Alpha  occ. eigenvalues --  -14.39255 -14.39118 -14.37950 -10.36116 -10.35689
 Alpha  occ. eigenvalues --  -10.33295 -10.32323 -10.32318 -10.31639 -10.28630
 Alpha  occ. eigenvalues --  -10.28627 -10.28477 -10.28470 -10.28452 -10.28430
 Alpha  occ. eigenvalues --  -10.28430 -10.28398 -10.28254 -10.28210 -10.28142
 Alpha  occ. eigenvalues --  -10.28034 -10.28009 -10.27812 -10.27545 -10.26630
 Alpha  occ. eigenvalues --  -10.26629 -10.26410 -10.26256 -10.26119 -10.26073
 Alpha  occ. eigenvalues --  -10.26008 -10.25903 -10.25902 -10.25820 -10.25811
 Alpha  occ. eigenvalues --  -10.25768 -10.25623 -10.25580 -10.25529 -10.25503
 Alpha  occ. eigenvalues --  -10.25377 -10.25276 -10.25260 -10.25007 -10.24956
 Alpha  occ. eigenvalues --  -10.24940 -10.24914 -10.24835 -10.24750 -10.24688
 Alpha  occ. eigenvalues --  -10.24616 -10.24492 -10.24374 -10.24170 -10.24014
 Alpha  occ. eigenvalues --  -10.23867 -10.23673 -10.23587 -10.23587 -10.23492
 Alpha  occ. eigenvalues --  -10.23484 -10.23481 -10.23475 -10.23405 -10.23354
 Alpha  occ. eigenvalues --  -10.23314 -10.23279 -10.23169 -10.22906 -10.22591
 Alpha  occ. eigenvalues --  -10.22344  -3.14078  -3.13800  -1.86928  -1.86641
 Alpha  occ. eigenvalues --   -1.86443  -1.86314  -1.86170  -1.86029  -1.10885
 Alpha  occ. eigenvalues --   -1.09883  -1.06288  -1.04224  -1.03712  -1.03686
 Alpha  occ. eigenvalues --   -1.01493  -1.00737  -1.00428  -0.99309  -0.99072
 Alpha  occ. eigenvalues --   -0.98006  -0.97674  -0.97176  -0.96805  -0.95660
 Alpha  occ. eigenvalues --   -0.87548  -0.86502  -0.84422  -0.83578  -0.83482
 Alpha  occ. eigenvalues --   -0.83076  -0.82774  -0.82477  -0.81859  -0.81428
 Alpha  occ. eigenvalues --   -0.81388  -0.80971  -0.80745  -0.80442  -0.78978
 Alpha  occ. eigenvalues --   -0.78513  -0.78335  -0.77720  -0.77210  -0.76741
 Alpha  occ. eigenvalues --   -0.76619  -0.76118  -0.75587  -0.75356  -0.75270
 Alpha  occ. eigenvalues --   -0.74570  -0.72933  -0.72476  -0.72031  -0.71758
 Alpha  occ. eigenvalues --   -0.71449  -0.71168  -0.70870  -0.70244  -0.69600
 Alpha  occ. eigenvalues --   -0.69415  -0.67463  -0.66928  -0.66406  -0.65569
 Alpha  occ. eigenvalues --   -0.64191  -0.63925  -0.63649  -0.62880  -0.62494
 Alpha  occ. eigenvalues --   -0.62151  -0.60932  -0.60850  -0.60484  -0.59847
 Alpha  occ. eigenvalues --   -0.59653  -0.59286  -0.59151  -0.59116  -0.58975
 Alpha  occ. eigenvalues --   -0.58319  -0.57139  -0.56019  -0.54920  -0.54498
 Alpha  occ. eigenvalues --   -0.54317  -0.54060  -0.53697  -0.53633  -0.53401
 Alpha  occ. eigenvalues --   -0.52879  -0.52852  -0.52336  -0.52228  -0.52010
 Alpha  occ. eigenvalues --   -0.51057  -0.50438  -0.50251  -0.50089  -0.50020
 Alpha  occ. eigenvalues --   -0.49722  -0.49223  -0.48966  -0.48569  -0.48439
 Alpha  occ. eigenvalues --   -0.48284  -0.47938  -0.47848  -0.47740  -0.47487
 Alpha  occ. eigenvalues --   -0.47463  -0.47291  -0.46810  -0.46723  -0.46645
 Alpha  occ. eigenvalues --   -0.46488  -0.46433  -0.46286  -0.46229  -0.45790
 Alpha  occ. eigenvalues --   -0.45542  -0.45419  -0.45176  -0.45032  -0.44865
 Alpha  occ. eigenvalues --   -0.44794  -0.44588  -0.44238  -0.44236  -0.44126
 Alpha  occ. eigenvalues --   -0.43971  -0.43693  -0.43638  -0.43632  -0.43278
 Alpha  occ. eigenvalues --   -0.43198  -0.43027  -0.42989  -0.42930  -0.42792
 Alpha  occ. eigenvalues --   -0.42568  -0.42391  -0.42350  -0.42015  -0.41898
 Alpha  occ. eigenvalues --   -0.41814  -0.41702  -0.41457  -0.41277  -0.41026
 Alpha  occ. eigenvalues --   -0.40960  -0.40900  -0.40845  -0.40553  -0.40417
 Alpha  occ. eigenvalues --   -0.40385  -0.40029  -0.39950  -0.39874  -0.39812
 Alpha  occ. eigenvalues --   -0.39432  -0.39327  -0.39090  -0.38763  -0.38667
 Alpha  occ. eigenvalues --   -0.38559  -0.38509  -0.38479  -0.38266  -0.38118
 Alpha  occ. eigenvalues --   -0.38031  -0.38024  -0.37913  -0.37669  -0.37491
 Alpha  occ. eigenvalues --   -0.37344  -0.37277  -0.37205  -0.36917  -0.36876
 Alpha  occ. eigenvalues --   -0.36588  -0.36462  -0.36371  -0.36369  -0.36072
 Alpha  occ. eigenvalues --   -0.35979  -0.35968  -0.35764  -0.35736  -0.35573
 Alpha  occ. eigenvalues --   -0.35129  -0.35038  -0.34894  -0.34852  -0.33736
 Alpha  occ. eigenvalues --   -0.33512  -0.33354  -0.32910  -0.32832  -0.32717
 Alpha  occ. eigenvalues --   -0.32120  -0.31760  -0.31226  -0.31064  -0.30986
 Alpha  occ. eigenvalues --   -0.30638  -0.30589  -0.29579  -0.29068  -0.28997
 Alpha  occ. eigenvalues --   -0.28575  -0.28515  -0.28183  -0.27164  -0.26634
 Alpha  occ. eigenvalues --   -0.26364  -0.26193  -0.25872  -0.25762  -0.25734
 Alpha  occ. eigenvalues --   -0.25400  -0.25215  -0.24415  -0.21004  -0.20532
 Alpha  occ. eigenvalues --   -0.18916  -0.18601
 Alpha virt. eigenvalues --   -0.11309  -0.10690  -0.05235  -0.04900  -0.03656
 Alpha virt. eigenvalues --   -0.03501  -0.01951  -0.01912  -0.00197  -0.00127
 Alpha virt. eigenvalues --    0.00387   0.00667   0.01062   0.01451   0.01678

 Mulliken charges:
               1
     1  Mg  12.000004
     2  C    6.000132
     3  C    6.000001
     4  C    5.999891
     5  C    5.999962
     6  N    7.000048
     7  C    5.999849
     8  C    6.000072
     9  C    5.999948
    10  C    6.000081
    11  C    5.999981
    12  C    6.000022
    13  C    6.000010
    14  H    0.999974
    15  N    6.999895
    16  C    6.000201
    17  C    6.000110
    18  C    6.000090
    19  C    6.000139
    20  C    5.999953
    21  C    6.000064
    22  O    8.000140
    23  C    5.999984
    24  N    6.999967
    25  C    6.000141
    26  C    5.999937
    27  C    6.000057
    28  C    5.999892
    29  C    6.000000
    30  C    6.000036
    31  C    5.999990
    32  N    7.000048
    33  C    5.999872
    34  C    5.999810
    35  C    6.000026
    36  C    5.999842
    37  C    6.000012
    38  C    5.999924
    39  O    7.999860
    40  C    5.999966
    41  C    5.999990
    42  O    8.000004
    43  O    7.999989
    44  C    6.000013
    45  H    1.000032
    46  H    1.000032
    47  H    0.999973
    48  H    1.000020
    49  H    0.999980
    50  H    1.000014
    51  H    1.000050
    52  H    1.000031
    53  H    0.999941
    54  H    1.000018
    55  H    1.000012
    56  H    0.999947
    57  H    1.000115
    58  H    1.000041
    59  H    1.000072
    60  H    0.999987
    61  H    1.000067
    62  H    1.000088
    63  H    0.999987
    64  H    1.000013
    65  H    1.000054
    66  H    1.000027
    67  H    0.999997
    68  H    0.999961
    69  H    0.999939
    70  H    0.999969
    71  H    1.000009
    72  H    1.000014
    73  H    0.999897
    74  H    0.999952
    75  H    0.999944
    76  H    0.999947
    77  H    1.000003
    78  H    0.999959
    79  H    0.999984
    80  Mg  12.002706
    81  C    5.984762
    82  C    6.013275
    83  C    6.016322
    84  C    5.998862
    85  N    6.994016
    86  C    6.030605
    87  C    5.986922
    88  C    6.002518
    89  C    5.974075
    90  C    6.002579
    91  C    5.997985
    92  C    5.998965
    93  H    1.004134
    94  N    7.001630
    95  C    5.962074
    96  C    5.980706
    97  C    5.981837
    98  C    5.972107
    99  C    6.004270
   100  C    5.986001
   101  O    7.974789
   102  C    6.003828
   103  N    7.006770
   104  C    5.965347
   105  C    6.007881
   106  C    5.990074
   107  C    6.030095
   108  C    5.998776
   109  C    5.995577
   110  C    5.994465
   111  N    7.001714
   112  C    6.023707
   113  C    6.037940
   114  C    6.000426
   115  C    6.020297
   116  C    5.995272
   117  C    6.014413
   118  O    8.024607
   119  C    6.001786
   120  C    6.005052
   121  O    8.006794
   122  O    8.000568
   123  C    5.998635
   124  H    0.990047
   125  H    0.993861
   126  H    1.010386
   127  H    1.000924
   128  H    1.000914
   129  H    0.998882
   130  H    0.988360
   131  H    1.002882
   132  H    1.007799
   133  H    0.992562
   134  H    1.004145
   135  H    0.997723
   136  H    0.983529
   137  H    0.982320
   138  H    0.980099
   139  H    0.990249
   140  H    0.986103
   141  H    0.997916
   142  H    1.001728
   143  H    1.003448
   144  H    0.990933
   145  H    1.000403
   146  H    1.003801
   147  H    1.011162
   148  H    0.996995
   149  H    1.007863
   150  H    0.994811
   151  H    1.006640
   152  H    1.019221
   153  H    1.019028
   154  H    1.023478
   155  H    1.007090
   156  H    1.003330
   157  H    1.005926
   158  H    1.000274
 Sum of Mulliken charges = 624.00000

 Dipole moment (field-independent basis, Debye):
    X=              0.6499    Y=              4.9679    Z=             -9.2003  Tot=             10.4761
 Quadrupole moment (field-independent basis, Debye-Ang):
   XX=            -28.9434   YY=             -4.6601   ZZ=             -0.2871
   XY=           -102.3926   XZ=            191.8601   YZ=              6.1772

 Normal termination of Gaussian 16 at Fri Oct 15 05:31:35 2021.
