 Gaussian 16, Revision A.03,
 Gaussian 16:  ES64L-G16RevA.03 25-Dec-2016

 --------------------------------------------------------
 #p PBE1PBE/Def2SVP td=(nstates=5) density=(transition=1)
 --------------------------------------------------------

 --------------------------------
 TDDFT excited states in gaussian
 --------------------------------
 Symbolic Z-matrix:
 Charge =  0 Multiplicity = 1

                         Standard orientation:
 ---------------------------------------------------------------------
 Center     Atomic      Atomic             Coordinates (Angstroms)
 Number     Number       Type             X           Y           Z
 ---------------------------------------------------------------------
      1         12           0       20.281414   -0.716535    0.345558
      2          6           0       19.524169    2.219713   -1.361555
      3          6           0       21.584678    1.075396    2.883650
      4          6           0       21.375735   -3.612050    1.703474
      5          6           0       19.382484   -2.465070   -2.487168
      6          7           0       20.530769    1.459487    0.683356
      7          6           0       19.955530    2.460354   -0.057535
      8          6           0       20.155389    3.771319    0.602872
      9          6           0       20.856867    3.484881    1.935632
     10          6           0       21.014270    1.903792    1.899236
     11          6           0       22.139861    4.230764    2.268040
     12          6           0       18.747732    4.585121    0.752299
     13          6           0       18.622962    5.944701    0.025500
     14          1           0       17.924562    7.111067    0.680272
     15          7           0       21.222209   -1.213726    2.104519
     16          6           0       21.711298   -0.318445    3.043937
     17          6           0       22.361297   -1.029009    4.084341
     18          6           0       22.321032   -2.413203    3.764360
     19          6           0       21.600808   -2.463011    2.487870
     20          6           0       22.847568   -0.222648    5.351527
     21          6           0       22.980415   -3.525911    4.577358
     22          8           0       23.013335   -4.724392    4.259597
     23          6           0       23.567578   -3.217354    5.884094
     24          7           0       20.616372   -2.755905   -0.353391
     25          6           0       20.960505   -3.774886    0.406671
     26          6           0       21.037177   -5.079689   -0.417790
     27          6           0       19.952180   -4.703845   -1.502387
     28          6           0       19.949385   -3.179610   -1.442776
     29          6           0       22.381952   -5.516388   -1.108545
     30          6           0       18.480949   -5.308873   -1.300277
     31          6           0       17.755277   -4.974529   -0.061858
     32          7           0       19.606455   -0.292226   -1.649412
     33          6           0       19.256879   -1.137795   -2.720488
     34          6           0       18.832434   -0.344823   -3.829909
     35          6           0       18.973264    0.958607   -3.396937
     36          6           0       19.349722    0.932300   -2.014116
     37          6           0       18.608094   -0.809171   -5.185174
     38          6           0       18.664670    2.272032   -3.718036
     39          8           0       18.212507    2.782028   -4.748323
     40          6           0       19.084823    3.188634   -2.480184
     41          6           0       20.271779    3.964717   -2.946968
     42          8           0       21.358776    3.612557   -3.354594
     43          8           0       19.900041    5.243550   -2.866573
     44          6           0       20.936498    6.255292   -3.255196
     45          1           0       21.763297    1.749701    3.723776
     46          1           0       21.604310   -4.529275    2.248911
     47          1           0       19.039440   -3.036186   -3.352143
     48          1           0       20.814528    4.321084   -0.067840
     49          1           0       20.160964    3.685167    2.750014
     50          1           0       22.820001    3.463696    1.899625
     51          1           0       22.260527    4.524589    3.310884
     52          1           0       22.380401    5.154198    1.741949
     53          1           0       18.534880    4.720516    1.812294
     54          1           0       17.895432    4.069699    0.308838
     55          1           0       18.003996    5.757615   -0.852463
     56          1           0       19.574661    6.277181   -0.386882
     57          1           0       23.896290   -0.460565    5.528500
     58          1           0       22.234043   -0.750706    6.081589
     59          1           0       22.838062    0.866506    5.308472
     60          1           0       24.334519   -2.448963    5.797158
     61          1           0       24.192762   -4.075037    6.131205
     62          1           0       22.851219   -3.036307    6.685849
     63          1           0       20.544307   -5.869080    0.149872
     64          1           0       20.356412   -5.126658   -2.421821
     65          1           0       22.965855   -4.713867   -1.557626
     66          1           0       22.036694   -6.241970   -1.845922
     67          1           0       23.041787   -6.006625   -0.392244
     68          1           0       18.457564   -6.398824   -1.312967
     69          1           0       17.770196   -4.853914   -1.990104
     70          1           0       17.349524   -3.986514   -0.274764
     71          1           0       18.308096   -4.888329    0.874084
     72          1           0       16.895999   -5.583300    0.217537
     73          1           0       19.611418   -0.844160   -5.611366
     74          1           0       17.981863   -0.166922   -5.803737
     75          1           0       18.066067   -1.754124   -5.235896
     76          1           0       18.266731    3.797177   -2.094676
     77          1           0       21.261612    6.683671   -2.306832
     78          1           0       20.499470    6.985571   -3.935850
     79          1           0       21.846355    5.885064   -3.728466
     80         12           0      -20.965606   -0.540660   -0.229263
     81          6           0      -18.640302    2.106168    0.108081
     82          6           0      -23.324090    1.493743    1.069977
     83          6           0      -23.038107   -3.066555   -0.436397
     84          6           0      -18.169907   -2.695577   -0.868202
     85          7           0      -20.983331    1.574820    0.624160
     86          6           0      -19.967761    2.487937    0.394790
     87          6           0      -20.531392    3.839491    0.673058
     88          6           0      -21.793534    3.574099    1.494266
     89          6           0      -22.112097    2.126199    1.044594
     90          6           0      -21.481040    3.619710    3.036982
     91          6           0      -20.841755    4.780388   -0.611844
     92          6           0      -20.482001    6.297551   -0.586315
     93          1           0      -20.951510    7.108064    0.656298
     94          7           0      -22.940887   -0.725473    0.281776
     95          6           0      -23.702168    0.209916    0.768166
     96          6           0      -25.038015   -0.361919    1.010667
     97          6           0      -25.069529   -1.643967    0.382888
     98          6           0      -23.633997   -1.884192    0.061656
     99          6           0      -26.261012    0.281331    1.760276
    100          6           0      -26.220453   -2.607534    0.095179
    101          8           0      -26.074654   -3.757693   -0.360930
    102          6           0      -27.550955   -2.253926    0.565482
    103          7           0      -20.575857   -2.675429   -0.444873
    104          6           0      -21.675895   -3.511803   -0.615679
    105          6           0      -21.174139   -4.916083   -1.129962
    106          6           0      -19.662330   -4.685041   -1.376189
    107          6           0      -19.442535   -3.245038   -0.907163
    108          6           0      -21.566600   -6.067025   -0.203205
    109          6           0      -19.142457   -5.015517   -2.797927
    110          6           0      -17.759406   -5.696878   -2.919052
    111          7           0      -18.843800   -0.392267   -0.348616
    112          6           0      -17.845672   -1.338218   -0.559838
    113          6           0      -16.586271   -0.652164   -0.698397
    114          6           0      -16.844867    0.683746   -0.387883
    115          6           0      -18.245248    0.829828   -0.187342
    116          6           0      -15.357209   -1.208438   -1.086002
    117          6           0      -16.265727    2.030622   -0.275995
    118          8           0      -15.136779    2.464357   -0.442521
    119          6           0      -17.439170    3.017747    0.030596
    120          6           0      -17.092004    3.745170    1.317287
    121          8           0      -17.222380    3.471830    2.488992
    122          8           0      -16.645682    4.945802    0.845649
    123          6           0      -16.527372    6.065009    1.810461
    124          1           0      -24.117260    2.165492    1.405918
    125          1           0      -23.792672   -3.815238   -0.686255
    126          1           0      -17.347042   -3.284177   -1.278051
    127          1           0      -19.903790    4.506965    1.264087
    128          1           0      -22.644645    4.167942    1.161899
    129          1           0      -22.308084    3.985459    3.644591
    130          1           0      -20.697281    4.331877    3.296293
    131          1           0      -21.294352    2.582783    3.314222
    132          1           0      -21.875289    4.633305   -0.923598
    133          1           0      -20.320696    4.386242   -1.485129
    134          1           0      -21.069238    6.684607   -1.419836
    135          1           0      -19.400552    6.267542   -0.719453
    136          1           0      -27.111512    0.540165    1.130003
    137          1           0      -25.891738    1.182038    2.251450
    138          1           0      -26.762792   -0.370596    2.475383
    139          1           0      -27.846641   -1.271660    0.195996
    140          1           0      -27.591382   -2.261220    1.654782
    141          1           0      -28.249633   -2.920485    0.060810
    142          1           0      -21.597748   -5.036590   -2.127138
    143          1           0      -19.068027   -5.212948   -0.630639
    144          1           0      -20.783751   -6.205699    0.543188
    145          1           0      -21.633033   -7.039229   -0.690535
    146          1           0      -22.400770   -5.749445    0.421549
    147          1           0      -19.172539   -4.173074   -3.488756
    148          1           0      -19.835584   -5.674936   -3.321995
    149          1           0      -17.077554   -4.874084   -3.134461
    150          1           0      -17.834383   -6.315693   -3.813804
    151          1           0      -17.514320   -6.217895   -1.993945
    152          1           0      -14.424705   -0.713936   -0.814900
    153          1           0      -15.412942   -1.366884   -2.163443
    154          1           0      -15.304370   -2.169024   -0.574850
    155          1           0      -17.564791    3.716250   -0.796492
    156          1           0      -16.941011    6.924660    1.283983
    157          1           0      -15.516726    6.328983    2.120898
    158          1           0      -17.141474    5.865766    2.688296
 ---------------------------------------------------------------------

 SCF Done:  E(RPBE1PBE) =  -4067.34944139     A.U. after   16 cycles

 Excitation energies and oscillator strengths:

 Excited State   1:      Singlet-A      1.8587 eV  667.05 nm  f=0.3519  <S**2>=0.000
     309 -> 316        0.16380
     311 -> 313        0.69245
     311 <- 313       -0.10763
 This state for optimization and/or second-order correction.
 Total Energy, E(TD-HF/TD-DFT) =  -4067.28113596
 Copying the excited state density for this state as the 1-particle RhoCI density.

 Excited State   2:      Singlet-A      1.8742 eV  661.53 nm  f=0.0000  <S**2>=0.000
     312 -> 313        0.70711

 Excited State   3:      Singlet-A      1.8848 eV  657.80 nm  f=0.3756  <S**2>=0.000
     310 -> 315       -0.17653
     312 -> 314        0.68848

 Excited State   4:      Singlet-A      2.1555 eV  575.20 nm  f=0.0000  <S**2>=0.000
     311 -> 314        0.70710

 Excited State   5:      Singlet-A      2.1770 eV  569.52 nm  f=0.1426  <S**2>=0.000
     309 -> 313        0.66024
     311 -> 316       -0.23471

 The electronic state is 1-A.
 Alpha  occ. eigenvalues --  -46.92747 -46.92717 -19.25669 -19.25063 -19.20259
 Alpha  occ. eigenvalues --  -19.19417 -19.19288 -19.18927 -19.18889 -19.18454
 Alpha  occ. eigenvalues --  -14.41621 -14.41310 -14.41205 -14.40926 -14.39434
 Alpha  occ. eigenvalues --  -14.39368 -14.38671 -14.38597 -10.36249 -10.35590
 Alpha  occ. eigenvalues --  -10.32567 -10.32197 -10.31998 -10.31261 -10.29452
 Alpha  occ. eigenvalues --  -10.29195 -10.28917 -10.28895 -10.28695 -10.28575
 Alpha  occ. eigenvalues --  -10.28395 -10.28352 -10.28115 -10.27997 -10.27818
 Alpha  occ. eigenvalues --  -10.27709 -10.27558 -10.27499 -10.27378 -10.27351
 Alpha  occ. eigenvalues --  -10.27077 -10.26781 -10.26609 -10.26420 -10.26355
 Alpha  occ. eigenvalues --  -10.26336 -10.25941 -10.25795 -10.25789 -10.25703
 Alpha  occ. eigenvalues --  -10.25661 -10.25611 -10.25558 -10.25522 -10.25381
 Alpha  occ. eigenvalues --  -10.25362 -10.25345 -10.25326 -10.25260 -10.25248
 Alpha  occ. eigenvalues --  -10.25170 -10.25113 -10.25053 -10.25006 -10.24999
 Alpha  occ. eigenvalues --  -10.24894 -10.24877 -10.24375 -10.24220 -10.24033
 Alpha  occ. eigenvalues --  -10.23995 -10.23964 -10.23952 -10.23782 -10.23732
 Alpha  occ. eigenvalues --  -10.23386 -10.23360 -10.23272 -10.23270 -10.23191
 Alpha  occ. eigenvalues --  -10.23092 -10.22871 -10.22705 -10.22582 -10.22324
 Alpha  occ. eigenvalues --  -10.22103  -3.14719  -3.14710  -1.87556  -1.87553
 Alpha  occ. eigenvalues --   -1.87094  -1.87062  -1.86949  -1.86933  -1.11763
 Alpha  occ. eigenvalues --   -1.10896  -1.04358  -1.04005  -1.03841  -1.03280
 Alpha  occ. eigenvalues --   -1.02608  -1.02155  -1.00018  -0.99790  -0.98912
 Alpha  occ. eigenvalues --   -0.98562  -0.98043  -0.97695  -0.97301  -0.96756
 Alpha  occ. eigenvalues --   -0.87155  -0.86542  -0.83503  -0.83185  -0.83024
 Alpha  occ. eigenvalues --   -0.82779  -0.82678  -0.82303  -0.82252  -0.81928
 Alpha  occ. eigenvalues --   -0.81906  -0.81340  -0.81173  -0.81145  -0.78928
 Alpha  occ. eigenvalues --   -0.78524  -0.78517  -0.77892  -0.77351  -0.76977
 Alpha  occ. eigenvalues --   -0.76584  -0.76230  -0.75848  -0.75823  -0.75070
 Alpha  occ. eigenvalues --   -0.74980  -0.73067  -0.72659  -0.71961  -0.71755
 Alpha  occ. eigenvalues --   -0.71696  -0.71350  -0.70284  -0.70173  -0.69681
 Alpha  occ. eigenvalues --   -0.69472  -0.67908  -0.66994  -0.66275  -0.66128
 Alpha  occ. eigenvalues --   -0.63763  -0.63460  -0.63228  -0.63119  -0.62195
 Alpha  occ. eigenvalues --   -0.62151  -0.61725  -0.61560  -0.60258  -0.59977
 Alpha  occ. eigenvalues --   -0.59898  -0.59845  -0.59440  -0.59314  -0.58905
 Alpha  occ. eigenvalues --   -0.58474  -0.56605  -0.56538  -0.54997  -0.54992
 Alpha  occ. eigenvalues --   -0.54474  -0.54138  -0.53867  -0.53831  -0.53243
 Alpha  occ. eigenvalues --   -0.52951  -0.52809  -0.52398  -0.52362  -0.52082
 Alpha  occ. eigenvalues --   -0.51024  -0.50753  -0.50443  -0.50239  -0.50085
 Alpha  occ. eigenvalues --   -0.49737  -0.49606  -0.49335  -0.49179  -0.49021
 Alpha  occ. eigenvalues --   -0.48281  -0.48132  -0.47888  -0.47813  -0.47801
 Alpha  occ. eigenvalues --   -0.47633  -0.47436  -0.47398  -0.47268  -0.47001
 Alpha  occ. eigenvalues --   -0.46719  -0.46677  -0.46474  -0.46261  -0.46138
 Alpha  occ. eigenvalues --   -0.45887  -0.45836  -0.45670  -0.45396  -0.44975
 Alpha  occ. eigenvalues --   -0.44966  -0.44614  -0.44403  -0.44305  -0.44151
 Alpha  occ. eigenvalues --   -0.44108  -0.43944  -0.43817  -0.43582  -0.43563
 Alpha  occ. eigenvalues --   -0.43434  -0.43140  -0.42963  -0.42869  -0.42707
 Alpha  occ. eigenvalues --   -0.42356  -0.42092  -0.41964  -0.41804  -0.41758
 Alpha  occ. eigenvalues --   -0.41517  -0.41463  -0.41383  -0.41366  -0.41007
 Alpha  occ. eigenvalues --   -0.40963  -0.40738  -0.40643  -0.40511  -0.40322
 Alpha  occ. eigenvalues --   -0.40062  -0.39770  -0.39652  -0.39490  -0.39393
 Alpha  occ. eigenvalues --   -0.39187  -0.39121  -0.38992  -0.38837  -0.38803
 Alpha  occ. eigenvalues --   -0.38646  -0.38520  -0.38380  -0.38165  -0.38030
 Alpha  occ. eigenvalues --   -0.37832  -0.37789  -0.37745  -0.37545  -0.37283
 Alpha  occ. eigenvalues --   -0.37181  -0.37012  -0.37012  -0.36935  -0.36701
 Alpha  occ. eigenvalues --   -0.36683  -0.36418  -0.36385  -0.36170  -0.35935
 Alpha  occ. eigenvalues --   -0.35780  -0.35762  -0.35565  -0.35427  -0.35101
 Alpha  occ. eigenvalues --   -0.35081  -0.34732  -0.34608  -0.34359  -0.33864
 Alpha  occ. eigenvalues --   -0.33707  -0.33041  -0.33029  -0.32674  -0.32671
 Alpha  occ. eigenvalues --   -0.32398  -0.32023  -0.31628  -0.31394  -0.31357
 Alpha  occ. eigenvalues --   -0.31160  -0.30958  -0.29665  -0.29594  -0.29184
 Alpha  occ. eigenvalues --   -0.29132  -0.28968  -0.28605  -0.27093  -0.26898
 Alpha  occ. eigenvalues --   -0.26489  -0.26159  -0.25919  -0.25781  -0.25713
 Alpha  occ. eigenvalues --   -0.25360  -0.25221  -0.24954  -0.20954  -0.20916
 Alpha  occ. eigenvalues --   -0.19061  -0.18631
 Alpha virt. eigenvalues --   -0.11422  -0.10819  -0.05565  -0.05148  -0.04266
 Alpha virt. eigenvalues --   -0.03903  -0.02155  -0.02112  -0.00892  -0.00584
 Alpha virt. eigenvalues --    0.01050   0.01117   0.01264   0.01552   0.01942

 Mulliken charges:
               1
     1  Mg  11.996978
     2  C    5.970038
     3  C    5.997240
     4  C    6.029924
     5  C    6.016964
     6  N    6.979408
     7  C    6.032015
     8  C    5.989606
     9  C    6.004449
    10  C    5.977883
    11  C    6.002320
    12  C    5.998411
    13  C    5.999864
    14  H    1.002788
    15  N    7.006063
    16  C    5.967480
    17  C    5.981484
    18  C    5.987060
    19  C    5.966117
    20  C    5.999415
    21  C    5.988222
    22  O    7.971867
    23  C    6.007784
    24  N    7.022879
    25  C    5.962525
    26  C    6.008903
    27  C    5.991014
    28  C    6.019055
    29  C    5.998881
    30  C    5.991158
    31  C    6.000903
    32  N    6.995943
    33  C    6.025805
    34  C    6.029215
    35  C    6.004767
    36  C    6.027787
    37  C    5.997127
    38  C    6.011962
    39  O    8.033124
    40  C    6.001552
    41  C    6.003902
    42  O    8.002333
    43  O    8.001091
    44  C    5.998303
    45  H    0.985513
    46  H    0.999466
    47  H    1.014938
    48  H    0.998505
    49  H    0.996921
    50  H    1.000591
    51  H    0.998312
    52  H    0.987056
    53  H    1.006302
    54  H    0.995092
    55  H    0.994319
    56  H    1.000015
    57  H    0.983868
    58  H    0.985990
    59  H    0.986596
    60  H    0.995224
    61  H    0.987099
    62  H    0.991720
    63  H    1.002229
    64  H    1.005039
    65  H    0.996639
    66  H    0.994020
    67  H    1.006314
    68  H    1.010262
    69  H    0.996884
    70  H    0.993985
    71  H    1.015205
    72  H    1.004670
    73  H    1.019162
    74  H    1.014982
    75  H    1.015020
    76  H    1.006846
    77  H    1.006385
    78  H    1.001408
    79  H    1.001816
    80  Mg  11.999961
    81  C    6.000176
    82  C    5.999783
    83  C    5.999852
    84  C    6.000205
    85  N    6.999976
    86  C    5.999621
    87  C    6.000142
    88  C    5.999959
    89  C    6.000413
    90  C    6.000007
    91  C    6.000071
    92  C    5.999985
    93  H    0.999933
    94  N    6.999848
    95  C    6.000590
    96  C    6.000420
    97  C    6.000154
    98  C    6.000502
    99  C    5.999979
   100  C    6.000221
   101  O    8.000400
   102  C    5.999932
   103  N    7.000086
   104  C    6.000520
   105  C    5.999838
   106  C    6.000114
   107  C    5.999557
   108  C    5.999947
   109  C    6.000076
   110  C    6.000000
   111  N    7.000100
   112  C    5.999441
   113  C    5.999539
   114  C    5.999932
   115  C    5.999487
   116  C    6.000024
   117  C    5.999704
   118  O    7.999472
   119  C    6.000021
   120  C    5.999945
   121  O    7.999913
   122  O    7.999988
   123  C    6.000028
   124  H    1.000121
   125  H    1.000126
   126  H    0.999858
   127  H    0.999951
   128  H    0.999974
   129  H    0.999998
   130  H    1.000176
   131  H    1.000006
   132  H    0.999793
   133  H    1.000008
   134  H    0.999937
   135  H    1.000049
   136  H    1.000314
   137  H    1.000289
   138  H    1.000295
   139  H    1.000100
   140  H    1.000145
   141  H    1.000233
   142  H    1.000025
   143  H    1.000025
   144  H    1.000151
   145  H    1.000107
   146  H    0.999926
   147  H    0.999976
   148  H    0.999860
   149  H    1.000062
   150  H    0.999917
   151  H    0.999989
   152  H    0.999729
   153  H    0.999609
   154  H    0.999749
   155  H    0.999837
   156  H    0.999917
   157  H    0.999930
   158  H    0.999959
 Sum of Mulliken charges = 624.00000

 Dipole moment (field-independent basis, Debye):
    X=             -4.3399    Y=              0.4638    Z=             -8.9895  Tot=              9.9930
 Quadrupole moment (field-independent basis, Debye-Ang):
   XX=           -164.8617   YY=              0.8078   ZZ=             -2.3446
   XY=             15.0390   XZ=           -187.6176   YZ=              5.3628

 Normal termination of Gaussian 16 at Thu Oct 14 03:43:33 2021.
