 Gaussian 16, Revision A.03,
 Gaussian 16:  ES64L-G16RevA.03 25-Dec-2016

 --------------------------------------------------------
 #p PBE1PBE/Def2SVP td=(nstates=5) density=(transition=1)
 --------------------------------------------------------

 --------------------------------
 TDDFT excited states in gaussian
 --------------------------------
 Symbolic Z-matrix:
 Charge =  0 Multiplicity = 1

                         Standard orientation:
 ---------------------------------------------------------------------
 Center     Atomic      Atomic             Coordinates (Angstroms)
 Number     Number       Type             X           Y           Z
 ---------------------------------------------------------------------
      1         12           0      -21.705616    0.216528   -0.193599
      2          6           0      -18.273022    0.981305   -0.488209
      3          6           0      -21.489175   -1.628113   -3.146247
      4          6           0      -24.638225   -1.287795    0.673119
      5          6           0      -21.549794    1.716642    3.055283
      6          7           0      -20.096309   -0.213823   -1.620289
      7          6           0      -18.804741    0.167598   -1.527055
      8          6           0      -17.945193   -0.476989   -2.662778
      9          6           0      -19.101395   -0.962868   -3.652638
     10          6           0      -20.384414   -0.914285   -2.761237
     11          6           0      -19.425210   -0.173438   -4.941302
     12          6           0      -17.081099   -1.642556   -2.048755
     13          6           0      -15.668999   -1.785173   -2.681455
     14          1           0      -15.175460   -3.269655   -2.923083
     15          7           0      -23.041183   -1.140346   -1.221283
     16          6           0      -22.746978   -1.713289   -2.430079
     17          6           0      -23.875002   -2.481285   -2.798787
     18          6           0      -24.803503   -2.490848   -1.715771
     19          6           0      -24.218565   -1.571232   -0.683255
     20          6           0      -24.016291   -3.245552   -4.093925
     21          6           0      -26.008903   -3.357093   -1.578410
     22          8           0      -26.280955   -4.219320   -2.398349
     23          6           0      -26.922210   -3.326430   -0.465865
     24          7           0      -22.860049    0.154671    1.701473
     25          6           0      -24.135876   -0.428253    1.691629
     26          6           0      -24.878127   -0.091173    2.946912
     27          6           0      -23.888082    0.818492    3.764383
     28          6           0      -22.698966    0.919602    2.824699
     29          6           0      -26.202759    0.588031    2.576381
     30          6           0      -23.684405    0.353887    5.255590
     31          6           0      -23.998066    1.354914    6.325896
     32          7           0      -20.231399    1.215891    1.080265
     33          6           0      -20.364888    1.794935    2.318340
     34          6           0      -19.136056    2.536979    2.676218
     35          6           0      -18.292923    2.158113    1.598050
     36          6           0      -19.016405    1.455940    0.652404
     37          6           0      -18.801927    3.300840    3.947931
     38          6           0      -16.921774    2.195951    1.163667
     39          8           0      -15.923261    2.678592    1.720343
     40          6           0      -16.808563    1.482561   -0.183339
     41          6           0      -16.221102    2.365260   -1.208443
     42          8           0      -15.229138    2.095983   -1.782971
     43          8           0      -17.029009    3.406904   -1.562345
     44          6           0      -16.504693    4.091137   -2.764189
     45          1           0      -21.478506   -2.149803   -4.105988
     46          1           0      -25.620718   -1.730474    0.844331
     47          1           0      -21.302594    2.184773    4.010969
     48          1           0      -17.308073    0.299730   -3.086088
     49          1           0      -19.137327   -2.036925   -3.834149
     50          1           0      -19.138517    0.872638   -4.827575
     51          1           0      -20.457083   -0.216425   -5.290004
     52          1           0      -18.783072   -0.596902   -5.712861
     53          1           0      -17.619574   -2.589540   -2.095373
     54          1           0      -16.984498   -1.382630   -0.994572
     55          1           0      -15.021565   -1.281753   -1.963258
     56          1           0      -15.745718   -1.166418   -3.575797
     57          1           0      -25.033290   -3.479808   -4.408729
     58          1           0      -23.456387   -4.161648   -3.907789
     59          1           0      -23.423327   -2.890937   -4.937004
     60          1           0      -27.354715   -2.325361   -0.442615
     61          1           0      -26.419871   -3.593574    0.464304
     62          1           0      -27.703809   -4.065626   -0.641588
     63          1           0      -24.994887   -0.975743    3.572557
     64          1           0      -24.074498    1.892655    3.767401
     65          1           0      -26.471181    0.465284    1.526823
     66          1           0      -26.164902    1.664548    2.743052
     67          1           0      -27.029389    0.044161    3.032570
     68          1           0      -22.637113    0.055968    5.305982
     69          1           0      -24.355273   -0.446787    5.564825
     70          1           0      -23.109697    1.443730    6.950627
     71          1           0      -24.801030    1.012878    6.979125
     72          1           0      -24.381509    2.297103    5.934173
     73          1           0      -18.459384    2.649779    4.752479
     74          1           0      -19.611911    3.948024    4.286699
     75          1           0      -17.917612    3.851751    3.627885
     76          1           0      -16.071710    0.683445   -0.113266
     77          1           0      -17.184970    4.909504   -3.001419
     78          1           0      -16.429273    3.396841   -3.600953
     79          1           0      -15.564159    4.617939   -2.606760
     80         12           0       20.768016   -0.874995    0.283984
     81          6           0       21.538753    2.492764   -0.331836
     82          6           0       17.887114   -0.023527    1.732056
     83          6           0       20.271019   -4.024825    0.836419
     84          6           0       24.271293   -1.524002   -0.344122
     85          7           0       19.913308    1.052584    0.726929
     86          6           0       20.262978    2.261261    0.269065
     87          6           0       19.334423    3.341115    0.761545
     88          6           0       18.401872    2.553741    1.767107
     89          6           0       18.724856    1.120428    1.391753
     90          6           0       18.555612    2.830234    3.297946
     91          6           0       18.453692    3.928466   -0.456142
     92          6           0       18.419969    5.491310   -0.502290
     93          1           0       17.795693    6.033993   -1.899488
     94          7           0       19.221534   -1.870534    0.913653
     95          6           0       18.055814   -1.356513    1.455536
     96          6           0       17.098660   -2.422208    1.570481
     97          6           0       17.742114   -3.693960    1.278523
     98          6           0       19.129861   -3.250470    0.870082
     99          6           0       15.681089   -2.102534    2.126033
    100          6           0       17.317612   -5.158092    1.273019
    101          8           0       18.005366   -6.124955    0.898276
    102          6           0       15.895107   -5.341296    1.668283
    103          7           0       22.166072   -2.445949    0.382584
    104          6           0       21.616513   -3.674992    0.652176
    105          6           0       22.701548   -4.746487    0.765198
    106          6           0       23.903070   -4.035263    0.089250
    107          6           0       23.472082   -2.567289    0.086736
    108          6           0       22.844137   -5.214942    2.267650
    109          6           0       24.291455   -4.548544   -1.362049
    110          6           0       25.740361   -4.309294   -1.815955
    111          7           0       22.567430    0.213241   -0.271081
    112          6           0       23.848565   -0.201307   -0.475643
    113          6           0       24.675330    0.878196   -0.967001
    114          6           0       23.752772    1.940276   -0.984154
    115          6           0       22.509598    1.512367   -0.496689
    116          6           0       26.163094    0.938400   -1.383083
    117          6           0       23.626189    3.328673   -1.329553
    118          8           0       24.332589    4.101445   -1.922353
    119          6           0       22.187833    3.775255   -0.743598
    120          6           0       21.679839    4.582729   -1.855805
    121          8           0       21.106758    4.207315   -2.909698
    122          8           0       21.971468    5.852144   -1.523553
    123          6           0       21.619729    6.913777   -2.467624
    124          1           0       16.902703    0.240292    2.124589
    125          1           0       20.088915   -5.095859    0.948561
    126          1           0       25.294485   -1.794905   -0.612720
    127          1           0       19.823905    4.201874    1.218024
    128          1           0       17.329382    2.635337    1.589444
    129          1           0       18.991981    1.940772    3.752379
    130          1           0       17.538421    2.974729    3.661592
    131          1           0       19.182218    3.661706    3.618715
    132          1           0       17.430253    3.557984   -0.525504
    133          1           0       18.864055    3.487717   -1.364749
    134          1           0       19.425330    5.898754   -0.397812
    135          1           0       17.777910    5.963907    0.240633
    136          1           0       15.039769   -1.853530    1.281692
    137          1           0       15.621605   -1.148897    2.652007
    138          1           0       15.281297   -2.776556    2.883275
    139          1           0       15.175032   -4.850663    1.014355
    140          1           0       15.895354   -4.961089    2.690551
    141          1           0       15.593757   -6.386073    1.749089
    142          1           0       22.333695   -5.587564    0.177365
    143          1           0       24.798485   -4.196984    0.689330
    144          1           0       23.766233   -4.824571    2.698106
    145          1           0       22.883239   -6.282735    2.481472
    146          1           0       22.111664   -4.824664    2.974547
    147          1           0       23.702951   -3.897453   -2.009026
    148          1           0       24.078309   -5.590147   -1.603290
    149          1           0       25.799356   -3.607554   -2.648943
    150          1           0       26.347557   -5.159759   -2.126667
    151          1           0       26.212548   -3.773413   -0.993759
    152          1           0       26.652135    0.126586   -0.844658
    153          1           0       26.604871    1.901442   -1.123783
    154          1           0       26.188177    0.739250   -2.454390
    155          1           0       22.331093    4.432432    0.114311
    156          1           0       20.806484    7.499840   -2.039887
    157          1           0       21.445785    6.531351   -3.472841
    158          1           0       22.453026    7.614710   -2.515114
 ---------------------------------------------------------------------

 SCF Done:  E(RPBE1PBE) =  -4067.34595253     A.U. after   16 cycles

 Excitation energies and oscillator strengths:

 Excited State   1:      Singlet-A      1.8053 eV  686.79 nm  f=0.0000  <S**2>=0.000
     312 -> 313        0.70711
 This state for optimization and/or second-order correction.
 Total Energy, E(TD-HF/TD-DFT) =  -4067.27961002
 Copying the excited state density for this state as the 1-particle RhoCI density.

 Excited State   2:      Singlet-A      1.8469 eV  671.33 nm  f=0.3983  <S**2>=0.000
     309 -> 315        0.16873
     311 -> 313        0.69411
     311 <- 313       -0.11313

 Excited State   3:      Singlet-A      1.8755 eV  661.08 nm  f=0.3659  <S**2>=0.000
     310 -> 316        0.18972
     312 -> 314        0.68794

 Excited State   4:      Singlet-A      2.1740 eV  570.31 nm  f=0.0000  <S**2>=0.000
     311 -> 314        0.70710

 Excited State   5:      Singlet-A      2.2121 eV  560.47 nm  f=0.1076  <S**2>=0.000
     309 -> 313        0.65188
     311 -> 315       -0.25461

 The electronic state is 1-A.
 Alpha  occ. eigenvalues --  -46.94220 -46.90955 -19.25735 -19.25484 -19.20135
 Alpha  occ. eigenvalues --  -19.19780 -19.19261 -19.19010 -19.18652 -19.17651
 Alpha  occ. eigenvalues --  -14.42445 -14.42322 -14.42032 -14.41253 -14.39613
 Alpha  occ. eigenvalues --  -14.39086 -14.38906 -14.38061 -10.35734 -10.35525
 Alpha  occ. eigenvalues --  -10.32994 -10.31855 -10.31810 -10.30715 -10.29952
 Alpha  occ. eigenvalues --  -10.29698 -10.29678 -10.29410 -10.29052 -10.28952
 Alpha  occ. eigenvalues --  -10.28924 -10.28824 -10.28456 -10.28196 -10.28188
 Alpha  occ. eigenvalues --  -10.28039 -10.27821 -10.27701 -10.27689 -10.27571
 Alpha  occ. eigenvalues --  -10.26993 -10.26925 -10.26890 -10.26875 -10.26869
 Alpha  occ. eigenvalues --  -10.26646 -10.26537 -10.26314 -10.26313 -10.26293
 Alpha  occ. eigenvalues --  -10.26184 -10.26145 -10.26128 -10.26045 -10.25845
 Alpha  occ. eigenvalues --  -10.25636 -10.25590 -10.25576 -10.25546 -10.25515
 Alpha  occ. eigenvalues --  -10.25475 -10.25337 -10.25165 -10.25015 -10.25008
 Alpha  occ. eigenvalues --  -10.24899 -10.24604 -10.24540 -10.24436 -10.24413
 Alpha  occ. eigenvalues --  -10.24406 -10.24103 -10.24076 -10.24058 -10.23944
 Alpha  occ. eigenvalues --  -10.23933 -10.23909 -10.23464 -10.23347 -10.23221
 Alpha  occ. eigenvalues --  -10.23181 -10.23070 -10.22845 -10.22810 -10.22670
 Alpha  occ. eigenvalues --  -10.22202  -3.15959  -3.13369  -1.88810  -1.88312
 Alpha  occ. eigenvalues --   -1.88174  -1.86196  -1.85756  -1.85609  -1.12745
 Alpha  occ. eigenvalues --   -1.10676  -1.05534  -1.04390  -1.03991  -1.03890
 Alpha  occ. eigenvalues --   -1.03618  -1.00283  -0.99816  -0.99758  -0.98956
 Alpha  occ. eigenvalues --   -0.98423  -0.98241  -0.98049  -0.97291  -0.97004
 Alpha  occ. eigenvalues --   -0.87072  -0.86959  -0.83728  -0.83393  -0.83386
 Alpha  occ. eigenvalues --   -0.82579  -0.82498  -0.82373  -0.82325  -0.81761
 Alpha  occ. eigenvalues --   -0.81294  -0.81138  -0.80589  -0.80238  -0.79193
 Alpha  occ. eigenvalues --   -0.78953  -0.78782  -0.78088  -0.77034  -0.76772
 Alpha  occ. eigenvalues --   -0.76660  -0.76425  -0.75598  -0.75246  -0.74943
 Alpha  occ. eigenvalues --   -0.74593  -0.73018  -0.72427  -0.71923  -0.71604
 Alpha  occ. eigenvalues --   -0.71213  -0.71177  -0.70811  -0.70206  -0.69835
 Alpha  occ. eigenvalues --   -0.69705  -0.67623  -0.67216  -0.67008  -0.66566
 Alpha  occ. eigenvalues --   -0.63812  -0.63656  -0.63563  -0.63176  -0.62440
 Alpha  occ. eigenvalues --   -0.62272  -0.61588  -0.61352  -0.60792  -0.60446
 Alpha  occ. eigenvalues --   -0.60177  -0.59975  -0.59614  -0.59400  -0.59244
 Alpha  occ. eigenvalues --   -0.58981  -0.57849  -0.56323  -0.54745  -0.54699
 Alpha  occ. eigenvalues --   -0.54578  -0.54344  -0.53729  -0.53608  -0.53518
 Alpha  occ. eigenvalues --   -0.53233  -0.52883  -0.52596  -0.51688  -0.51530
 Alpha  occ. eigenvalues --   -0.51033  -0.50875  -0.50637  -0.50363  -0.50198
 Alpha  occ. eigenvalues --   -0.50012  -0.49658  -0.49133  -0.48848  -0.48461
 Alpha  occ. eigenvalues --   -0.48233  -0.48013  -0.47902  -0.47799  -0.47631
 Alpha  occ. eigenvalues --   -0.47428  -0.47425  -0.47115  -0.47063  -0.46903
 Alpha  occ. eigenvalues --   -0.46734  -0.46334  -0.46197  -0.46043  -0.45919
 Alpha  occ. eigenvalues --   -0.45903  -0.45593  -0.45560  -0.45188  -0.45007
 Alpha  occ. eigenvalues --   -0.44740  -0.44732  -0.44539  -0.44538  -0.44241
 Alpha  occ. eigenvalues --   -0.43995  -0.43926  -0.43704  -0.43687  -0.43486
 Alpha  occ. eigenvalues --   -0.43272  -0.43109  -0.43046  -0.42811  -0.42674
 Alpha  occ. eigenvalues --   -0.42605  -0.42274  -0.42090  -0.42020  -0.41934
 Alpha  occ. eigenvalues --   -0.41685  -0.41594  -0.41564  -0.41455  -0.41169
 Alpha  occ. eigenvalues --   -0.41110  -0.41068  -0.41043  -0.40566  -0.40528
 Alpha  occ. eigenvalues --   -0.40446  -0.40240  -0.39957  -0.39913  -0.39833
 Alpha  occ. eigenvalues --   -0.39688  -0.39617  -0.39508  -0.39176  -0.38883
 Alpha  occ. eigenvalues --   -0.38864  -0.38548  -0.38491  -0.38361  -0.38257
 Alpha  occ. eigenvalues --   -0.38248  -0.37902  -0.37883  -0.37690  -0.37673
 Alpha  occ. eigenvalues --   -0.37620  -0.37527  -0.37391  -0.37088  -0.37009
 Alpha  occ. eigenvalues --   -0.36830  -0.36658  -0.36650  -0.36199  -0.36187
 Alpha  occ. eigenvalues --   -0.35983  -0.35953  -0.35660  -0.35615  -0.35488
 Alpha  occ. eigenvalues --   -0.35167  -0.35044  -0.34597  -0.34483  -0.34181
 Alpha  occ. eigenvalues --   -0.33667  -0.33648  -0.32916  -0.32796  -0.32576
 Alpha  occ. eigenvalues --   -0.32406  -0.32261  -0.31983  -0.31976  -0.31459
 Alpha  occ. eigenvalues --   -0.30441  -0.30321  -0.29836  -0.29423  -0.29380
 Alpha  occ. eigenvalues --   -0.29148  -0.29078  -0.27837  -0.27166  -0.26947
 Alpha  occ. eigenvalues --   -0.26370  -0.26003  -0.25936  -0.25737  -0.25539
 Alpha  occ. eigenvalues --   -0.25177  -0.25081  -0.24628  -0.21475  -0.21076
 Alpha  occ. eigenvalues --   -0.19274  -0.18756
 Alpha virt. eigenvalues --   -0.11808  -0.10973  -0.05782  -0.05709  -0.04433
 Alpha virt. eigenvalues --   -0.03928  -0.02030  -0.01916  -0.01554   0.00208
 Alpha virt. eigenvalues --    0.00554   0.00879   0.00991   0.01267   0.01399

 Mulliken charges:
               1
     1  Mg  12.000000
     2  C    6.000000
     3  C    6.000000
     4  C    6.000000
     5  C    6.000000
     6  N    7.000000
     7  C    6.000000
     8  C    6.000000
     9  C    6.000000
    10  C    6.000000
    11  C    6.000000
    12  C    6.000000
    13  C    6.000000
    14  H    1.000000
    15  N    7.000000
    16  C    6.000000
    17  C    6.000000
    18  C    6.000000
    19  C    6.000000
    20  C    6.000000
    21  C    6.000000
    22  O    8.000000
    23  C    6.000000
    24  N    7.000000
    25  C    6.000000
    26  C    6.000000
    27  C    6.000000
    28  C    6.000000
    29  C    6.000000
    30  C    6.000000
    31  C    6.000000
    32  N    7.000000
    33  C    6.000000
    34  C    6.000000
    35  C    6.000000
    36  C    6.000000
    37  C    6.000000
    38  C    6.000000
    39  O    8.000000
    40  C    6.000000
    41  C    6.000000
    42  O    8.000000
    43  O    8.000000
    44  C    6.000000
    45  H    1.000000
    46  H    1.000000
    47  H    1.000000
    48  H    1.000000
    49  H    1.000000
    50  H    1.000000
    51  H    1.000000
    52  H    1.000000
    53  H    1.000000
    54  H    1.000000
    55  H    1.000000
    56  H    1.000000
    57  H    1.000000
    58  H    1.000000
    59  H    1.000000
    60  H    1.000000
    61  H    1.000000
    62  H    1.000000
    63  H    1.000000
    64  H    1.000000
    65  H    1.000000
    66  H    1.000000
    67  H    1.000000
    68  H    1.000000
    69  H    1.000000
    70  H    1.000000
    71  H    1.000000
    72  H    1.000000
    73  H    1.000000
    74  H    1.000000
    75  H    1.000000
    76  H    1.000000
    77  H    1.000000
    78  H    1.000000
    79  H    1.000000
    80  Mg  12.000000
    81  C    6.000000
    82  C    6.000000
    83  C    6.000000
    84  C    6.000000
    85  N    7.000000
    86  C    6.000000
    87  C    6.000000
    88  C    6.000000
    89  C    6.000000
    90  C    6.000000
    91  C    6.000000
    92  C    6.000000
    93  H    1.000000
    94  N    7.000000
    95  C    6.000000
    96  C    6.000000
    97  C    6.000000
    98  C    6.000000
    99  C    6.000000
   100  C    6.000000
   101  O    8.000000
   102  C    6.000000
   103  N    7.000000
   104  C    6.000000
   105  C    6.000000
   106  C    6.000000
   107  C    6.000000
   108  C    6.000000
   109  C    6.000000
   110  C    6.000000
   111  N    7.000000
   112  C    6.000000
   113  C    6.000000
   114  C    6.000000
   115  C    6.000000
   116  C    6.000000
   117  C    6.000000
   118  O    8.000000
   119  C    6.000000
   120  C    6.000000
   121  O    8.000000
   122  O    8.000000
   123  C    6.000000
   124  H    1.000000
   125  H    1.000000
   126  H    1.000000
   127  H    1.000000
   128  H    1.000000
   129  H    1.000000
   130  H    1.000000
   131  H    1.000000
   132  H    1.000000
   133  H    1.000000
   134  H    1.000000
   135  H    1.000000
   136  H    1.000000
   137  H    1.000000
   138  H    1.000000
   139  H    1.000000
   140  H    1.000000
   141  H    1.000000
   142  H    1.000000
   143  H    1.000000
   144  H    1.000000
   145  H    1.000000
   146  H    1.000000
   147  H    1.000000
   148  H    1.000000
   149  H    1.000000
   150  H    1.000000
   151  H    1.000000
   152  H    1.000000
   153  H    1.000000
   154  H    1.000000
   155  H    1.000000
   156  H    1.000000
   157  H    1.000000
   158  H    1.000000
 Sum of Mulliken charges = 624.00000

 Dipole moment (field-independent basis, Debye):
    X=             -0.0000    Y=             -0.0000    Z=              0.0000  Tot=              0.0000
 Quadrupole moment (field-independent basis, Debye-Ang):
   XX=             -0.0000   YY=              0.0000   ZZ=              0.0000
   XY=             -0.0000   XZ=              0.0000   YZ=             -0.0000

 Normal termination of Gaussian 16 at Thu Oct 14 05:40:36 2021.
