 Gaussian 16, Revision A.03,
 Gaussian 16:  ES64L-G16RevA.03 25-Dec-2016

 --------------------------------------------------------
 #p PBE1PBE/Def2SVP td=(nstates=5) density=(transition=1)
 --------------------------------------------------------

 --------------------------------
 TDDFT excited states in gaussian
 --------------------------------
 Symbolic Z-matrix:
 Charge =  0 Multiplicity = 1

                         Standard orientation:
 ---------------------------------------------------------------------
 Center     Atomic      Atomic             Coordinates (Angstroms)
 Number     Number       Type             X           Y           Z
 ---------------------------------------------------------------------
      1         12           0      -21.999845    0.225167   -0.112862
      2          6           0      -18.576246    0.511476    0.300088
      3          6           0      -21.495933   -0.754120   -3.391707
      4          6           0      -25.229044   -0.753119   -0.213207
      5          6           0      -22.265753    0.908551    3.336765
      6          7           0      -20.202307   -0.360210   -1.314724
      7          6           0      -18.974647    0.037126   -0.968613
      8          6           0      -17.948555   -0.379349   -2.067417
      9          6           0      -18.908490   -0.521197   -3.341328
     10          6           0      -20.334483   -0.474283   -2.670514
     11          6           0      -18.610028    0.526396   -4.440863
     12          6           0      -17.325966   -1.714742   -1.729004
     13          6           0      -15.836695   -1.834142   -2.012594
     14          1           0      -15.175112   -3.155906   -2.557000
     15          7           0      -23.223643   -0.487055   -1.710927
     16          6           0      -22.853290   -0.896300   -2.936536
     17          6           0      -24.034694   -1.290070   -3.633237
     18          6           0      -25.174626   -1.132728   -2.787849
     19          6           0      -24.594606   -0.738051   -1.498177
     20          6           0      -24.016270   -1.595615   -5.085346
     21          6           0      -26.556109   -1.534499   -3.165341
     22          8           0      -26.791487   -1.935993   -4.292870
     23          6           0      -27.722139   -1.394527   -2.194071
     24          7           0      -23.601966    0.182234    1.416146
     25          6           0      -24.810326   -0.344663    1.071903
     26          6           0      -25.652633   -0.569590    2.285383
     27          6           0      -24.671035   -0.031010    3.430704
     28          6           0      -23.429513    0.463913    2.731093
     29          6           0      -27.044956    0.087008    2.236238
     30          6           0      -24.345476   -1.053340    4.607901
     31          6           0      -24.530849   -0.635488    6.085621
     32          7           0      -20.746852    0.646371    1.478782
     33          6           0      -20.998097    0.966818    2.775871
     34          6           0      -19.865481    1.539570    3.356104
     35          6           0      -18.842502    1.423059    2.425318
     36          6           0      -19.407090    0.809985    1.335016
     37          6           0      -19.790032    2.055214    4.823143
     38          6           0      -17.506140    1.676860    2.151128
     39          8           0      -16.644815    2.097949    2.915299
     40          6           0      -17.165196    1.054350    0.712261
     41          6           0      -16.798785    2.053820   -0.225135
     42          8           0      -17.484386    2.871297   -0.843829
     43          8           0      -15.418354    1.955020   -0.369735
     44          6           0      -14.698608    2.843542   -1.266030
     45          1           0      -21.358514   -0.910999   -4.463388
     46          1           0      -26.280064   -1.025870   -0.093443
     47          1           0      -22.477483    1.188797    4.370836
     48          1           0      -17.186693    0.397676   -2.123356
     49          1           0      -18.915595   -1.517042   -3.783244
     50          1           0      -17.865318    1.252856   -4.116246
     51          1           0      -19.532803    1.038702   -4.714993
     52          1           0      -18.284066   -0.015514   -5.328361
     53          1           0      -17.789178   -2.608792   -2.146881
     54          1           0      -17.569858   -1.866342   -0.677527
     55          1           0      -15.324763   -1.503162   -1.109162
     56          1           0      -15.702559   -1.047020   -2.754565
     57          1           0      -24.348799   -0.657788   -5.529933
     58          1           0      -24.678029   -2.427225   -5.328178
     59          1           0      -23.026047   -1.860606   -5.456098
     60          1           0      -27.655064   -2.255961   -1.529418
     61          1           0      -28.618898   -1.575647   -2.786123
     62          1           0      -27.681681   -0.436328   -1.676238
     63          1           0      -25.718508   -1.656979    2.267985
     64          1           0      -25.128083    0.776434    4.002783
     65          1           0      -27.752085   -0.728064    2.078695
     66          1           0      -27.128020    0.850494    1.462055
     67          1           0      -27.273150    0.520938    3.209450
     68          1           0      -23.300720   -1.351088    4.520012
     69          1           0      -24.959459   -1.953395    4.569054
     70          1           0      -23.537216   -0.233448    6.283077
     71          1           0      -24.683920   -1.513776    6.711404
     72          1           0      -25.160337    0.217253    6.339596
     73          1           0      -19.758724    1.193820    5.489093
     74          1           0      -20.652288    2.619635    5.178698
     75          1           0      -18.887899    2.646677    4.981884
     76          1           0      -16.398399    0.300645    0.891954
     77          1           0      -13.706567    2.988554   -0.839440
     78          1           0      -15.215542    3.770492   -1.515730
     79          1           0      -14.507377    2.292923   -2.187198
     80         12           0       21.132730   -0.932531   -0.199633
     81          6           0       21.939034    2.482240   -0.640276
     82          6           0       18.035335    0.039627    0.891298
     83          6           0       20.620143   -4.042022    0.818277
     84          6           0       24.478982   -1.708091   -0.872356
     85          7           0       20.164179    1.055566    0.244811
     86          6           0       20.672655    2.301147   -0.132974
     87          6           0       19.554409    3.370227   -0.063437
     88          6           0       18.311062    2.557778    0.452753
     89          6           0       18.814344    1.088967    0.514278
     90          6           0       17.567412    3.116975    1.653082
     91          6           0       19.267978    4.148608   -1.357009
     92          6           0       19.349207    5.691429   -1.195174
     93          1           0       18.109620    6.454657   -1.606125
     94          7           0       19.489655   -1.868395    0.653996
     95          6           0       18.311016   -1.322408    1.070083
     96          6           0       17.435670   -2.405868    1.449114
     97          6           0       18.241808   -3.617133    1.574108
     98          6           0       19.507980   -3.162281    1.020437
     99          6           0       15.917261   -2.162335    1.944753
    100          6           0       18.026826   -4.863539    2.319414
    101          8           0       18.746244   -5.820515    2.362863
    102          6           0       16.743583   -4.934839    3.141743
    103          7           0       22.471674   -2.594803    0.140392
    104          6           0       21.979030   -3.792848    0.510781
    105          6           0       23.027918   -4.891268    0.322031
    106          6           0       24.095442   -4.197170   -0.538987
    107          6           0       23.665992   -2.748565   -0.472019
    108          6           0       23.609568   -5.389664    1.723785
    109          6           0       23.970328   -4.747337   -2.050010
    110          6           0       22.733456   -4.251171   -2.847628
    111          7           0       22.895570    0.081697   -0.785948
    112          6           0       24.137973   -0.368429   -1.024748
    113          6           0       24.958418    0.753683   -1.393883
    114          6           0       24.135115    1.860448   -1.305162
    115          6           0       22.879739    1.433106   -0.864029
    116          6           0       26.425985    0.782063   -1.776276
    117          6           0       24.186768    3.317965   -1.447555
    118          8           0       25.003009    4.172016   -1.650814
    119          6           0       22.746454    3.778657   -1.100204
    120          6           0       22.893737    4.721332    0.036474
    121          8           0       23.470458    4.403751    1.046171
    122          8           0       22.391665    5.985972   -0.225319
    123          6           0       22.766850    7.066381    0.747151
    124          1           0       16.996130    0.343495    1.034185
    125          1           0       20.469779   -5.103683    1.026845
    126          1           0       25.469884   -1.875119   -1.299824
    127          1           0       19.792808    4.071408    0.736591
    128          1           0       17.528215    2.630292   -0.302478
    129          1           0       18.167217    3.859687    2.177035
    130          1           0       17.235658    2.354781    2.358587
    131          1           0       16.719414    3.666856    1.245655
    132          1           0       18.289564    4.026879   -1.821785
    133          1           0       19.961909    3.855760   -2.144592
    134          1           0       20.254595    6.093625   -1.649602
    135          1           0       19.444331    5.903219   -0.130948
    136          1           0       15.277117   -2.864868    1.411237
    137          1           0       15.491075   -1.183020    1.730322
    138          1           0       15.697895   -2.223805    3.010654
    139          1           0       15.959799   -4.854306    2.388187
    140          1           0       16.785373   -4.063534    3.794570
    141          1           0       16.588062   -5.879695    3.663394
    142          1           0       22.668832   -5.742013   -0.258074
    143          1           0       25.141869   -4.206857   -0.233224
    144          1           0       23.907918   -6.429652    1.588854
    145          1           0       22.953094   -5.380643    2.594535
    146          1           0       24.493846   -4.770957    1.875824
    147          1           0       23.997555   -5.835346   -2.106684
    148          1           0       24.763685   -4.315683   -2.660379
    149          1           0       22.557598   -4.752639   -3.798723
    150          1           0       22.888825   -3.194683   -3.066835
    151          1           0       21.863508   -4.349931   -2.197549
    152          1           0       26.665091    0.227066   -2.683134
    153          1           0       26.917798    0.297137   -0.933433
    154          1           0       26.831330    1.793098   -1.815940
    155          1           0       22.440813    4.327921   -1.990527
    156          1           0       21.791850    7.543601    0.845813
    157          1           0       23.484369    7.778076    0.339214
    158          1           0       23.175841    6.809392    1.723962
 ---------------------------------------------------------------------

 SCF Done:  E(RPBE1PBE) =  -4067.36350760     A.U. after   16 cycles

 Excitation energies and oscillator strengths:

 Excited State   1:      Singlet-A      1.8605 eV  666.41 nm  f=0.4133  <S**2>=0.000
     309 -> 315        0.17756
     311 -> 313        0.69065
     311 <- 313       -0.10998
 This state for optimization and/or second-order correction.
 Total Energy, E(TD-HF/TD-DFT) =  -4067.29513589
 Copying the excited state density for this state as the 1-particle RhoCI density.

 Excited State   2:      Singlet-A      1.8680 eV  663.74 nm  f=0.3622  <S**2>=0.000
     310 -> 316        0.16781
     312 -> 314        0.69293
     312 <- 314       -0.11141

 Excited State   3:      Singlet-A      1.9618 eV  631.99 nm  f=0.0000  <S**2>=0.000
     312 -> 313        0.70711

 Excited State   4:      Singlet-A      1.9980 eV  620.53 nm  f=0.0000  <S**2>=0.000
     311 -> 314        0.70711

 Excited State   5:      Singlet-A      2.2023 eV  562.97 nm  f=0.1275  <S**2>=0.000
     310 -> 314        0.66417
     312 -> 316       -0.22437

 The electronic state is 1-A.
 Alpha  occ. eigenvalues --  -46.93091 -46.92933 -19.25767 -19.25296 -19.20371
 Alpha  occ. eigenvalues --  -19.19780 -19.19542 -19.19459 -19.18636 -19.18628
 Alpha  occ. eigenvalues --  -14.41906 -14.41692 -14.41529 -14.41385 -14.39494
 Alpha  occ. eigenvalues --  -14.39437 -14.38906 -14.38868 -10.36548 -10.35776
 Alpha  occ. eigenvalues --  -10.32388 -10.32274 -10.31810 -10.31498 -10.29301
 Alpha  occ. eigenvalues --  -10.29232 -10.29177 -10.29070 -10.29020 -10.28896
 Alpha  occ. eigenvalues --  -10.28808 -10.28651 -10.28538 -10.28510 -10.28463
 Alpha  occ. eigenvalues --  -10.27968 -10.27709 -10.27510 -10.27423 -10.27145
 Alpha  occ. eigenvalues --  -10.27001 -10.26803 -10.26530 -10.26360 -10.26343
 Alpha  occ. eigenvalues --  -10.26229 -10.26172 -10.26148 -10.26031 -10.26016
 Alpha  occ. eigenvalues --  -10.25984 -10.25848 -10.25843 -10.25824 -10.25741
 Alpha  occ. eigenvalues --  -10.25689 -10.25549 -10.25502 -10.25485 -10.25384
 Alpha  occ. eigenvalues --  -10.25331 -10.25100 -10.24885 -10.24757 -10.24715
 Alpha  occ. eigenvalues --  -10.24650 -10.24486 -10.24397 -10.24382 -10.24217
 Alpha  occ. eigenvalues --  -10.24204 -10.24109 -10.23980 -10.23941 -10.23668
 Alpha  occ. eigenvalues --  -10.23566 -10.23491 -10.23435 -10.23379 -10.23375
 Alpha  occ. eigenvalues --  -10.23339 -10.23039 -10.22706 -10.22562 -10.22419
 Alpha  occ. eigenvalues --  -10.22363  -3.15000  -3.14921  -1.87853  -1.87743
 Alpha  occ. eigenvalues --   -1.87368  -1.87308  -1.87215  -1.87136  -1.10463
 Alpha  occ. eigenvalues --   -1.10397  -1.06400  -1.05844  -1.04821  -1.04778
 Alpha  occ. eigenvalues --   -1.02420  -1.02296  -1.00223  -0.99818  -0.98967
 Alpha  occ. eigenvalues --   -0.98737  -0.98537  -0.98509  -0.97337  -0.96612
 Alpha  occ. eigenvalues --   -0.88306  -0.86693  -0.83838  -0.83417  -0.83185
 Alpha  occ. eigenvalues --   -0.83073  -0.82716  -0.82580  -0.82273  -0.82083
 Alpha  occ. eigenvalues --   -0.81268  -0.80859  -0.80609  -0.80583  -0.79747
 Alpha  occ. eigenvalues --   -0.78930  -0.78713  -0.77760  -0.77357  -0.76762
 Alpha  occ. eigenvalues --   -0.76502  -0.75857  -0.75487  -0.75186  -0.75117
 Alpha  occ. eigenvalues --   -0.74426  -0.72673  -0.72551  -0.71960  -0.71700
 Alpha  occ. eigenvalues --   -0.71044  -0.70901  -0.70817  -0.70449  -0.69588
 Alpha  occ. eigenvalues --   -0.69565  -0.67964  -0.67552  -0.66902  -0.66231
 Alpha  occ. eigenvalues --   -0.64356  -0.63693  -0.63690  -0.63634  -0.62576
 Alpha  occ. eigenvalues --   -0.62512  -0.61801  -0.61631  -0.60584  -0.60359
 Alpha  occ. eigenvalues --   -0.60089  -0.59909  -0.59839  -0.59648  -0.59453
 Alpha  occ. eigenvalues --   -0.59057  -0.57269  -0.56837  -0.55084  -0.55018
 Alpha  occ. eigenvalues --   -0.54540  -0.54271  -0.53854  -0.53734  -0.53540
 Alpha  occ. eigenvalues --   -0.53356  -0.52854  -0.52648  -0.52615  -0.52158
 Alpha  occ. eigenvalues --   -0.50970  -0.50687  -0.50615  -0.50123  -0.49897
 Alpha  occ. eigenvalues --   -0.49709  -0.49396  -0.49222  -0.48949  -0.48664
 Alpha  occ. eigenvalues --   -0.48259  -0.48020  -0.48015  -0.47560  -0.47194
 Alpha  occ. eigenvalues --   -0.47089  -0.46938  -0.46933  -0.46749  -0.46698
 Alpha  occ. eigenvalues --   -0.46546  -0.46543  -0.46381  -0.46133  -0.46125
 Alpha  occ. eigenvalues --   -0.45883  -0.45720  -0.45328  -0.45033  -0.44752
 Alpha  occ. eigenvalues --   -0.44644  -0.44569  -0.44388  -0.44276  -0.44107
 Alpha  occ. eigenvalues --   -0.44066  -0.44032  -0.43919  -0.43739  -0.43701
 Alpha  occ. eigenvalues --   -0.43652  -0.43065  -0.43064  -0.42978  -0.42936
 Alpha  occ. eigenvalues --   -0.42559  -0.42262  -0.42232  -0.42038  -0.41663
 Alpha  occ. eigenvalues --   -0.41625  -0.41544  -0.41447  -0.41360  -0.41100
 Alpha  occ. eigenvalues --   -0.40897  -0.40862  -0.40778  -0.40712  -0.40597
 Alpha  occ. eigenvalues --   -0.40556  -0.40312  -0.40261  -0.40118  -0.40089
 Alpha  occ. eigenvalues --   -0.39822  -0.39808  -0.39520  -0.39330  -0.39317
 Alpha  occ. eigenvalues --   -0.38914  -0.38729  -0.38502  -0.38482  -0.38294
 Alpha  occ. eigenvalues --   -0.38158  -0.38100  -0.38000  -0.37816  -0.37808
 Alpha  occ. eigenvalues --   -0.37713  -0.37339  -0.37142  -0.37063  -0.36979
 Alpha  occ. eigenvalues --   -0.36910  -0.36868  -0.36829  -0.36705  -0.36405
 Alpha  occ. eigenvalues --   -0.36317  -0.36298  -0.35906  -0.35736  -0.35240
 Alpha  occ. eigenvalues --   -0.35232  -0.34679  -0.34674  -0.33996  -0.33299
 Alpha  occ. eigenvalues --   -0.33294  -0.33199  -0.33052  -0.32992  -0.32821
 Alpha  occ. eigenvalues --   -0.32451  -0.32274  -0.32101  -0.31358  -0.31194
 Alpha  occ. eigenvalues --   -0.31182  -0.30719  -0.29838  -0.29598  -0.29586
 Alpha  occ. eigenvalues --   -0.29118  -0.29069  -0.28745  -0.27468  -0.27240
 Alpha  occ. eigenvalues --   -0.26445  -0.26151  -0.25997  -0.25950  -0.25752
 Alpha  occ. eigenvalues --   -0.25524  -0.25117  -0.25116  -0.21534  -0.21131
 Alpha  occ. eigenvalues --   -0.19239  -0.19193
 Alpha virt. eigenvalues --   -0.11676  -0.11589  -0.05791  -0.05001  -0.04431
 Alpha virt. eigenvalues --   -0.03688  -0.02127  -0.01933  -0.01125  -0.00454
 Alpha virt. eigenvalues --   -0.00236   0.00451   0.00813   0.01155   0.01347

 Mulliken charges:
               1
     1  Mg  11.997528
     2  C    5.998681
     3  C    6.025973
     4  C    6.007446
     5  C    5.977239
     6  N    7.013607
     7  C    6.018604
     8  C    5.992816
     9  C    6.009106
    10  C    5.962066
    11  C    6.000441
    12  C    5.999270
    13  C    5.997497
    14  H    1.009122
    15  N    7.001755
    16  C    5.958130
    17  C    5.976925
    18  C    5.989529
    19  C    5.966755
    20  C    6.004229
    21  C    5.990156
    22  O    7.982900
    23  C    6.002235
    24  N    6.992005
    25  C    5.973596
    26  C    6.009649
    27  C    5.991121
    28  C    6.033362
    29  C    6.003424
    30  C    5.997741
    31  C    6.002338
    32  N    7.002775
    33  C    6.030281
    34  C    6.029582
    35  C    6.003723
    36  C    6.018241
    37  C    6.001165
    38  C    6.017309
    39  O    8.031331
    40  C    6.004223
    41  C    6.001125
    42  O    8.010930
    43  O    8.001912
    44  C    5.996550
    45  H    0.994926
    46  H    0.988750
    47  H    1.005699
    48  H    0.998284
    49  H    1.000798
    50  H    0.988905
    51  H    1.004285
    52  H    0.998725
    53  H    1.010691
    54  H    0.994046
    55  H    0.995364
    56  H    1.003607
    57  H    0.979011
    58  H    0.983311
    59  H    0.979266
    60  H    0.990607
    61  H    0.987877
    62  H    0.992532
    63  H    1.000521
    64  H    1.000618
    65  H    1.000791
    66  H    1.001002
    67  H    0.989040
    68  H    0.995195
    69  H    1.009150
    70  H    0.992757
    71  H    1.002600
    72  H    1.002544
    73  H    1.019075
    74  H    1.019175
    75  H    1.011043
    76  H    1.009438
    77  H    1.003909
    78  H    1.004362
    79  H    1.007700
    80  Mg  12.000045
    81  C    5.998320
    82  C    6.000336
    83  C    6.001262
    84  C    5.999852
    85  N    6.999359
    86  C    6.002288
    87  C    5.999128
    88  C    6.000720
    89  C    5.998281
    90  C    6.000210
    91  C    6.000030
    92  C    5.999837
    93  H    1.000432
    94  N    7.000152
    95  C    5.997704
    96  C    5.998343
    97  C    5.998628
    98  C    5.998330
    99  C    6.000132
   100  C    5.999329
   101  O    7.997937
   102  C    6.000134
   103  N    7.000459
   104  C    5.997673
   105  C    6.000595
   106  C    5.999541
   107  C    6.001873
   108  C    6.000360
   109  C    5.999625
   110  C    5.999878
   111  N    6.999676
   112  C    6.002373
   113  C    6.002224
   114  C    5.999863
   115  C    6.002674
   116  C    6.000046
   117  C    6.001060
   118  O    8.001804
   119  C    6.000094
   120  C    6.000489
   121  O    8.000102
   122  O    8.000151
   123  C    5.999843
   124  H    0.999166
   125  H    0.999672
   126  H    1.000851
   127  H    1.000111
   128  H    0.999779
   129  H    0.999273
   130  H    1.000381
   131  H    0.999535
   132  H    1.000488
   133  H    0.999636
   134  H    0.999736
   135  H    1.000105
   136  H    0.998847
   137  H    0.998725
   138  H    0.998613
   139  H    0.999549
   140  H    0.999653
   141  H    0.998955
   142  H    0.999999
   143  H    0.999998
   144  H    0.999788
   145  H    1.000422
   146  H    0.999201
   147  H    1.000772
   148  H    0.999854
   149  H    1.000346
   150  H    0.999266
   151  H    1.001168
   152  H    1.001408
   153  H    1.001197
   154  H    1.000969
   155  H    1.000543
   156  H    1.000374
   157  H    1.000196
   158  H    1.000231
 Sum of Mulliken charges = 624.00000

 Dipole moment (field-independent basis, Debye):
    X=              7.9322    Y=              3.4134    Z=              6.5257  Tot=             10.8238
 Quadrupole moment (field-independent basis, Debye-Ang):
   XX=           -292.8344   YY=              1.7546   ZZ=             -3.0304
   XY=            -59.5582   XZ=           -157.4536   YZ=              0.7367

 Normal termination of Gaussian 16 at Thu Oct 14 10:46:18 2021.
