 Gaussian 16, Revision A.03,
 Gaussian 16:  ES64L-G16RevA.03 25-Dec-2016

 --------------------------------------------------------
 #p PBE1PBE/Def2SVP td=(nstates=5) density=(transition=1)
 --------------------------------------------------------

 --------------------------------
 TDDFT excited states in gaussian
 --------------------------------
 Symbolic Z-matrix:
 Charge =  0 Multiplicity = 1

                         Standard orientation:
 ---------------------------------------------------------------------
 Center     Atomic      Atomic             Coordinates (Angstroms)
 Number     Number       Type             X           Y           Z
 ---------------------------------------------------------------------
      1         12           0       25.432531   -0.271673    0.022287
      2          6           0       22.014682   -1.075736    0.170575
      3          6           0       25.289303   -0.611280   -3.396236
      4          6           0       28.388335    1.210661   -0.084767
      5          6           0       25.377543    0.299711    3.527760
      6          7           0       23.791061   -0.530425   -1.433160
      7          6           0       22.437852   -0.855384   -1.156879
      8          6           0       21.726690   -1.389841   -2.331030
      9          6           0       22.844103   -1.323070   -3.459628
     10          6           0       24.076773   -0.822650   -2.723295
     11          6           0       22.982002   -2.653424   -4.238833
     12          6           0       20.571605   -0.556748   -2.796499
     13          6           0       20.736041    0.967446   -2.701862
     14          1           0       20.116949    1.930538   -3.788309
     15          7           0       26.728440    0.218928   -1.526050
     16          6           0       26.521248   -0.121438   -2.812473
     17          6           0       27.707913    0.199987   -3.565118
     18          6           0       28.660642    0.663827   -2.624795
     19          6           0       27.969762    0.694473   -1.325643
     20          6           0       27.864315    0.088001   -5.057855
     21          6           0       30.104663    1.054761   -2.937810
     22          8           0       30.537949    0.997581   -4.072032
     23          6           0       31.114151    1.643266   -1.997211
     24          7           0       26.591988    0.852881    1.449201
     25          6           0       27.841026    1.336642    1.164182
     26          6           0       28.614504    1.727720    2.466212
     27          6           0       27.482312    1.700389    3.537207
     28          6           0       26.427332    0.891540    2.814722
     29          6           0       29.769721    0.777874    2.864937
     30          6           0       26.772708    3.102182    3.846795
     31          6           0       26.573871    3.452036    5.277079
     32          7           0       24.109979   -0.442425    1.542925
     33          6           0       24.295330   -0.362220    2.867474
     34          6           0       23.170445   -1.065274    3.592198
     35          6           0       22.287067   -1.396934    2.516052
     36          6           0       22.835095   -0.867772    1.313419
     37          6           0       22.961508   -1.328388    5.076578
     38          6           0       20.971910   -1.902788    2.247382
     39          8           0       20.108727   -2.315889    3.005541
     40          6           0       20.762171   -1.736725    0.688178
     41          6           0       19.664555   -0.710441    0.498181
     42          8           0       19.707936    0.450963    0.737443
     43          8           0       18.603595   -1.335388   -0.121924
     44          6           0       17.586483   -0.407596   -0.626907
     45          1           0       25.287398   -0.910954   -4.446126
     46          1           0       29.428989    1.538979   -0.073533
     47          1           0       25.485779    0.369587    4.612118
     48          1           0       21.371602   -2.388031   -2.074871
     49          1           0       22.742513   -0.517328   -4.186577
     50          1           0       22.970375   -2.281964   -5.263675
     51          1           0       22.118945   -3.265500   -3.976678
     52          1           0       23.937858   -3.149807   -4.070189
     53          1           0       19.605167   -0.889104   -2.416575
     54          1           0       20.323016   -0.670876   -3.851849
     55          1           0       21.813009    1.126755   -2.638518
     56          1           0       20.336250    1.175534   -1.709251
     57          1           0       28.326010    0.985142   -5.471591
     58          1           0       26.902568   -0.146849   -5.513750
     59          1           0       28.541411   -0.756526   -5.188203
     60          1           0       30.882924    2.641088   -1.625791
     61          1           0       31.953103    1.810698   -2.672823
     62          1           0       31.503907    0.921400   -1.278710
     63          1           0       29.038612    2.720007    2.313122
     64          1           0       27.775240    1.208627    4.465179
     65          1           0       29.490308    0.259547    3.782021
     66          1           0       30.738943    1.273143    2.808816
     67          1           0       29.855030    0.001471    2.105502
     68          1           0       25.821268    3.183596    3.321719
     69          1           0       27.441237    3.834539    3.393898
     70          1           0       27.019372    4.409057    5.547838
     71          1           0       26.935778    2.688977    5.966569
     72          1           0       25.518885    3.576582    5.519696
     73          1           0       22.017269   -0.853056    5.342286
     74          1           0       23.873224   -1.033073    5.597332
     75          1           0       22.774876   -2.399203    5.156950
     76          1           0       20.521707   -2.680900    0.200007
     77          1           0       17.996958    0.560830   -0.912518
     78          1           0       16.904791   -0.297983    0.216585
     79          1           0       17.025276   -0.965440   -1.376055
     80         12           0      -25.274669    0.505502    0.126954
     81          6           0      -22.278140   -1.350188    0.449077
     82          6           0      -26.952558   -2.417260   -0.050282
     83          6           0      -27.996718    2.272271   -0.305815
     84          6           0      -23.228683    3.403236   -0.406835
     85          7           0      -24.683756   -1.697484    0.087341
     86          6           0      -23.438987   -2.150673    0.491004
     87          6           0      -23.583345   -3.604878    0.784707
     88          6           0      -24.884401   -4.014881    0.094079
     89          6           0      -25.607476   -2.645831    0.039619
     90          6           0      -24.604739   -4.552656   -1.359294
     91          6           0      -23.574586   -4.038897    2.348081
     92          6           0      -22.782814   -5.298799    2.814560
     93          1           0      -23.017478   -6.610777    2.011376
     94          7           0      -27.226475   -0.049354   -0.155253
     95          6           0      -27.687037   -1.265304   -0.175911
     96          6           0      -29.137015   -1.205248   -0.429379
     97          6           0      -29.533169    0.160184   -0.297463
     98          6           0      -28.226524    0.876876   -0.271364
     99          6           0      -30.130441   -2.384115   -0.737251
    100          6           0      -30.911312    0.816661   -0.222459
    101          8           0      -31.102709    2.047722   -0.225911
    102          6           0      -32.087233   -0.028743   -0.360154
    103          7           0      -25.529334    2.584729   -0.479344
    104          6           0      -26.823704    3.097914   -0.474222
    105          6           0      -26.749097    4.671234   -0.559939
    106          6           0      -25.231787    4.961871   -0.446462
    107          6           0      -24.605780    3.566218   -0.399895
    108          6           0      -27.483708    5.239076   -1.774630
    109          6           0      -24.803298    5.928747    0.685955
    110          6           0      -23.681434    6.947563    0.377427
    111          7           0      -23.201893    0.984323    0.014448
    112          6           0      -22.524015    2.169216   -0.254263
    113          6           0      -21.115436    1.948318   -0.046726
    114          6           0      -20.973779    0.577166    0.171958
    115          6           0      -22.272174   -0.001200    0.219771
    116          6           0      -20.098065    2.915386   -0.044169
    117          6           0      -20.024659   -0.505663    0.469700
    118          8           0      -18.814711   -0.526924    0.630801
    119          6           0      -20.859785   -1.809713    0.687414
    120          6           0      -20.339997   -2.846867   -0.292062
    121          8           0      -20.569865   -3.080053   -1.457133
    122          8           0      -19.548771   -3.615726    0.511666
    123          6           0      -19.124936   -4.940376   -0.001317
    124          1           0      -27.518404   -3.351158   -0.020735
    125          1           0      -28.933562    2.829485   -0.241310
    126          1           0      -22.608338    4.299086   -0.342360
    127          1           0      -22.798910   -4.252276    0.391949
    128          1           0      -25.514645   -4.643580    0.722598
    129          1           0      -25.299124   -5.326309   -1.685256
    130          1           0      -23.651013   -5.073245   -1.449268
    131          1           0      -24.738937   -3.687162   -2.007247
    132          1           0      -24.598624   -4.066551    2.719023
    133          1           0      -23.175268   -3.221619    2.949814
    134          1           0      -23.211730   -5.485070    3.799827
    135          1           0      -21.756088   -4.933804    2.786809
    136          1           0      -30.852956   -2.603279    0.048579
    137          1           0      -29.521646   -3.269739   -0.921441
    138          1           0      -30.817434   -2.208536   -1.565130
    139          1           0      -32.071370   -0.840073    0.368056
    140          1           0      -32.150785   -0.443004   -1.366439
    141          1           0      -32.941083    0.566398   -0.037828
    142          1           0      -27.168440    5.040533    0.376061
    143          1           0      -24.835943    5.308111   -1.401004
    144          1           0      -26.792690    5.289887   -2.616711
    145          1           0      -27.824506    6.267417   -1.658630
    146          1           0      -28.199503    4.499810   -2.132592
    147          1           0      -24.568408    5.433217    1.627835
    148          1           0      -25.649329    6.526332    1.028052
    149          1           0      -22.782381    6.480310    0.779538
    150          1           0      -23.917349    7.813395    0.996953
    151          1           0      -23.620821    7.127028   -0.695638
    152          1           0      -19.066908    2.623143   -0.241403
    153          1           0      -20.175618    3.446615    0.904975
    154          1           0      -20.342406    3.589433   -0.864384
    155          1           0      -20.755861   -2.151709    1.716977
    156          1           0      -19.254704   -5.615265    0.844237
    157          1           0      -18.088158   -5.022045   -0.326705
    158          1           0      -19.788715   -5.257648   -0.805151
 ---------------------------------------------------------------------

 SCF Done:  E(RPBE1PBE) =  -4067.36292092     A.U. after   16 cycles

 Excitation energies and oscillator strengths:

 Excited State   1:      Singlet-A      1.8294 eV  677.74 nm  f=0.3651  <S**2>=0.000
     309 -> 316        0.16662
     311 -> 313        0.69539
     311 <- 313       -0.11481
 This state for optimization and/or second-order correction.
 Total Energy, E(TD-HF/TD-DFT) =  -4067.29569263
 Copying the excited state density for this state as the 1-particle RhoCI density.

 Excited State   2:      Singlet-A      1.8848 eV  657.79 nm  f=0.3760  <S**2>=0.000
     310 -> 315        0.17651
     312 -> 314        0.68856

 Excited State   3:      Singlet-A      1.9432 eV  638.05 nm  f=0.0000  <S**2>=0.000
     312 -> 313        0.70711

 Excited State   4:      Singlet-A      2.0707 eV  598.76 nm  f=0.0000  <S**2>=0.000
     311 -> 314        0.70711

 Excited State   5:      Singlet-A      2.2641 eV  547.61 nm  f=0.0694  <S**2>=0.000
     310 -> 314        0.63666
     312 -> 315       -0.28677

 The electronic state is 1-A.
 Alpha  occ. eigenvalues --  -46.92738 -46.91945 -19.25236 -19.25052 -19.20569
 Alpha  occ. eigenvalues --  -19.20248 -19.19408 -19.19340 -19.18917 -19.18408
 Alpha  occ. eigenvalues --  -14.41865 -14.41393 -14.41301 -14.40917 -14.39425
 Alpha  occ. eigenvalues --  -14.39231 -14.39102 -14.38661 -10.36239 -10.36217
 Alpha  occ. eigenvalues --  -10.32558 -10.32117 -10.31989 -10.31710 -10.29443
 Alpha  occ. eigenvalues --  -10.28979 -10.28683 -10.28640 -10.28598 -10.28566
 Alpha  occ. eigenvalues --  -10.28471 -10.28420 -10.28386 -10.28334 -10.28106
 Alpha  occ. eigenvalues --  -10.28049 -10.27700 -10.27568 -10.27549 -10.27368
 Alpha  occ. eigenvalues --  -10.27342 -10.27068 -10.27055 -10.26471 -10.26312
 Alpha  occ. eigenvalues --  -10.26127 -10.26098 -10.25931 -10.25917 -10.25914
 Alpha  occ. eigenvalues --  -10.25774 -10.25694 -10.25622 -10.25548 -10.25371
 Alpha  occ. eigenvalues --  -10.25353 -10.25335 -10.25334 -10.25250 -10.25161
 Alpha  occ. eigenvalues --  -10.25045 -10.25044 -10.24989 -10.24868 -10.24702
 Alpha  occ. eigenvalues --  -10.24428 -10.24366 -10.24211 -10.24105 -10.24063
 Alpha  occ. eigenvalues --  -10.24038 -10.24026 -10.24024 -10.23948 -10.23772
 Alpha  occ. eigenvalues --  -10.23575 -10.23263 -10.23262 -10.23181 -10.23083
 Alpha  occ. eigenvalues --  -10.22896 -10.22878 -10.22780 -10.22764 -10.22695
 Alpha  occ. eigenvalues --  -10.22573  -3.14710  -3.14166  -1.87547  -1.87085
 Alpha  occ. eigenvalues --   -1.86968  -1.86924  -1.86546  -1.86408  -1.11971
 Alpha  occ. eigenvalues --   -1.10885  -1.05101  -1.04683  -1.04347  -1.03996
 Alpha  occ. eigenvalues --   -1.03757  -1.02597  -0.99781  -0.99193  -0.98663
 Alpha  occ. eigenvalues --   -0.98553  -0.97893  -0.97686  -0.97241  -0.96747
 Alpha  occ. eigenvalues --   -0.87517  -0.87145  -0.84123  -0.83721  -0.83176
 Alpha  occ. eigenvalues --   -0.82770  -0.82681  -0.82294  -0.81897  -0.81823
 Alpha  occ. eigenvalues --   -0.81331  -0.81164  -0.80617  -0.80089  -0.78988
 Alpha  occ. eigenvalues --   -0.78507  -0.78442  -0.77883  -0.76975  -0.76968
 Alpha  occ. eigenvalues --   -0.76576  -0.75872  -0.75838  -0.75135  -0.74971
 Alpha  occ. eigenvalues --   -0.74787  -0.72650  -0.72273  -0.71777  -0.71746
 Alpha  occ. eigenvalues --   -0.71340  -0.71111  -0.70334  -0.70163  -0.69487
 Alpha  occ. eigenvalues --   -0.69462  -0.67150  -0.66984  -0.66265  -0.66071
 Alpha  occ. eigenvalues --   -0.63917  -0.63268  -0.63219  -0.63109  -0.63011
 Alpha  occ. eigenvalues --   -0.62186  -0.61716  -0.61505  -0.60274  -0.59968
 Alpha  occ. eigenvalues --   -0.59835  -0.59601  -0.59431  -0.59040  -0.58896
 Alpha  occ. eigenvalues --   -0.58881  -0.56633  -0.56527  -0.54983  -0.54497
 Alpha  occ. eigenvalues --   -0.54128  -0.54056  -0.53822  -0.53501  -0.53383
 Alpha  occ. eigenvalues --   -0.52942  -0.52670  -0.52388  -0.52072  -0.51989
 Alpha  occ. eigenvalues --   -0.51092  -0.50744  -0.50512  -0.50433  -0.49946
 Alpha  occ. eigenvalues --   -0.49727  -0.49645  -0.49175  -0.49011  -0.48665
 Alpha  occ. eigenvalues --   -0.48271  -0.48122  -0.47803  -0.47624  -0.47591
 Alpha  occ. eigenvalues --   -0.47547  -0.47390  -0.46991  -0.46867  -0.46751
 Alpha  occ. eigenvalues --   -0.46668  -0.46603  -0.46252  -0.46239  -0.46128
 Alpha  occ. eigenvalues --   -0.45922  -0.45877  -0.45754  -0.45513  -0.45387
 Alpha  occ. eigenvalues --   -0.44956  -0.44604  -0.44599  -0.44206  -0.44142
 Alpha  occ. eigenvalues --   -0.43974  -0.43935  -0.43917  -0.43554  -0.43503
 Alpha  occ. eigenvalues --   -0.43425  -0.43403  -0.43179  -0.43051  -0.42859
 Alpha  occ. eigenvalues --   -0.42347  -0.42207  -0.42082  -0.41867  -0.41795
 Alpha  occ. eigenvalues --   -0.41787  -0.41582  -0.41454  -0.41436  -0.41357
 Alpha  occ. eigenvalues --   -0.41080  -0.40998  -0.40675  -0.40633  -0.40579
 Alpha  occ. eigenvalues --   -0.40313  -0.40228  -0.39951  -0.39760  -0.39642
 Alpha  occ. eigenvalues --   -0.39481  -0.39459  -0.39178  -0.39146  -0.38822
 Alpha  occ. eigenvalues --   -0.38794  -0.38678  -0.38636  -0.38395  -0.38371
 Alpha  occ. eigenvalues --   -0.38013  -0.37822  -0.37779  -0.37636  -0.37536
 Alpha  occ. eigenvalues --   -0.37354  -0.37172  -0.37149  -0.37020  -0.37003
 Alpha  occ. eigenvalues --   -0.36983  -0.36700  -0.36674  -0.36375  -0.36161
 Alpha  occ. eigenvalues --   -0.36047  -0.35753  -0.35635  -0.35417  -0.35249
 Alpha  occ. eigenvalues --   -0.35092  -0.34772  -0.34723  -0.34599  -0.34015
 Alpha  occ. eigenvalues --   -0.33698  -0.33401  -0.32816  -0.32665  -0.32389
 Alpha  occ. eigenvalues --   -0.32229  -0.32070  -0.31619  -0.31433  -0.31384
 Alpha  occ. eigenvalues --   -0.30948  -0.30721  -0.29884  -0.29584  -0.29389
 Alpha  occ. eigenvalues --   -0.29123  -0.28647  -0.28596  -0.26979  -0.26888
 Alpha  occ. eigenvalues --   -0.26480  -0.26066  -0.25910  -0.25485  -0.25350
 Alpha  occ. eigenvalues --   -0.25229  -0.25113  -0.24945  -0.21205  -0.20906
 Alpha  occ. eigenvalues --   -0.18683  -0.18622
 Alpha virt. eigenvalues --   -0.11217  -0.10810  -0.05556  -0.05298  -0.04257
 Alpha virt. eigenvalues --   -0.03981  -0.02145  -0.01886  -0.01303  -0.00883
 Alpha virt. eigenvalues --    0.00906   0.01036   0.01126   0.01274   0.01430

 Mulliken charges:
               1
     1  Mg  12.001987
     2  C    6.027564
     3  C    5.992219
     4  C    5.978633
     5  C    6.007301
     6  N    7.006591
     7  C    5.960493
     8  C    6.013903
     9  C    5.991480
    10  C    6.029006
    11  C    5.998127
    12  C    6.003503
    13  C    6.005649
    14  H    0.991538
    15  N    6.991948
    16  C    6.039865
    17  C    6.022069
    18  C    6.005467
    19  C    6.042665
    20  C    5.997273
    21  C    6.010646
    22  O    8.018415
    23  C    5.996377
    24  N    6.996101
    25  C    6.032696
    26  C    5.993690
    27  C    6.005458
    28  C    5.976703
    29  C    6.000173
    30  C    6.007191
    31  C    6.000256
    32  N    7.001198
    33  C    5.965852
    34  C    5.960927
    35  C    6.005124
    36  C    5.962836
    37  C    6.000384
    38  C    5.985016
    39  O    7.975087
    40  C    5.998010
    41  C    5.997300
    42  O    7.996296
    43  O    7.997975
    44  C    6.001218
    45  H    1.012244
    46  H    1.007576
    47  H    0.988888
    48  H    0.998686
    49  H    0.998142
    50  H    1.000132
    51  H    1.012242
    52  H    0.998207
    53  H    1.003494
    54  H    0.991439
    55  H    0.990516
    56  H    1.006639
    57  H    1.015865
    58  H    1.017113
    59  H    1.017417
    60  H    1.010490
    61  H    1.010685
    62  H    1.011134
    63  H    0.999611
    64  H    1.000248
    65  H    1.012025
    66  H    1.000082
    67  H    0.995345
    68  H    1.000764
    69  H    0.986116
    70  H    0.994713
    71  H    0.999427
    72  H    1.002946
    73  H    0.981730
    74  H    0.982684
    75  H    0.981376
    76  H    0.990255
    77  H    0.996042
    78  H    0.998630
    79  H    0.994887
    80  Mg  12.000011
    81  C    5.999883
    82  C    6.000090
    83  C    6.000106
    84  C    5.999922
    85  N    7.000035
    86  C    6.000206
    87  C    5.999932
    88  C    6.000024
    89  C    5.999829
    90  C    5.999998
    91  C    5.999977
    92  C    6.000007
    93  H    1.000036
    94  N    7.000024
    95  C    5.999820
    96  C    5.999827
    97  C    5.999930
    98  C    5.999797
    99  C    6.000040
   100  C    5.999901
   101  O    7.999817
   102  C    6.000046
   103  N    6.999937
   104  C    5.999777
   105  C    6.000059
   106  C    5.999927
   107  C    6.000178
   108  C    6.000034
   109  C    5.999986
   110  C    5.999996
   111  N    7.000017
   112  C    6.000172
   113  C    6.000201
   114  C    6.000011
   115  C    6.000173
   116  C    5.999936
   117  C    6.000144
   118  O    8.000261
   119  C    5.999995
   120  C    6.000011
   121  O    8.000044
   122  O    8.000013
   123  C    5.999979
   124  H    0.999955
   125  H    0.999922
   126  H    1.000041
   127  H    1.000037
   128  H    1.000010
   129  H    0.999995
   130  H    0.999949
   131  H    0.999990
   132  H    1.000067
   133  H    0.999997
   134  H    1.000030
   135  H    1.000001
   136  H    0.999863
   137  H    0.999885
   138  H    0.999866
   139  H    0.999958
   140  H    0.999934
   141  H    0.999887
   142  H    0.999979
   143  H    0.999987
   144  H    0.999934
   145  H    0.999939
   146  H    1.000021
   147  H    1.000013
   148  H    1.000042
   149  H    0.999987
   150  H    1.000015
   151  H    0.999998
   152  H    1.000136
   153  H    1.000157
   154  H    1.000092
   155  H    1.000082
   156  H    1.000048
   157  H    1.000066
   158  H    1.000006
 Sum of Mulliken charges = 624.00000

 Dipole moment (field-independent basis, Debye):
    X=              6.8756    Y=              1.4455    Z=             -7.4754  Tot=             10.2589
 Quadrupole moment (field-independent basis, Debye-Ang):
   XX=            340.4129   YY=             -1.8245   ZZ=             -0.8436
   XY=             34.7969   XZ=           -191.7619   YZ=              3.3951

 Normal termination of Gaussian 16 at Wed Oct 13 23:45:33 2021.
