 Gaussian 16, Revision A.03,
 Gaussian 16:  ES64L-G16RevA.03 25-Dec-2016

 --------------------------------------------------------
 #p PBE1PBE/Def2SVP td=(nstates=5) density=(transition=1)
 --------------------------------------------------------

 --------------------------------
 TDDFT excited states in gaussian
 --------------------------------
 Symbolic Z-matrix:
 Charge =  0 Multiplicity = 1

                         Standard orientation:
 ---------------------------------------------------------------------
 Center     Atomic      Atomic             Coordinates (Angstroms)
 Number     Number       Type             X           Y           Z
 ---------------------------------------------------------------------
      1         12           0      -12.957471   -0.530897    0.414153
      2          6           0      -13.152567    2.715706   -0.889285
      3          6           0      -10.794885    0.719759    2.923151
      4          6           0      -12.469879   -3.713343    1.492937
      5          6           0      -14.446901   -1.705258   -2.470895
      6          7           0      -12.251496    1.486381    1.000759
      7          6           0      -12.637963    2.679223    0.382885
      8          6           0      -12.329894    3.881246    1.346680
      9          6           0      -11.519576    3.213153    2.463539
     10          6           0      -11.470041    1.690843    2.088616
     11          6           0      -10.098761    3.833307    2.546762
     12          6           0      -13.648482    4.523565    1.759897
     13          6           0      -13.642291    6.000424    2.119115
     14          1           0      -12.279530    6.690108    2.354937
     15          7           0      -11.820494   -1.423252    1.984003
     16          6           0      -10.977276   -0.740336    2.881042
     17          6           0      -10.328976   -1.674563    3.784551
     18          6           0      -10.828418   -2.998996    3.468222
     19          6           0      -11.729863   -2.750151    2.262614
     20          6           0       -9.450278   -1.260935    4.972003
     21          6           0      -10.563861   -4.342351    4.120636
     22          8           0      -11.112367   -5.352120    3.699672
     23          6           0       -9.808187   -4.376282    5.393258
     24          7           0      -13.476805   -2.439688   -0.381430
     25          6           0      -13.241602   -3.591967    0.305842
     26          6           0      -13.940193   -4.778801   -0.407898
     27          6           0      -14.643795   -4.134344   -1.664707
     28          6           0      -14.280843   -2.638634   -1.476112
     29          6           0      -12.914311   -5.871017   -0.759677
     30          6           0      -16.186123   -4.300267   -1.707244
     31          6           0      -16.543314   -5.416123   -2.684277
     32          7           0      -13.593970    0.242591   -1.422755
     33          6           0      -14.112631   -0.322038   -2.539968
     34          6           0      -14.160484    0.728963   -3.585374
     35          6           0      -13.907243    1.924760   -2.979659
     36          6           0      -13.521143    1.559968   -1.664572
     37          6           0      -14.638940    0.424882   -4.995108
     38          6           0      -13.857394    3.385733   -3.124634
     39          8           0      -14.065430    4.072525   -4.117549
     40          6           0      -13.457759    3.910983   -1.759286
     41          6           0      -12.334993    4.829772   -2.004944
     42          8           0      -11.141646    4.591952   -2.235379
     43          8           0      -12.845431    6.111722   -2.015391
     44          6           0      -11.915521    7.179863   -2.311141
     45          1           0      -10.198809    1.155070    3.727640
     46          1           0      -12.347892   -4.689336    1.967362
     47          1           0      -14.830046   -2.165290   -3.384227
     48          1           0      -11.720088    4.504598    0.691597
     49          1           0      -11.991642    3.520667    3.396596
     50          1           0       -9.289353    3.170491    2.240292
     51          1           0       -9.865741    3.907969    3.608565
     52          1           0      -10.010191    4.742115    1.951827
     53          1           0      -14.011857    3.887754    2.567813
     54          1           0      -14.383178    4.352884    0.973892
     55          1           0      -14.283899    6.148919    2.986619
     56          1           0      -14.156498    6.427085    1.257206
     57          1           0       -9.214322   -0.196936    4.998343
     58          1           0       -8.504621   -1.803691    4.939845
     59          1           0       -9.923262   -1.607774    5.889989
     60          1           0      -10.394461   -3.866148    6.157960
     61          1           0       -8.773243   -4.068842    5.243543
     62          1           0       -9.726895   -5.388762    5.788825
     63          1           0      -14.634866   -5.225178    0.303267
     64          1           0      -14.105258   -4.533627   -2.525150
     65          1           0      -12.840362   -6.151218   -1.810049
     66          1           0      -13.363717   -6.705679   -0.222075
     67          1           0      -11.882430   -5.620612   -0.515069
     68          1           0      -16.642179   -3.452584   -2.218970
     69          1           0      -16.633510   -4.504156   -0.734241
     70          1           0      -17.263503   -6.019012   -2.131358
     71          1           0      -15.737148   -6.125984   -2.867875
     72          1           0      -16.965321   -5.089527   -3.635131
     73          1           0      -14.717253   -0.634026   -5.242806
     74          1           0      -14.018185    0.892369   -5.758469
     75          1           0      -15.684587    0.725428   -5.070198
     76          1           0      -14.321875    4.422623   -1.336706
     77          1           0      -11.387978    6.912110   -3.226982
     78          1           0      -11.180412    7.348083   -1.523804
     79          1           0      -12.538587    7.983468   -2.702237
     80         12           0       12.310320   -0.737192   -0.320318
     81          6           0       14.475608    1.925966   -0.082152
     82          6           0        9.722594    1.410774    0.653590
     83          6           0       10.134280   -3.315056   -0.438009
     84          6           0       14.917045   -2.833626   -0.892334
     85          7           0       12.200950    1.395146    0.482880
     86          6           0       13.210150    2.335874    0.242447
     87          6           0       12.695933    3.783147    0.373566
     88          6           0       11.183427    3.523423    0.719281
     89          6           0       10.959272    2.033248    0.577437
     90          6           0       10.788215    4.039004    2.097297
     91          6           0       12.867046    4.778105   -0.828449
     92          6           0       13.880544    6.029121   -0.615224
     93          1           0       13.153806    7.366954   -0.784205
     94          7           0       10.284401   -0.962311    0.142184
     95          6           0        9.371602    0.073864    0.397294
     96          6           0        7.987441   -0.407420    0.338575
     97          6           0        8.048090   -1.882863    0.085918
     98          6           0        9.525304   -2.133351   -0.153948
     99          6           0        6.789438    0.490200    0.556819
    100          6           0        7.002285   -2.892741    0.011543
    101          8           0        7.308799   -4.087536   -0.114119
    102          6           0        5.525218   -2.567978    0.149796
    103          7           0       12.540923   -2.718066   -0.532558
    104          6           0       11.479427   -3.628373   -0.689911
    105          6           0       11.908458   -5.086868   -1.127832
    106          6           0       13.504612   -4.861583   -1.228152
    107          6           0       13.657678   -3.364367   -0.876919
    108          6           0       11.487966   -6.245475   -0.095330
    109          6           0       14.053174   -5.223739   -2.651102
    110          6           0       15.389102   -5.892731   -2.738893
    111          7           0       14.342814   -0.500501   -0.356293
    112          6           0       15.305370   -1.466084   -0.664620
    113          6           0       16.589041   -0.872509   -0.822323
    114          6           0       16.282233    0.532130   -0.688717
    115          6           0       14.931941    0.650488   -0.335916
    116          6           0       17.893177   -1.456244   -1.172318
    117          6           0       16.881580    1.827567   -0.611788
    118          8           0       18.018928    2.277156   -0.790425
    119          6           0       15.723420    2.776715   -0.059737
    120          6           0       16.126217    3.295997    1.274062
    121          8           0       15.801377    2.920019    2.331051
    122          8           0       16.901688    4.443938    1.128750
    123          6           0       16.871106    5.351313    2.256967
    124          1           0        8.908044    2.104915    0.870828
    125          1           0        9.529372   -4.213808   -0.574595
    126          1           0       15.735001   -3.476730   -1.223609
    127          1           0       13.163897    4.239050    1.245406
    128          1           0       10.517244    4.083376    0.062375
    129          1           0       10.532466    3.188311    2.728409
    130          1           0        9.897521    4.628495    1.883269
    131          1           0       11.502614    4.707289    2.577591
    132          1           0       11.881565    5.173646   -1.075638
    133          1           0       13.266692    4.271667   -1.707140
    134          1           0       14.561942    5.914291   -1.458387
    135          1           0       14.357005    5.970327    0.363107
    136          1           0        6.758341    0.712072    1.624264
    137          1           0        5.898028   -0.064081    0.267169
    138          1           0        6.885625    1.466668    0.081609
    139          1           0        5.040098   -3.517057    0.378770
    140          1           0        5.092703   -2.098043   -0.734107
    141          1           0        5.218340   -1.997587    1.026260
    142          1           0       11.564269   -5.283236   -2.142732
    143          1           0       14.100131   -5.490926   -0.566408
    144          1           0       12.301751   -6.968977   -0.042079
    145          1           0       10.657381   -6.886089   -0.389207
    146          1           0       11.262123   -5.866851    0.901733
    147          1           0       14.062847   -4.385646   -3.347766
    148          1           0       13.440177   -5.969797   -3.156439
    149          1           0       16.033565   -5.152836   -3.213307
    150          1           0       15.548203   -6.722692   -3.427343
    151          1           0       15.749412   -6.129025   -1.737138
    152          1           0       17.718320   -2.357771   -1.760137
    153          1           0       18.321666   -1.737600   -0.210450
    154          1           0       18.527592   -0.670079   -1.582101
    155          1           0       15.579559    3.620693   -0.733888
    156          1           0       17.520137    4.874841    2.990911
    157          1           0       15.838585    5.348676    2.605877
    158          1           0       17.269258    6.331892    1.994551
 ---------------------------------------------------------------------

 SCF Done:  E(RPBE1PBE) =  -4067.35992366     A.U. after   16 cycles

 Excitation energies and oscillator strengths:

 Excited State   1:      Singlet-A      1.7462 eV  710.01 nm  f=0.0000  <S**2>=0.000
     312 -> 313        0.70709
 This state for optimization and/or second-order correction.
 Total Energy, E(TD-HF/TD-DFT) =  -4067.29575092
 Copying the excited state density for this state as the 1-particle RhoCI density.

 Excited State   2:      Singlet-A      1.8147 eV  683.22 nm  f=0.4425  <S**2>=0.000
     309 -> 315        0.14678
     311 -> 313        0.68255
     312 -> 314        0.13529
     311 <- 313       -0.11305

 Excited State   3:      Singlet-A      1.8268 eV  678.70 nm  f=0.3374  <S**2>=0.000
     310 -> 316       -0.15878
     311 -> 313       -0.13527
     312 -> 314        0.68129
     312 <- 314       -0.10945

 Excited State   4:      Singlet-A      1.9992 eV  620.17 nm  f=0.0000  <S**2>=0.000
     311 -> 314        0.70710

 Excited State   5:      Singlet-A      2.1896 eV  566.24 nm  f=0.1042  <S**2>=0.000
     309 -> 313        0.65495
     311 -> 315       -0.22787

 The electronic state is 1-A.
 Alpha  occ. eigenvalues --  -46.92596 -46.91350 -19.25249 -19.22890 -19.20163
 Alpha  occ. eigenvalues --  -19.19800 -19.19722 -19.19300 -19.18872 -19.18440
 Alpha  occ. eigenvalues --  -14.42035 -14.41797 -14.41549 -14.41339 -14.39864
 Alpha  occ. eigenvalues --  -14.39769 -14.39013 -14.38359 -10.36507 -10.35152
 Alpha  occ. eigenvalues --  -10.32746 -10.32476 -10.32215 -10.31545 -10.29661
 Alpha  occ. eigenvalues --  -10.29419 -10.28909 -10.28831 -10.28724 -10.28631
 Alpha  occ. eigenvalues --  -10.28627 -10.28602 -10.28535 -10.28449 -10.28313
 Alpha  occ. eigenvalues --  -10.28166 -10.28085 -10.27890 -10.27826 -10.27434
 Alpha  occ. eigenvalues --  -10.27326 -10.27092 -10.27048 -10.27046 -10.26632
 Alpha  occ. eigenvalues --  -10.26584 -10.26167 -10.26151 -10.26099 -10.26048
 Alpha  occ. eigenvalues --  -10.25885 -10.25771 -10.25685 -10.25661 -10.25622
 Alpha  occ. eigenvalues --  -10.25601 -10.25576 -10.25530 -10.25438 -10.25366
 Alpha  occ. eigenvalues --  -10.25310 -10.25122 -10.25064 -10.24959 -10.24897
 Alpha  occ. eigenvalues --  -10.24852 -10.24474 -10.24399 -10.24298 -10.24188
 Alpha  occ. eigenvalues --  -10.24042 -10.23939 -10.23932 -10.23866 -10.23691
 Alpha  occ. eigenvalues --  -10.23581 -10.23553 -10.23344 -10.23316 -10.23143
 Alpha  occ. eigenvalues --  -10.23070 -10.22808 -10.22804 -10.22761 -10.22537
 Alpha  occ. eigenvalues --  -10.22516  -3.14577  -3.13684  -1.87431  -1.86909
 Alpha  occ. eigenvalues --   -1.86831  -1.86495  -1.86069  -1.85926  -1.11588
 Alpha  occ. eigenvalues --   -1.10687  -1.05073  -1.04941  -1.04064  -1.03058
 Alpha  occ. eigenvalues --   -1.02637  -1.01807  -0.99489  -0.99240  -0.98069
 Alpha  occ. eigenvalues --   -0.97475  -0.97291  -0.96608  -0.96257  -0.95088
 Alpha  occ. eigenvalues --   -0.87907  -0.87079  -0.83608  -0.83453  -0.83149
 Alpha  occ. eigenvalues --   -0.82902  -0.82742  -0.82285  -0.81757  -0.81559
 Alpha  occ. eigenvalues --   -0.81539  -0.81143  -0.80780  -0.80037  -0.78675
 Alpha  occ. eigenvalues --   -0.78457  -0.78218  -0.77816  -0.77112  -0.76654
 Alpha  occ. eigenvalues --   -0.76511  -0.75931  -0.75341  -0.75233  -0.74597
 Alpha  occ. eigenvalues --   -0.74463  -0.72940  -0.72339  -0.71737  -0.71698
 Alpha  occ. eigenvalues --   -0.71211  -0.71004  -0.70375  -0.69616  -0.69573
 Alpha  occ. eigenvalues --   -0.68983  -0.67559  -0.67099  -0.66104  -0.65536
 Alpha  occ. eigenvalues --   -0.63608  -0.63561  -0.63115  -0.62956  -0.62428
 Alpha  occ. eigenvalues --   -0.62415  -0.61931  -0.61509  -0.60113  -0.59875
 Alpha  occ. eigenvalues --   -0.59793  -0.59442  -0.59401  -0.59255  -0.58550
 Alpha  occ. eigenvalues --   -0.58503  -0.56838  -0.55478  -0.54648  -0.54614
 Alpha  occ. eigenvalues --   -0.54325  -0.53989  -0.53670  -0.53604  -0.53418
 Alpha  occ. eigenvalues --   -0.53145  -0.53085  -0.52873  -0.52338  -0.52218
 Alpha  occ. eigenvalues --   -0.51039  -0.50611  -0.50391  -0.50092  -0.49775
 Alpha  occ. eigenvalues --   -0.49733  -0.49397  -0.48513  -0.48305  -0.48247
 Alpha  occ. eigenvalues --   -0.48100  -0.47956  -0.47809  -0.47757  -0.47605
 Alpha  occ. eigenvalues --   -0.47566  -0.47535  -0.47310  -0.46794  -0.46616
 Alpha  occ. eigenvalues --   -0.46448  -0.46395  -0.46201  -0.46100  -0.45972
 Alpha  occ. eigenvalues --   -0.45819  -0.45495  -0.45384  -0.45147  -0.44903
 Alpha  occ. eigenvalues --   -0.44772  -0.44465  -0.44415  -0.44398  -0.44233
 Alpha  occ. eigenvalues --   -0.44118  -0.44088  -0.43862  -0.43742  -0.43467
 Alpha  occ. eigenvalues --   -0.43351  -0.43260  -0.43245  -0.42945  -0.42762
 Alpha  occ. eigenvalues --   -0.42665  -0.42580  -0.42158  -0.41921  -0.41783
 Alpha  occ. eigenvalues --   -0.41646  -0.41550  -0.41537  -0.41163  -0.41151
 Alpha  occ. eigenvalues --   -0.40955  -0.40900  -0.40795  -0.40661  -0.40143
 Alpha  occ. eigenvalues --   -0.40067  -0.40055  -0.39797  -0.39781  -0.39560
 Alpha  occ. eigenvalues --   -0.39444  -0.39315  -0.39237  -0.39114  -0.39047
 Alpha  occ. eigenvalues --   -0.38489  -0.38426  -0.38340  -0.38256  -0.38142
 Alpha  occ. eigenvalues --   -0.38037  -0.37897  -0.37791  -0.37757  -0.37757
 Alpha  occ. eigenvalues --   -0.37421  -0.37348  -0.37232  -0.36817  -0.36801
 Alpha  occ. eigenvalues --   -0.36563  -0.36462  -0.36280  -0.36236  -0.36042
 Alpha  occ. eigenvalues --   -0.35938  -0.35912  -0.35523  -0.35327  -0.35085
 Alpha  occ. eigenvalues --   -0.34905  -0.34833  -0.34001  -0.33965  -0.33697
 Alpha  occ. eigenvalues --   -0.33536  -0.33059  -0.33028  -0.32844  -0.32791
 Alpha  occ. eigenvalues --   -0.32698  -0.32146  -0.31648  -0.31353  -0.31164
 Alpha  occ. eigenvalues --   -0.30984  -0.29837  -0.29664  -0.29464  -0.29178
 Alpha  occ. eigenvalues --   -0.29177  -0.28609  -0.28329  -0.27087  -0.27002
 Alpha  occ. eigenvalues --   -0.26519  -0.26221  -0.26046  -0.26013  -0.25618
 Alpha  occ. eigenvalues --   -0.25521  -0.25245  -0.24806  -0.21283  -0.20806
 Alpha  occ. eigenvalues --   -0.19070  -0.18652
 Alpha virt. eigenvalues --   -0.11697  -0.11192  -0.05782  -0.05125  -0.04251
 Alpha virt. eigenvalues --   -0.04115  -0.02514  -0.02185  -0.00544  -0.00501
 Alpha virt. eigenvalues --    0.00483   0.00823   0.01002   0.01210   0.01409

 Mulliken charges:
               1
     1  Mg  12.000000
     2  C    6.000000
     3  C    6.000000
     4  C    6.000000
     5  C    6.000000
     6  N    7.000000
     7  C    6.000000
     8  C    6.000000
     9  C    6.000000
    10  C    6.000000
    11  C    6.000000
    12  C    6.000000
    13  C    6.000000
    14  H    1.000000
    15  N    7.000000
    16  C    6.000000
    17  C    6.000000
    18  C    6.000000
    19  C    6.000000
    20  C    6.000000
    21  C    6.000000
    22  O    8.000000
    23  C    6.000000
    24  N    7.000000
    25  C    6.000000
    26  C    6.000000
    27  C    6.000000
    28  C    6.000000
    29  C    6.000000
    30  C    6.000000
    31  C    6.000000
    32  N    7.000000
    33  C    6.000000
    34  C    6.000000
    35  C    6.000000
    36  C    6.000000
    37  C    6.000000
    38  C    6.000000
    39  O    8.000000
    40  C    6.000000
    41  C    6.000000
    42  O    8.000000
    43  O    8.000000
    44  C    6.000000
    45  H    1.000000
    46  H    1.000000
    47  H    1.000000
    48  H    1.000000
    49  H    1.000000
    50  H    1.000000
    51  H    1.000000
    52  H    1.000000
    53  H    1.000000
    54  H    1.000000
    55  H    1.000000
    56  H    1.000000
    57  H    1.000000
    58  H    1.000000
    59  H    1.000000
    60  H    1.000000
    61  H    1.000000
    62  H    1.000000
    63  H    1.000000
    64  H    1.000000
    65  H    1.000000
    66  H    1.000000
    67  H    1.000000
    68  H    1.000000
    69  H    1.000000
    70  H    1.000000
    71  H    1.000000
    72  H    1.000000
    73  H    1.000000
    74  H    1.000000
    75  H    1.000000
    76  H    1.000000
    77  H    1.000000
    78  H    1.000000
    79  H    1.000000
    80  Mg  12.000000
    81  C    6.000000
    82  C    6.000000
    83  C    6.000000
    84  C    6.000000
    85  N    7.000000
    86  C    6.000000
    87  C    6.000000
    88  C    6.000000
    89  C    6.000000
    90  C    6.000000
    91  C    6.000000
    92  C    6.000000
    93  H    1.000000
    94  N    7.000000
    95  C    6.000000
    96  C    6.000000
    97  C    6.000000
    98  C    6.000000
    99  C    6.000000
   100  C    6.000000
   101  O    8.000000
   102  C    6.000000
   103  N    7.000000
   104  C    6.000000
   105  C    6.000000
   106  C    6.000000
   107  C    6.000000
   108  C    6.000000
   109  C    6.000000
   110  C    6.000000
   111  N    7.000000
   112  C    6.000000
   113  C    6.000000
   114  C    6.000000
   115  C    6.000000
   116  C    6.000000
   117  C    6.000000
   118  O    8.000000
   119  C    6.000000
   120  C    6.000000
   121  O    8.000000
   122  O    8.000000
   123  C    6.000000
   124  H    1.000000
   125  H    1.000000
   126  H    1.000000
   127  H    1.000000
   128  H    1.000000
   129  H    1.000000
   130  H    1.000000
   131  H    1.000000
   132  H    1.000000
   133  H    1.000000
   134  H    1.000000
   135  H    1.000000
   136  H    1.000000
   137  H    1.000000
   138  H    1.000000
   139  H    1.000000
   140  H    1.000000
   141  H    1.000000
   142  H    1.000000
   143  H    1.000000
   144  H    1.000000
   145  H    1.000000
   146  H    1.000000
   147  H    1.000000
   148  H    1.000000
   149  H    1.000000
   150  H    1.000000
   151  H    1.000000
   152  H    1.000000
   153  H    1.000000
   154  H    1.000000
   155  H    1.000000
   156  H    1.000000
   157  H    1.000000
   158  H    1.000000
 Sum of Mulliken charges = 624.00000

 Dipole moment (field-independent basis, Debye):
    X=              0.0000    Y=              0.0000    Z=             -0.0000  Tot=              0.0000
 Quadrupole moment (field-independent basis, Debye-Ang):
   XX=              0.0000   YY=              0.0000   ZZ=              0.0000
   XY=              0.0000   XZ=             -0.0000   YZ=              0.0000

 Normal termination of Gaussian 16 at Fri Oct 15 03:30:09 2021.
