 Gaussian 16, Revision A.03,
 Gaussian 16:  ES64L-G16RevA.03 25-Dec-2016

 --------------------------------------------------------
 #p PBE1PBE/Def2SVP td=(nstates=5) density=(transition=1)
 --------------------------------------------------------

 --------------------------------
 TDDFT excited states in gaussian
 --------------------------------
 Symbolic Z-matrix:
 Charge =  0 Multiplicity = 1

                         Standard orientation:
 ---------------------------------------------------------------------
 Center     Atomic      Atomic             Coordinates (Angstroms)
 Number     Number       Type             X           Y           Z
 ---------------------------------------------------------------------
      1         12           0        0.771985   -0.110679   -0.127053
      2          6           0       -2.818577    0.258651    0.155497
      3          6           0        0.269840   -3.270699    0.319609
      4          6           0        4.066643   -0.198475   -0.135390
      5          6           0        1.161942    3.487685    0.203636
      6          7           0       -1.136699   -1.372196    0.080992
      7          6           0       -2.477458   -1.063995    0.182112
      8          6           0       -3.276794   -2.298796    0.394722
      9          6           0       -2.235491   -3.317886    0.924599
     10          6           0       -0.937341   -2.614672    0.462766
     11          6           0       -2.245850   -3.501273    2.458078
     12          6           0       -3.838090   -2.802775   -0.969785
     13          6           0       -5.343809   -3.274294   -0.979026
     14          1           0       -6.140120   -3.350646   -2.342142
     15          7           0        2.029263   -1.648405    0.029942
     16          6           0        1.663250   -2.900690    0.097058
     17          6           0        2.855707   -3.724557    0.034039
     18          6           0        3.901862   -2.807027   -0.221668
     19          6           0        3.343110   -1.489119   -0.086879
     20          6           0        2.758500   -5.260799    0.056738
     21          6           0        5.337464   -3.149173   -0.508006
     22          8           0        6.139950   -2.280549   -0.677922
     23          6           0        5.725567   -4.581743   -0.678302
     24          7           0        2.399917    1.500353    0.307845
     25          6           0        3.648428    1.109610    0.060513
     26          6           0        4.571912    2.258754   -0.096789
     27          6           0        3.611135    3.447613    0.222472
     28          6           0        2.250034    2.804641    0.263853
     29          6           0        5.922522    2.232688    0.705348
     30          6           0        3.755358    4.599478   -0.847249
     31          6           0        4.491182    5.914948   -0.468383
     32          7           0       -0.431763    1.513388    0.119094
     33          6           0       -0.195167    2.905611    0.161371
     34          6           0       -1.485928    3.620747    0.236012
     35          6           0       -2.466997    2.638456    0.214954
     36          6           0       -1.836295    1.406063    0.192126
     37          6           0       -1.650652    5.143598    0.459339
     38          6           0       -3.955371    2.467918    0.240043
     39          8           0       -4.886916    3.237582    0.241634
     40          6           0       -4.244729    0.889895    0.377364
     41          6           0       -5.286981    0.468901   -0.485124
     42          8           0       -5.063524    0.036841   -1.624613
     43          8           0       -6.587530    0.602644   -0.009010
     44          6           0       -7.709645   -0.005640   -0.787672
     45          1           0        0.238631   -4.357495    0.415055
     46          1           0        5.156117   -0.225767   -0.202944
     47          1           0        1.261607    4.570437    0.294035
     48          1           0       -3.996586   -2.141144    1.198358
     49          1           0       -2.304218   -4.332208    0.531980
     50          1           0       -2.468872   -4.536660    2.717346
     51          1           0       -3.020175   -2.842359    2.849856
     52          1           0       -1.322694   -3.206512    2.957867
     53          1           0       -3.209944   -3.655636   -1.227659
     54          1           0       -3.645997   -2.001223   -1.682741
     55          1           0       -5.888386   -2.646628   -0.274159
     56          1           0       -5.269246   -4.280287   -0.564373
     57          1           0        3.092509   -5.640278   -0.909813
     58          1           0        1.785090   -5.673917    0.318903
     59          1           0        3.512005   -5.673849    0.726739
     60          1           0        5.225564   -5.051349   -1.524991
     61          1           0        5.435067   -5.267518    0.117500
     62          1           0        6.790372   -4.629905   -0.907639
     63          1           0        4.842781    2.319408   -1.150862
     64          1           0        3.785316    3.785770    1.244177
     65          1           0        5.976517    1.252044    1.176986
     66          1           0        6.110348    3.054496    1.397229
     67          1           0        6.743281    2.341826   -0.003757
     68          1           0        2.759862    4.924154   -1.151250
     69          1           0        4.070555    4.088894   -1.757217
     70          1           0        5.185505    6.191911   -1.261503
     71          1           0        5.012061    5.779370    0.479613
     72          1           0        3.781689    6.737341   -0.369230
     73          1           0       -0.809888    5.641105   -0.023275
     74          1           0       -1.540632    5.361495    1.521910
     75          1           0       -2.596555    5.516213    0.065558
     76          1           0       -4.533285    0.692989    1.409449
     77          1           0       -7.608918   -1.090700   -0.838637
     78          1           0       -7.898713    0.541130   -1.710687
     79          1           0       -8.591025    0.047653   -0.148713
 ---------------------------------------------------------------------

 SCF Done:  E(RPBE1PBE) =  -2033.65756211     A.U. after   16 cycles

 Excitation energies and oscillator strengths:

 Excited State   1:      Singlet-A      1.8807 eV  659.24 nm  f=0.3656  <S**2>=0.000
     155 ->158         0.15937
     156 ->157         0.69587
     156 <-157        -0.11005
 This state for optimization and/or second-order correction.
 Total Energy, E(TD-HF/TD-DFT) =  -2033.58844741
 Copying the excited state density for this state as the 1-particle RhoCI density.

 Excited State   2:      Singlet-A      2.2035 eV  562.67 nm  f=0.2042  <S**2>=0.000
     155 ->157         0.67988
     156 ->158        -0.19100

 Excited State   3:      Singlet-A      3.0571 eV  405.57 nm  f=0.0072  <S**2>=0.000
     154 ->157         0.69223

 Excited State   4:      Singlet-A      3.1321 eV  395.85 nm  f=0.0013  <S**2>=0.000
     152 ->157         0.61145
     153 ->157         0.30230

 Excited State   5:      Singlet-A      3.1880 eV  388.91 nm  f=0.0005  <S**2>=0.000
     152 ->157        -0.29198
     153 ->157         0.61804
     153 ->159         0.10203

 The electronic state is 1-A.
 Alpha  occ. eigenvalues --  -46.92842 -19.24671 -19.20080 -19.19239 -19.18801
 Alpha  occ. eigenvalues --  -14.41196 -14.39744 -14.39693 -14.39239 -10.35526
 Alpha  occ. eigenvalues --  -10.33339 -10.32030 -10.28896 -10.28514 -10.28514
 Alpha  occ. eigenvalues --  -10.28012 -10.27947 -10.27932 -10.27526 -10.27471
 Alpha  occ. eigenvalues --  -10.26664 -10.26649 -10.26482 -10.25994 -10.25951
 Alpha  occ. eigenvalues --  -10.25826 -10.25761 -10.25417 -10.25345 -10.24687
 Alpha  occ. eigenvalues --  -10.24613 -10.24530 -10.24441 -10.23938 -10.23719
 Alpha  occ. eigenvalues --  -10.23717 -10.23665 -10.23481 -10.23418 -10.23266
 Alpha  occ. eigenvalues --  -10.23182 -10.23146 -10.23019  -3.14945  -1.87771
 Alpha  occ. eigenvalues --   -1.87325  -1.87170  -1.08966  -1.06711  -1.05821
 Alpha  occ. eigenvalues --   -1.00910  -1.00502  -0.99623  -0.99486  -0.95935
 Alpha  occ. eigenvalues --   -0.85715  -0.83552  -0.83253  -0.82304  -0.81979
 Alpha  occ. eigenvalues --   -0.81790  -0.79738  -0.78667  -0.77399  -0.76335
 Alpha  occ. eigenvalues --   -0.76064  -0.75327  -0.74727  -0.72945  -0.71463
 Alpha  occ. eigenvalues --   -0.71081  -0.70521  -0.69749  -0.67375  -0.65544
 Alpha  occ. eigenvalues --   -0.63527  -0.63225  -0.62411  -0.61697  -0.60492
 Alpha  occ. eigenvalues --   -0.60082  -0.59612  -0.58834  -0.55895  -0.55651
 Alpha  occ. eigenvalues --   -0.54697  -0.53669  -0.52574  -0.52210  -0.51806
 Alpha  occ. eigenvalues --   -0.51066  -0.50339  -0.50131  -0.48573  -0.48450
 Alpha  occ. eigenvalues --   -0.47949  -0.47375  -0.47116  -0.47014  -0.46667
 Alpha  occ. eigenvalues --   -0.46365  -0.45982  -0.44968  -0.44932  -0.44638
 Alpha  occ. eigenvalues --   -0.44460  -0.44300  -0.44044  -0.43864  -0.43550
 Alpha  occ. eigenvalues --   -0.43394  -0.43009  -0.42501  -0.42381  -0.42240
 Alpha  occ. eigenvalues --   -0.42124  -0.41145  -0.40958  -0.40608  -0.40388
 Alpha  occ. eigenvalues --   -0.40241  -0.39684  -0.39630  -0.39401  -0.39087
 Alpha  occ. eigenvalues --   -0.38807  -0.38273  -0.38189  -0.37955  -0.37673
 Alpha  occ. eigenvalues --   -0.37328  -0.37165  -0.36744  -0.36241  -0.35923
 Alpha  occ. eigenvalues --   -0.35437  -0.35309  -0.35117  -0.34854  -0.34781
 Alpha  occ. eigenvalues --   -0.33303  -0.32667  -0.32071  -0.31557  -0.31194
 Alpha  occ. eigenvalues --   -0.30702  -0.28808  -0.28361  -0.27718  -0.27255
 Alpha  occ. eigenvalues --   -0.26586  -0.26149  -0.26030  -0.25509  -0.20540
 Alpha  occ. eigenvalues --   -0.19132
 Alpha virt. eigenvalues --   -0.11440  -0.04038  -0.03333  -0.01814  -0.00486
 Alpha virt. eigenvalues --   -0.00065   0.01021   0.02194   0.03084   0.03867
 Alpha virt. eigenvalues --    0.04694   0.05948   0.06087   0.06461   0.06614

 Mulliken charges:
               1
     1  Mg  12.003017
     2  C    5.978863
     3  C    5.997495
     4  C    6.015842
     5  C    5.992246
     6  N    6.982693
     7  C    6.029085
     8  C    5.993424
     9  C    6.006507
    10  C    5.977612
    11  C    6.004604
    12  C    5.997107
    13  C    5.998063
    14  H    1.001133
    15  N    7.009538
    16  C    5.967853
    17  C    5.977521
    18  C    5.989729
    19  C    5.966879
    20  C    6.002558
    21  C    5.987295
    22  O    7.976026
    23  C    6.005744
    24  N    7.000672
    25  C    5.969393
    26  C    6.011910
    27  C    5.990313
    28  C    6.021751
    29  C    5.999715
    30  C    5.998159
    31  C    6.000453
    32  N    7.002736
    33  C    6.038176
    34  C    6.033931
    35  C    5.997394
    36  C    6.035624
    37  C    6.001103
    38  C    6.015313
    39  O    8.023025
    40  C    6.004901
    41  C    6.002934
    42  O    8.008581
    43  O    8.000013
    44  C    5.997707
    45  H    0.988167
    46  H    0.994046
    47  H    1.010058
    48  H    0.998268
    49  H    0.999014
    50  H    0.997268
    51  H    0.985780
    52  H    1.002078
    53  H    1.013534
    54  H    0.995967
    55  H    0.996552
    56  H    1.005708
    57  H    0.982231
    58  H    0.983724
    59  H    0.982785
    60  H    0.992862
    61  H    0.994376
    62  H    0.986059
    63  H    0.998974
    64  H    1.002591
    65  H    1.006377
    66  H    0.991960
    67  H    0.998584
    68  H    0.992430
    69  H    1.007306
    70  H    1.004420
    71  H    1.004054
    72  H    0.997009
    73  H    1.016965
    74  H    1.021404
    75  H    1.015918
    76  H    1.007658
    77  H    1.005610
    78  H    1.001793
    79  H    1.003830
 Sum of Mulliken charges = 312.00000

 Dipole moment (field-independent basis, Debye):
    X=             -6.2730    Y=              7.9470    Z=              0.1539  Tot=             10.1257
 Quadrupole moment (field-independent basis, Debye-Ang):
   XX=             -6.5317   YY=             -0.3182   ZZ=             -0.1316
   XY=              7.1997   XZ=              1.4686   YZ=              1.5521

 Normal termination of Gaussian 16 at Wed Oct 13 19:26:16 2021.
