 Gaussian 16, Revision A.03,
 Gaussian 16:  ES64L-G16RevA.03 25-Dec-2016

 --------------------------------------------------------
 #p PBE1PBE/Def2SVP td=(nstates=5) density=(transition=1)
 --------------------------------------------------------

 --------------------------------
 TDDFT excited states in gaussian
 --------------------------------
 Symbolic Z-matrix:
 Charge =  0 Multiplicity = 1

                         Standard orientation:
 ---------------------------------------------------------------------
 Center     Atomic      Atomic             Coordinates (Angstroms)
 Number     Number       Type             X           Y           Z
 ---------------------------------------------------------------------
      1         12           0      -12.817763   -0.304139   -0.326591
      2          6           0       -9.439705   -0.336661    0.900687
      3          6           0      -13.448521    2.178175    2.125174
      4          6           0      -16.179002   -0.205632   -1.269290
      5          6           0      -12.208287   -2.913874   -2.321114
      6          7           0      -11.541637    0.645699    1.498156
      7          6           0      -10.206603    0.544224    1.673354
      8          6           0       -9.764037    1.394363    2.918176
      9          6           0      -11.148066    1.986869    3.365439
     10          6           0      -12.129303    1.657525    2.217116
     11          6           0      -11.607356    1.440460    4.762242
     12          6           0       -8.737992    2.475819    2.580604
     13          6           0       -7.594075    2.619995    3.529957
     14          1           0       -6.477328    3.619387    3.195311
     15          7           0      -14.502024    0.926691    0.155564
     16          6           0      -14.534609    1.859800    1.186524
     17          6           0      -15.846223    2.476737    1.193379
     18          6           0      -16.614508    1.908442    0.190807
     19          6           0      -15.792693    0.759430   -0.318878
     20          6           0      -16.325224    3.456445    2.225774
     21          6           0      -18.113512    2.168134   -0.248463
     22          8           0      -18.725031    1.628825   -1.138015
     23          6           0      -18.859745    3.326127    0.377982
     24          7           0      -14.053916   -1.444521   -1.454209
     25          6           0      -15.383293   -1.274881   -1.741208
     26          6           0      -15.966242   -2.466292   -2.536545
     27          6           0      -14.661498   -3.191764   -3.077566
     28          6           0      -13.556028   -2.438352   -2.243922
     29          6           0      -16.927423   -3.356957   -1.686012
     30          6           0      -14.444419   -3.070639   -4.616667
     31          6           0      -14.117913   -1.670396   -5.130985
     32          7           0      -11.239608   -1.440254   -0.666606
     33          6           0      -11.079721   -2.496925   -1.605848
     34          6           0       -9.718212   -3.025295   -1.557492
     35          6           0       -9.056205   -2.182390   -0.646799
     36          6           0       -9.985653   -1.236512   -0.138899
     37          6           0       -9.196509   -4.131570   -2.351213
     38          6           0       -7.746152   -1.972297   -0.039081
     39          8           0       -6.688489   -2.537761   -0.260618
     40          6           0       -7.948708   -0.809334    1.074042
     41          6           0       -6.849998    0.160405    0.632301
     42          8           0       -6.826269    0.896809   -0.370332
     43          8           0       -5.835257    0.064592    1.473678
     44          6           0       -4.737306    1.113886    1.436135
     45          1           0      -13.611569    2.993407    2.832745
     46          1           0      -17.212123   -0.254023   -1.622170
     47          1           0      -12.060930   -3.714524   -3.048513
     48          1           0       -9.266182    0.675153    3.567674
     49          1           0      -11.122074    3.076163    3.417057
     50          1           0      -11.834368    2.192238    5.518148
     51          1           0      -10.979494    0.640325    5.154712
     52          1           0      -12.586475    0.961874    4.792023
     53          1           0       -9.276835    3.372969    2.885865
     54          1           0       -8.479368    2.507768    1.521636
     55          1           0       -7.051185    1.735606    3.867383
     56          1           0       -8.072386    3.013278    4.427046
     57          1           0      -15.509463    3.787616    2.867879
     58          1           0      -17.120574    3.092048    2.877816
     59          1           0      -16.724339    4.393395    1.836927
     60          1           0      -18.372373    4.283271    0.192711
     61          1           0      -18.889979    3.021576    1.424183
     62          1           0      -19.874760    3.197731    0.001961
     63          1           0      -16.613760   -1.989639   -3.273338
     64          1           0      -14.448560   -4.190875   -2.696746
     65          1           0      -17.965819   -3.281554   -2.008627
     66          1           0      -16.884992   -3.269585   -0.600913
     67          1           0      -16.524544   -4.348317   -1.894153
     68          1           0      -15.234153   -3.643632   -5.102771
     69          1           0      -13.560011   -3.657407   -4.864332
     70          1           0      -14.175865   -0.867684   -4.396768
     71          1           0      -14.869072   -1.458621   -5.891508
     72          1           0      -13.093122   -1.515731   -5.466632
     73          1           0       -8.152007   -4.381410   -2.163849
     74          1           0       -9.330650   -3.821316   -3.387405
     75          1           0       -9.840287   -4.994114   -2.173214
     76          1           0       -7.638091   -1.129313    2.068628
     77          1           0       -4.212720    1.023796    2.387597
     78          1           0       -5.124258    2.132173    1.412914
     79          1           0       -4.076099    1.020771    0.573821
     80         12           0       12.375259   -0.235899    0.353077
     81          6           0       11.514561    2.673100   -1.191889
     82          6           0        9.115509   -0.415778    1.523939
     83          6           0       13.121749   -3.282660    1.549989
     84          6           0       15.415421   -0.296557   -1.418788
     85          7           0       10.453301    0.878180   -0.043001
     86          6           0       10.413366    2.062963   -0.684928
     87          6           0        9.034472    2.602288   -0.799630
     88          6           0        8.328864    1.761134    0.436120
     89          6           0        9.358838    0.639312    0.685507
     90          6           0        8.012852    2.653954    1.672245
     91          6           0        8.452517    2.239368   -2.156604
     92          6           0        8.415690    0.705643   -2.606121
     93          1           0        7.206160    0.147752   -3.345846
     94          7           0       11.288176   -1.651595    1.385330
     95          6           0        9.979541   -1.487458    1.905726
     96          6           0        9.736361   -2.587838    2.777607
     97          6           0       10.819573   -3.457877    2.783106
     98          6           0       11.842498   -2.829174    1.930501
     99          6           0        8.406022   -2.642118    3.500824
    100          6           0       10.913707   -4.807005    3.454834
    101          8           0        9.892815   -5.169911    4.090677
    102          6           0       11.946380   -5.769320    3.263600
    103          7           0       13.956764   -1.680242   -0.089602
    104          6           0       14.058041   -2.849309    0.605619
    105          6           0       15.328863   -3.634274    0.201214
    106          6           0       16.050533   -2.636000   -0.765548
    107          6           0       15.054481   -1.490507   -0.829789
    108          6           0       16.169137   -4.073253    1.381380
    109          6           0       16.356413   -3.326270   -2.199948
    110          6           0       17.739209   -2.993105   -2.771661
    111          7           0       13.377342    0.942149   -1.067325
    112          6           0       14.650785    0.924203   -1.539195
    113          6           0       14.883798    2.198923   -2.161824
    114          6           0       13.696092    3.000545   -2.042447
    115          6           0       12.807909    2.163009   -1.388143
    116          6           0       16.048266    2.532344   -3.030221
    117          6           0       13.007566    4.207633   -2.369422
    118          8           0       13.517438    5.165775   -2.963857
    119          6           0       11.607084    4.051623   -1.806234
    120          6           0       11.362216    5.149229   -0.839232
    121          8           0       11.470520    6.301471   -1.210147
    122          8           0       10.942178    4.740023    0.389465
    123          6           0       10.674816    5.816008    1.345859
    124          1           0        8.197743   -0.335939    2.110073
    125          1           0       13.433821   -4.150669    2.134184
    126          1           0       16.407043   -0.158283   -1.855436
    127          1           0        8.892478    3.678548   -0.701113
    128          1           0        7.321215    1.444020    0.164315
    129          1           0        6.946841    2.618718    1.893929
    130          1           0        8.259688    3.678254    1.391735
    131          1           0        8.584365    2.410186    2.568760
    132          1           0        8.950085    2.869477   -2.894109
    133          1           0        7.478291    2.726922   -2.122962
    134          1           0        8.522506   -0.025078   -1.804303
    135          1           0        9.236618    0.669573   -3.321683
    136          1           0        7.715594   -3.111217    2.799603
    137          1           0        8.063082   -1.624681    3.684543
    138          1           0        8.392445   -3.175490    4.451787
    139          1           0       11.577843   -6.788563    3.383694
    140          1           0       12.850317   -5.560030    3.837062
    141          1           0       12.164781   -5.728716    2.197338
    142          1           0       14.926020   -4.485625   -0.348550
    143          1           0       16.934221   -2.230745   -0.273010
    144          1           0       15.713762   -3.870194    2.350292
    145          1           0       17.227050   -3.820772    1.448048
    146          1           0       16.066271   -5.158321    1.349728
    147          1           0       15.640275   -3.062704   -2.978337
    148          1           0       16.243713   -4.409720   -2.165028
    149          1           0       18.361866   -3.883303   -2.686736
    150          1           0       18.202887   -2.247030   -2.125961
    151          1           0       17.703416   -2.670453   -3.812313
    152          1           0       17.022215    2.628866   -2.551937
    153          1           0       15.774908    3.465058   -3.525037
    154          1           0       16.220510    1.774376   -3.794442
    155          1           0       10.927708    4.160013   -2.652197
    156          1           0        9.923375    6.472203    0.905780
    157          1           0       11.570854    6.354263    1.655303
    158          1           0       10.373523    5.406612    2.309966
 ---------------------------------------------------------------------

 SCF Done:  E(RPBE1PBE) =  -4067.36086977     A.U. after   16 cycles

 Excitation energies and oscillator strengths:

 Excited State   1:      Singlet-A      1.7990 eV  689.20 nm  f=0.0000  <S**2>=0.000
     312 -> 313        0.70710
 This state for optimization and/or second-order correction.
 Total Energy, E(TD-HF/TD-DFT) =  -4067.29475927
 Copying the excited state density for this state as the 1-particle RhoCI density.

 Excited State   2:      Singlet-A      1.8202 eV  681.17 nm  f=0.3656  <S**2>=0.000
     310 -> 315       -0.17681
     312 -> 314        0.69215
     312 <- 314       -0.10906

 Excited State   3:      Singlet-A      1.8908 eV  655.72 nm  f=0.3767  <S**2>=0.000
     309 -> 316       -0.16972
     311 -> 313        0.69173
     311 <- 313       -0.10816

 Excited State   4:      Singlet-A      2.0383 eV  608.28 nm  f=0.0000  <S**2>=0.000
     311 -> 314        0.70709

 Excited State   5:      Singlet-A      2.2080 eV  561.52 nm  f=0.1195  <S**2>=0.000
     309 -> 313        0.66007
     311 -> 316        0.22043

 The electronic state is 1-A.
 Alpha  occ. eigenvalues --  -46.92408 -46.91723 -19.27000 -19.25615 -19.19700
 Alpha  occ. eigenvalues --  -19.19661 -19.19643 -19.18621 -19.18302 -19.18183
 Alpha  occ. eigenvalues --  -14.41971 -14.41508 -14.41416 -14.41125 -14.39741
 Alpha  occ. eigenvalues --  -14.39427 -14.39319 -14.38318 -10.36458 -10.35543
 Alpha  occ. eigenvalues --  -10.32693 -10.32622 -10.31754 -10.31667 -10.29928
 Alpha  occ. eigenvalues --  -10.29479 -10.29244 -10.29178 -10.29100 -10.28998
 Alpha  occ. eigenvalues --  -10.28830 -10.28691 -10.28671 -10.28617 -10.28298
 Alpha  occ. eigenvalues --  -10.28265 -10.27957 -10.27844 -10.27805 -10.27689
 Alpha  occ. eigenvalues --  -10.27073 -10.26682 -10.26571 -10.26479 -10.26430
 Alpha  occ. eigenvalues --  -10.26307 -10.26257 -10.26250 -10.26208 -10.26203
 Alpha  occ. eigenvalues --  -10.26183 -10.26159 -10.26074 -10.26004 -10.25997
 Alpha  occ. eigenvalues --  -10.25959 -10.25855 -10.25802 -10.25630 -10.25624
 Alpha  occ. eigenvalues --  -10.25182 -10.24928 -10.24913 -10.24842 -10.24823
 Alpha  occ. eigenvalues --  -10.24815 -10.24803 -10.24622 -10.24495 -10.24425
 Alpha  occ. eigenvalues --  -10.24275 -10.24223 -10.23932 -10.23724 -10.23710
 Alpha  occ. eigenvalues --  -10.23683 -10.23596 -10.23577 -10.23476 -10.23225
 Alpha  occ. eigenvalues --  -10.23026 -10.22968 -10.22823 -10.22784 -10.22508
 Alpha  occ. eigenvalues --  -10.22400  -3.14443  -3.13990  -1.87259  -1.86836
 Alpha  occ. eigenvalues --   -1.86816  -1.86648  -1.86382  -1.86219  -1.12155
 Alpha  occ. eigenvalues --   -1.10771  -1.06151  -1.04839  -1.03838  -1.02889
 Alpha  occ. eigenvalues --   -1.02828  -1.00131  -0.99494  -0.99081  -0.98395
 Alpha  occ. eigenvalues --   -0.97750  -0.97488  -0.96872  -0.96387  -0.95914
 Alpha  occ. eigenvalues --   -0.88477  -0.85229  -0.83505  -0.83464  -0.83261
 Alpha  occ. eigenvalues --   -0.83025  -0.82972  -0.82295  -0.82020  -0.81717
 Alpha  occ. eigenvalues --   -0.81246  -0.80765  -0.80454  -0.80116  -0.79331
 Alpha  occ. eigenvalues --   -0.78403  -0.78394  -0.77869  -0.77444  -0.76990
 Alpha  occ. eigenvalues --   -0.76654  -0.75728  -0.75664  -0.75351  -0.75198
 Alpha  occ. eigenvalues --   -0.74509  -0.72922  -0.72431  -0.72183  -0.71622
 Alpha  occ. eigenvalues --   -0.71328  -0.71264  -0.70363  -0.70295  -0.69491
 Alpha  occ. eigenvalues --   -0.69215  -0.67064  -0.66939  -0.66487  -0.66096
 Alpha  occ. eigenvalues --   -0.64413  -0.64348  -0.63567  -0.63178  -0.63177
 Alpha  occ. eigenvalues --   -0.61983  -0.61473  -0.60915  -0.60668  -0.59903
 Alpha  occ. eigenvalues --   -0.59758  -0.59691  -0.59629  -0.59149  -0.58840
 Alpha  occ. eigenvalues --   -0.58665  -0.58345  -0.56425  -0.54721  -0.54165
 Alpha  occ. eigenvalues --   -0.54119  -0.53932  -0.53779  -0.53494  -0.53167
 Alpha  occ. eigenvalues --   -0.52940  -0.52611  -0.52401  -0.51973  -0.51233
 Alpha  occ. eigenvalues --   -0.51073  -0.50665  -0.50357  -0.50285  -0.50014
 Alpha  occ. eigenvalues --   -0.49659  -0.49644  -0.49160  -0.49082  -0.48812
 Alpha  occ. eigenvalues --   -0.48525  -0.48370  -0.47825  -0.47749  -0.47732
 Alpha  occ. eigenvalues --   -0.47633  -0.47551  -0.47281  -0.46967  -0.46898
 Alpha  occ. eigenvalues --   -0.46648  -0.46422  -0.46371  -0.46217  -0.45941
 Alpha  occ. eigenvalues --   -0.45725  -0.45585  -0.45479  -0.45471  -0.44725
 Alpha  occ. eigenvalues --   -0.44683  -0.44395  -0.44215  -0.44137  -0.43983
 Alpha  occ. eigenvalues --   -0.43895  -0.43854  -0.43735  -0.43576  -0.43302
 Alpha  occ. eigenvalues --   -0.43299  -0.43241  -0.43129  -0.43087  -0.42753
 Alpha  occ. eigenvalues --   -0.42698  -0.42255  -0.42198  -0.42159  -0.41697
 Alpha  occ. eigenvalues --   -0.41510  -0.41426  -0.41361  -0.41075  -0.41065
 Alpha  occ. eigenvalues --   -0.40947  -0.40927  -0.40685  -0.40581  -0.40465
 Alpha  occ. eigenvalues --   -0.40369  -0.40307  -0.39923  -0.39911  -0.39716
 Alpha  occ. eigenvalues --   -0.39512  -0.39418  -0.39381  -0.39240  -0.39232
 Alpha  occ. eigenvalues --   -0.39009  -0.38830  -0.38435  -0.38342  -0.38270
 Alpha  occ. eigenvalues --   -0.38261  -0.37955  -0.37889  -0.37788  -0.37605
 Alpha  occ. eigenvalues --   -0.37324  -0.37235  -0.37089  -0.37041  -0.36985
 Alpha  occ. eigenvalues --   -0.36743  -0.36709  -0.36585  -0.36252  -0.36016
 Alpha  occ. eigenvalues --   -0.35949  -0.35752  -0.35737  -0.35271  -0.35204
 Alpha  occ. eigenvalues --   -0.35154  -0.34556  -0.34454  -0.34058  -0.34047
 Alpha  occ. eigenvalues --   -0.33590  -0.33572  -0.33068  -0.32736  -0.32618
 Alpha  occ. eigenvalues --   -0.32556  -0.32397  -0.31890  -0.31739  -0.31097
 Alpha  occ. eigenvalues --   -0.30957  -0.30688  -0.29707  -0.29124  -0.29121
 Alpha  occ. eigenvalues --   -0.28685  -0.28498  -0.27655  -0.27307  -0.26932
 Alpha  occ. eigenvalues --   -0.26092  -0.25859  -0.25693  -0.25533  -0.25521
 Alpha  occ. eigenvalues --   -0.25371  -0.25292  -0.24746  -0.21136  -0.21054
 Alpha  occ. eigenvalues --   -0.19192  -0.18650
 Alpha virt. eigenvalues --   -0.11507  -0.11169  -0.05508  -0.05343  -0.03974
 Alpha virt. eigenvalues --   -0.03607  -0.02292  -0.02068  -0.01320   0.00581
 Alpha virt. eigenvalues --    0.00586   0.00845   0.01330   0.01384   0.01707

 Mulliken charges:
               1
     1  Mg  12.000000
     2  C    6.000000
     3  C    6.000000
     4  C    6.000000
     5  C    6.000000
     6  N    7.000000
     7  C    6.000000
     8  C    6.000000
     9  C    6.000000
    10  C    6.000000
    11  C    6.000000
    12  C    6.000000
    13  C    6.000000
    14  H    1.000000
    15  N    7.000000
    16  C    6.000000
    17  C    6.000000
    18  C    6.000000
    19  C    6.000000
    20  C    6.000000
    21  C    6.000000
    22  O    8.000000
    23  C    6.000000
    24  N    7.000000
    25  C    6.000000
    26  C    6.000000
    27  C    6.000000
    28  C    6.000000
    29  C    6.000000
    30  C    6.000000
    31  C    6.000000
    32  N    7.000000
    33  C    6.000000
    34  C    6.000000
    35  C    6.000000
    36  C    6.000000
    37  C    6.000000
    38  C    6.000000
    39  O    8.000000
    40  C    6.000000
    41  C    6.000000
    42  O    8.000000
    43  O    8.000000
    44  C    6.000000
    45  H    1.000000
    46  H    1.000000
    47  H    1.000000
    48  H    1.000000
    49  H    1.000000
    50  H    1.000000
    51  H    1.000000
    52  H    1.000000
    53  H    1.000000
    54  H    1.000000
    55  H    1.000000
    56  H    1.000000
    57  H    1.000000
    58  H    1.000000
    59  H    1.000000
    60  H    1.000000
    61  H    1.000000
    62  H    1.000000
    63  H    1.000000
    64  H    1.000000
    65  H    1.000000
    66  H    1.000000
    67  H    1.000000
    68  H    1.000000
    69  H    1.000000
    70  H    1.000000
    71  H    1.000000
    72  H    1.000000
    73  H    1.000000
    74  H    1.000000
    75  H    1.000000
    76  H    1.000000
    77  H    1.000000
    78  H    1.000000
    79  H    1.000000
    80  Mg  12.000000
    81  C    6.000000
    82  C    6.000000
    83  C    6.000000
    84  C    6.000000
    85  N    7.000000
    86  C    6.000000
    87  C    6.000000
    88  C    6.000000
    89  C    6.000000
    90  C    6.000000
    91  C    6.000000
    92  C    6.000000
    93  H    1.000000
    94  N    7.000000
    95  C    6.000000
    96  C    6.000000
    97  C    6.000000
    98  C    6.000000
    99  C    6.000000
   100  C    6.000000
   101  O    8.000000
   102  C    6.000000
   103  N    7.000000
   104  C    6.000000
   105  C    6.000000
   106  C    6.000000
   107  C    6.000000
   108  C    6.000000
   109  C    6.000000
   110  C    6.000000
   111  N    7.000000
   112  C    6.000000
   113  C    6.000000
   114  C    6.000000
   115  C    6.000000
   116  C    6.000000
   117  C    6.000000
   118  O    8.000000
   119  C    6.000000
   120  C    6.000000
   121  O    8.000000
   122  O    8.000000
   123  C    6.000000
   124  H    1.000000
   125  H    1.000000
   126  H    1.000000
   127  H    1.000000
   128  H    1.000000
   129  H    1.000000
   130  H    1.000000
   131  H    1.000000
   132  H    1.000000
   133  H    1.000000
   134  H    1.000000
   135  H    1.000000
   136  H    1.000000
   137  H    1.000000
   138  H    1.000000
   139  H    1.000000
   140  H    1.000000
   141  H    1.000000
   142  H    1.000000
   143  H    1.000000
   144  H    1.000000
   145  H    1.000000
   146  H    1.000000
   147  H    1.000000
   148  H    1.000000
   149  H    1.000000
   150  H    1.000000
   151  H    1.000000
   152  H    1.000000
   153  H    1.000000
   154  H    1.000000
   155  H    1.000000
   156  H    1.000000
   157  H    1.000000
   158  H    1.000000
 Sum of Mulliken charges = 624.00000

 Dipole moment (field-independent basis, Debye):
    X=             -0.0000    Y=             -0.0000    Z=              0.0000  Tot=              0.0000
 Quadrupole moment (field-independent basis, Debye-Ang):
   XX=              0.0000   YY=              0.0000   ZZ=              0.0000
   XY=             -0.0000   XZ=              0.0000   YZ=             -0.0000

 Normal termination of Gaussian 16 at Thu Oct 14 16:13:39 2021.
