 Gaussian 16, Revision A.03,
 Gaussian 16:  ES64L-G16RevA.03 25-Dec-2016

 --------------------------------------------------------
 #p PBE1PBE/Def2SVP td=(nstates=5) density=(transition=1)
 --------------------------------------------------------

 --------------------------------
 TDDFT excited states in gaussian
 --------------------------------
 Symbolic Z-matrix:
 Charge =  0 Multiplicity = 1

                         Standard orientation:
 ---------------------------------------------------------------------
 Center     Atomic      Atomic             Coordinates (Angstroms)
 Number     Number       Type             X           Y           Z
 ---------------------------------------------------------------------
      1         12           0       29.220285    0.429179    0.066897
      2          6           0       26.591690   -1.265768   -1.554997
      3          6           0       30.794807   -2.544255    0.525443
      4          6           0       31.658733    2.092448    1.718397
      5          6           0       27.331106    3.340346   -0.054150
      6          7           0       28.716041   -1.642352   -0.355973
      7          6           0       27.643430   -2.094467   -1.129448
      8          6           0       27.820740   -3.554468   -1.420192
      9          6           0       28.861613   -3.981725   -0.358210
     10          6           0       29.515509   -2.613953   -0.033232
     11          6           0       28.325893   -4.632468    0.956068
     12          6           0       28.257132   -3.914847   -2.890104
     13          6           0       27.467005   -5.018956   -3.517359
     14          1           0       28.268771   -6.095997   -4.271773
     15          7           0       30.982594   -0.138076    0.872651
     16          6           0       31.531781   -1.430960    0.892428
     17          6           0       32.811515   -1.402934    1.480177
     18          6           0       33.122950   -0.011804    1.854465
     19          6           0       31.934870    0.701145    1.480680
     20          6           0       33.652491   -2.601572    1.809346
     21          6           0       34.364356    0.651694    2.594444
     22          8           0       34.411131    1.844710    2.779442
     23          6           0       35.572858   -0.181012    2.997796
     24          7           0       29.405024    2.415464    0.832408
     25          6           0       30.515581    2.830971    1.494614
     26          6           0       30.350144    4.360566    1.945534
     27          6           0       29.085763    4.842311    1.108052
     28          6           0       28.548726    3.442973    0.583604
     29          6           0       30.166500    4.614152    3.467403
     30          6           0       29.425444    5.835787   -0.059541
     31          6           0       28.609657    7.057149    0.020834
     32          7           0       27.332470    0.948160   -0.603477
     33          6           0       26.737994    2.206472   -0.684887
     34          6           0       25.467159    2.103979   -1.349065
     35          6           0       25.361042    0.767841   -1.677467
     36          6           0       26.478552    0.120051   -1.254254
     37          6           0       24.577550    3.339912   -1.643379
     38          6           0       24.502329   -0.231733   -2.285734
     39          8           0       23.363799   -0.098399   -2.677202
     40          6           0       25.280824   -1.637521   -2.207205
     41          6           0       24.464933   -2.593397   -1.436176
     42          8           0       24.081083   -2.409971   -0.251223
     43          8           0       24.179864   -3.659625   -2.237870
     44          6           0       23.067030   -4.514916   -1.746854
     45          1           0       31.220354   -3.538870    0.673866
     46          1           0       32.388054    2.701186    2.256588
     47          1           0       26.721387    4.245096   -0.020744
     48          1           0       26.949533   -4.164240   -1.177823
     49          1           0       29.594589   -4.697602   -0.730584
     50          1           0       27.430852   -5.239974    0.815886
     51          1           0       28.141371   -3.819324    1.658576
     52          1           0       29.045632   -5.227528    1.517610
     53          1           0       29.319148   -4.148645   -2.818001
     54          1           0       28.233345   -3.040568   -3.541275
     55          1           0       26.803427   -4.452673   -4.171069
     56          1           0       26.950270   -5.584181   -2.741836
     57          1           0       34.523657   -2.756980    1.172555
     58          1           0       33.066491   -3.504443    1.642296
     59          1           0       34.044599   -2.696700    2.821562
     60          1           0       36.317921    0.534478    3.343568
     61          1           0       35.880985   -0.856117    2.198893
     62          1           0       35.270230   -0.944194    3.715380
     63          1           0       31.267195    4.910483    1.733459
     64          1           0       28.368393    5.288047    1.798719
     65          1           0       30.087251    3.730373    4.101309
     66          1           0       29.277835    5.201874    3.698874
     67          1           0       31.032076    5.191698    3.793023
     68          1           0       29.171168    5.357263   -1.006034
     69          1           0       30.460034    6.177756   -0.078478
     70          1           0       29.210407    7.845232    0.475605
     71          1           0       27.630799    7.011385    0.496853
     72          1           0       28.303294    7.352121   -0.982837
     73          1           0       25.182945    4.241464   -1.546580
     74          1           0       23.655038    3.317063   -1.061445
     75          1           0       24.335453    3.244487   -2.701206
     76          1           0       25.484361   -2.040204   -3.199759
     77          1           0       22.805187   -5.261456   -2.496481
     78          1           0       22.202293   -3.852213   -1.706511
     79          1           0       23.371858   -4.896664   -0.772055
     80         12           0      -29.324995   -0.131137    0.010322
     81          6           0      -25.913772   -0.386443   -0.615603
     82          6           0      -28.738647   -1.484034    3.148721
     83          6           0      -32.420898    0.554051    0.943656
     84          6           0      -29.703574    1.657641   -2.928296
     85          7           0      -27.532384   -0.698228    1.195756
     86          6           0      -26.259627   -0.850226    0.684991
     87          6           0      -25.327710   -1.537699    1.638520
     88          6           0      -26.350591   -2.206939    2.658875
     89          6           0      -27.615374   -1.409041    2.370887
     90          6           0      -26.499865   -3.796467    2.793835
     91          6           0      -24.199576   -0.607200    2.284660
     92          6           0      -24.550877    0.889479    2.535617
     93          1           0      -24.043634    1.434505    3.849106
     94          7           0      -30.411842   -0.313705    1.842523
     95          6           0      -29.982531   -0.921446    3.028930
     96          6           0      -30.983261   -0.836812    4.057043
     97          6           0      -32.092630   -0.211242    3.439755
     98          6           0      -31.693994    0.075566    2.029512
     99          6           0      -30.807219   -1.602659    5.369263
    100          6           0      -33.417522    0.029472    4.198601
    101          8           0      -33.539203   -0.223066    5.401589
    102          6           0      -34.541791    0.524310    3.389720
    103          7           0      -30.767187    1.066266   -0.861307
    104          6           0      -32.063264    0.945280   -0.389050
    105          6           0      -33.108434    1.590993   -1.325204
    106          6           0      -32.116800    2.130437   -2.435990
    107          6           0      -30.789977    1.647856   -2.049123
    108          6           0      -34.213661    0.751445   -1.883838
    109          6           0      -32.091642    3.739608   -2.527451
    110          6           0      -32.177015    4.203063   -3.958326
    111          7           0      -28.125971    0.372291   -1.617916
    112          6           0      -28.425500    1.109382   -2.748616
    113          6           0      -27.218023    1.247527   -3.594624
    114          6           0      -26.188383    0.659102   -2.780744
    115          6           0      -26.803984    0.167568   -1.623709
    116          6           0      -26.987998    2.049038   -4.810978
    117          6           0      -24.743796    0.394703   -2.610372
    118          8           0      -23.816170    0.725524   -3.312123
    119          6           0      -24.520780   -0.319634   -1.238577
    120          6           0      -23.829396   -1.594207   -1.435971
    121          8           0      -22.731507   -1.971466   -1.025690
    122          8           0      -24.525942   -2.283091   -2.463336
    123          6           0      -24.016272   -3.634646   -2.779317
    124          1           0      -28.558012   -2.134865    4.007368
    125          1           0      -33.501763    0.656391    1.059735
    126          1           0      -29.945861    2.166066   -3.863211
    127          1           0      -24.753684   -2.304237    1.118046
    128          1           0      -25.946094   -1.844675    3.604328
    129          1           0      -25.793480   -4.390384    2.214121
    130          1           0      -27.460912   -4.178281    2.449541
    131          1           0      -26.229868   -4.096501    3.806721
    132          1           0      -23.269934   -0.685856    1.721988
    133          1           0      -23.941271   -1.068290    3.237926
    134          1           0      -25.626987    1.049935    2.462993
    135          1           0      -24.095367    1.509109    1.763664
    136          1           0      -31.283407   -1.124114    6.225616
    137          1           0      -29.751557   -1.609555    5.639350
    138          1           0      -31.262720   -2.579297    5.203870
    139          1           0      -34.869338   -0.276200    2.727065
    140          1           0      -34.238183    1.419390    2.845900
    141          1           0      -35.326261    0.753552    4.110881
    142          1           0      -33.463899    2.498749   -0.837076
    143          1           0      -32.396646    1.535489   -3.305349
    144          1           0      -34.680510    1.356567   -2.661173
    145          1           0      -34.968248    0.658587   -1.102741
    146          1           0      -33.829032   -0.211648   -2.221509
    147          1           0      -31.178510    4.060155   -2.026082
    148          1           0      -32.826960    4.282446   -1.932189
    149          1           0      -31.213466    4.636042   -4.225958
    150          1           0      -32.805444    5.087049   -4.071688
    151          1           0      -32.318179    3.345799   -4.616243
    152          1           0      -27.850394    2.601935   -5.186331
    153          1           0      -26.729465    1.335085   -5.592211
    154          1           0      -26.306477    2.803790   -4.419089
    155          1           0      -23.911457    0.378534   -0.665132
    156          1           0      -24.938549   -4.213978   -2.835819
    157          1           0      -23.332552   -4.150231   -2.104871
    158          1           0      -23.707158   -3.567894   -3.822600
 ---------------------------------------------------------------------

 SCF Done:  E(RPBE1PBE) =  -4067.39808308     A.U. after   16 cycles

 Excitation energies and oscillator strengths:

 Excited State   1:      Singlet-A      1.8711 eV  662.62 nm  f=0.3587  <S**2>=0.000
     309 -> 315        0.17707
     312 -> 314        0.68992
     312 <- 314       -0.10399
 This state for optimization and/or second-order correction.
 Total Energy, E(TD-HF/TD-DFT) =  -4067.32932115
 Copying the excited state density for this state as the 1-particle RhoCI density.

 Excited State   2:      Singlet-A      1.8995 eV  652.73 nm  f=0.3776  <S**2>=0.000
     310 -> 316       -0.17461
     311 -> 313        0.69184
     311 <- 313       -0.10895

 Excited State   3:      Singlet-A      1.9682 eV  629.94 nm  f=0.0000  <S**2>=0.000
     312 -> 313        0.70711

 Excited State   4:      Singlet-A      2.1020 eV  589.84 nm  f=0.0000  <S**2>=0.000
     311 -> 314        0.70711

 Excited State   5:      Singlet-A      2.2138 eV  560.06 nm  f=0.1491  <S**2>=0.000
     310 -> 313        0.66191
     311 -> 316        0.22954

 The electronic state is 1-A.
 Alpha  occ. eigenvalues --  -46.92483 -46.90600 -19.26300 -19.25001 -19.20745
 Alpha  occ. eigenvalues --  -19.19971 -19.19767 -19.19358 -19.19163 -19.19094
 Alpha  occ. eigenvalues --  -14.41738 -14.41670 -14.41483 -14.41053 -14.39232
 Alpha  occ. eigenvalues --  -14.38941 -14.38873 -14.38308 -10.36723 -10.36438
 Alpha  occ. eigenvalues --  -10.33375 -10.32337 -10.32286 -10.32161 -10.29374
 Alpha  occ. eigenvalues --  -10.29316 -10.28949 -10.28866 -10.28512 -10.28289
 Alpha  occ. eigenvalues --  -10.28259 -10.28252 -10.28239 -10.28177 -10.28155
 Alpha  occ. eigenvalues --  -10.27941 -10.27888 -10.27407 -10.27005 -10.26912
 Alpha  occ. eigenvalues --  -10.26704 -10.26454 -10.26409 -10.26331 -10.26280
 Alpha  occ. eigenvalues --  -10.26132 -10.26021 -10.25969 -10.25906 -10.25865
 Alpha  occ. eigenvalues --  -10.25835 -10.25764 -10.25722 -10.25714 -10.25570
 Alpha  occ. eigenvalues --  -10.25557 -10.25511 -10.25510 -10.25462 -10.25433
 Alpha  occ. eigenvalues --  -10.25314 -10.24938 -10.24839 -10.24749 -10.24587
 Alpha  occ. eigenvalues --  -10.24530 -10.24508 -10.24436 -10.24412 -10.24349
 Alpha  occ. eigenvalues --  -10.24082 -10.24074 -10.23918 -10.23681 -10.23675
 Alpha  occ. eigenvalues --  -10.23610 -10.23508 -10.23438 -10.23345 -10.23331
 Alpha  occ. eigenvalues --  -10.23262 -10.23205 -10.23198 -10.22795 -10.22181
 Alpha  occ. eigenvalues --  -10.22087  -3.14589  -3.12902  -1.87413  -1.86979
 Alpha  occ. eigenvalues --   -1.86804  -1.85750  -1.85265  -1.85152  -1.10519
 Alpha  occ. eigenvalues --   -1.09526  -1.06338  -1.05172  -1.05169  -1.04015
 Alpha  occ. eigenvalues --   -1.01710  -1.01120  -0.99676  -0.99507  -0.98345
 Alpha  occ. eigenvalues --   -0.98103  -0.97831  -0.97192  -0.96952  -0.95972
 Alpha  occ. eigenvalues --   -0.86980  -0.86811  -0.83944  -0.83506  -0.83446
 Alpha  occ. eigenvalues --   -0.82926  -0.82290  -0.82268  -0.81938  -0.81362
 Alpha  occ. eigenvalues --   -0.81236  -0.80643  -0.80422  -0.80212  -0.79025
 Alpha  occ. eigenvalues --   -0.78753  -0.78543  -0.78109  -0.77176  -0.76940
 Alpha  occ. eigenvalues --   -0.76565  -0.76211  -0.75493  -0.75180  -0.74995
 Alpha  occ. eigenvalues --   -0.74486  -0.72677  -0.72469  -0.71768  -0.71632
 Alpha  occ. eigenvalues --   -0.71093  -0.71082  -0.70497  -0.70084  -0.70037
 Alpha  occ. eigenvalues --   -0.69199  -0.67349  -0.67101  -0.66568  -0.65384
 Alpha  occ. eigenvalues --   -0.63735  -0.63653  -0.63040  -0.62571  -0.62474
 Alpha  occ. eigenvalues --   -0.61956  -0.61235  -0.60887  -0.60853  -0.59938
 Alpha  occ. eigenvalues --   -0.59591  -0.59357  -0.59077  -0.59063  -0.58589
 Alpha  occ. eigenvalues --   -0.58535  -0.57061  -0.56532  -0.54823  -0.54783
 Alpha  occ. eigenvalues --   -0.54596  -0.53968  -0.53839  -0.53530  -0.52881
 Alpha  occ. eigenvalues --   -0.52713  -0.52401  -0.52102  -0.52087  -0.51761
 Alpha  occ. eigenvalues --   -0.50879  -0.50674  -0.50350  -0.50261  -0.50028
 Alpha  occ. eigenvalues --   -0.49893  -0.49627  -0.49474  -0.49100  -0.48400
 Alpha  occ. eigenvalues --   -0.48367  -0.48043  -0.47973  -0.47595  -0.47295
 Alpha  occ. eigenvalues --   -0.47246  -0.47168  -0.47015  -0.46708  -0.46480
 Alpha  occ. eigenvalues --   -0.46432  -0.46432  -0.46247  -0.45849  -0.45756
 Alpha  occ. eigenvalues --   -0.45707  -0.45454  -0.45377  -0.45047  -0.44989
 Alpha  occ. eigenvalues --   -0.44774  -0.44658  -0.44342  -0.44287  -0.44196
 Alpha  occ. eigenvalues --   -0.44032  -0.43988  -0.43868  -0.43547  -0.43474
 Alpha  occ. eigenvalues --   -0.43349  -0.43173  -0.42930  -0.42777  -0.42648
 Alpha  occ. eigenvalues --   -0.42395  -0.42391  -0.41930  -0.41885  -0.41633
 Alpha  occ. eigenvalues --   -0.41419  -0.41318  -0.41232  -0.41158  -0.40966
 Alpha  occ. eigenvalues --   -0.40913  -0.40789  -0.40558  -0.40496  -0.40450
 Alpha  occ. eigenvalues --   -0.40137  -0.40088  -0.39877  -0.39835  -0.39793
 Alpha  occ. eigenvalues --   -0.39693  -0.39502  -0.39487  -0.39441  -0.39397
 Alpha  occ. eigenvalues --   -0.39209  -0.39129  -0.38721  -0.38263  -0.38257
 Alpha  occ. eigenvalues --   -0.38154  -0.37938  -0.37846  -0.37823  -0.37675
 Alpha  occ. eigenvalues --   -0.37631  -0.37443  -0.37316  -0.37016  -0.36987
 Alpha  occ. eigenvalues --   -0.36767  -0.36753  -0.36711  -0.36587  -0.36510
 Alpha  occ. eigenvalues --   -0.36099  -0.36082  -0.35844  -0.35329  -0.35317
 Alpha  occ. eigenvalues --   -0.34882  -0.34855  -0.34070  -0.34044  -0.33768
 Alpha  occ. eigenvalues --   -0.33504  -0.33335  -0.32950  -0.32829  -0.32825
 Alpha  occ. eigenvalues --   -0.32429  -0.31942  -0.31728  -0.31589  -0.31385
 Alpha  occ. eigenvalues --   -0.31045  -0.30550  -0.30293  -0.29696  -0.29472
 Alpha  occ. eigenvalues --   -0.29116  -0.28876  -0.28570  -0.26926  -0.26902
 Alpha  occ. eigenvalues --   -0.26460  -0.25881  -0.25876  -0.25736  -0.25618
 Alpha  occ. eigenvalues --   -0.25519  -0.25330  -0.25129  -0.20990  -0.20910
 Alpha  occ. eigenvalues --   -0.19104  -0.18857
 Alpha virt. eigenvalues --   -0.11397  -0.11151  -0.05702  -0.04822  -0.03535
 Alpha virt. eigenvalues --   -0.03520  -0.01945  -0.01671  -0.01100  -0.00490
 Alpha virt. eigenvalues --   -0.00171   0.00688   0.00809   0.01459   0.01980

 Mulliken charges:
               1
     1  Mg  12.000010
     2  C    6.000136
     3  C    6.000005
     4  C    5.999839
     5  C    6.000100
     6  N    7.000138
     7  C    5.999773
     8  C    6.000080
     9  C    5.999940
    10  C    6.000178
    11  C    5.999977
    12  C    6.000022
    13  C    6.000013
    14  H    0.999955
    15  N    6.999967
    16  C    6.000221
    17  C    6.000189
    18  C    6.000135
    19  C    6.000217
    20  C    5.999935
    21  C    6.000077
    22  O    8.000210
    23  C    5.999979
    24  N    6.999915
    25  C    6.000231
    26  C    5.999951
    27  C    6.000044
    28  C    5.999797
    29  C    6.000010
    30  C    6.000026
    31  C    6.000008
    32  N    6.999947
    33  C    5.999710
    34  C    5.999818
    35  C    5.999986
    36  C    5.999782
    37  C    6.000016
    38  C    5.999810
    39  O    7.999799
    40  C    6.000010
    41  C    5.999948
    42  O    7.999984
    43  O    8.000005
    44  C    5.999997
    45  H    1.000135
    46  H    1.000039
    47  H    0.999884
    48  H    0.999991
    49  H    1.000020
    50  H    1.000101
    51  H    1.000021
    52  H    1.000000
    53  H    0.999913
    54  H    1.000015
    55  H    1.000018
    56  H    0.999989
    57  H    1.000169
    58  H    1.000122
    59  H    1.000158
    60  H    1.000113
    61  H    1.000039
    62  H    1.000057
    63  H    0.999984
    64  H    0.999981
    65  H    0.999981
    66  H    1.000059
    67  H    0.999998
    68  H    1.000013
    69  H    0.999926
    70  H    0.999962
    71  H    1.000003
    72  H    0.999987
    73  H    0.999890
    74  H    0.999841
    75  H    0.999856
    76  H    0.999930
    77  H    0.999956
    78  H    0.999983
    79  H    0.999975
    80  Mg  12.001859
    81  C    5.979170
    82  C    6.009871
    83  C    6.028315
    84  C    5.991933
    85  N    6.993696
    86  C    6.031778
    87  C    5.989316
    88  C    6.011532
    89  C    5.968688
    90  C    6.003879
    91  C    5.997642
    92  C    5.995923
    93  H    1.007387
    94  N    7.005093
    95  C    5.961871
    96  C    5.980916
    97  C    5.987642
    98  C    5.963183
    99  C    6.002152
   100  C    5.986609
   101  O    7.980966
   102  C    6.004197
   103  N    7.002116
   104  C    5.960020
   105  C    6.015762
   106  C    5.988292
   107  C    6.033492
   108  C    6.002738
   109  C    5.995787
   110  C    6.000017
   111  N    6.998980
   112  C    6.032713
   113  C    6.031190
   114  C    6.003389
   115  C    6.027680
   116  C    5.998072
   117  C    6.016068
   118  O    8.026441
   119  C    6.001553
   120  C    6.007384
   121  O    8.009183
   122  O    7.993967
   123  C    5.997812
   124  H    0.987971
   125  H    0.994194
   126  H    1.011215
   127  H    0.999529
   128  H    0.995031
   129  H    0.986624
   130  H    1.000200
   131  H    0.997029
   132  H    0.995893
   133  H    1.008088
   134  H    1.007071
   135  H    0.993205
   136  H    0.985492
   137  H    0.985675
   138  H    0.982932
   139  H    0.991038
   140  H    0.990179
   141  H    0.987717
   142  H    0.998645
   143  H    1.001022
   144  H    0.991428
   145  H    1.005193
   146  H    0.995599
   147  H    0.999859
   148  H    1.012153
   149  H    0.996314
   150  H    1.005404
   151  H    1.000484
   152  H    1.017500
   153  H    1.017027
   154  H    1.015404
   155  H    1.006564
   156  H    1.004859
   157  H    1.006354
   158  H    1.000836
 Sum of Mulliken charges = 624.00000

 Dipole moment (field-independent basis, Debye):
    X=              5.3774    Y=              2.3137    Z=             -8.1746  Tot=             10.0545
 Quadrupole moment (field-independent basis, Debye-Ang):
   XX=           -303.2442   YY=              1.5145   ZZ=             -4.3120
   XY=            -68.6954   XZ=            241.8418   YZ=             -0.6742

 Normal termination of Gaussian 16 at Thu Oct 14 02:26:11 2021.
