 Gaussian 16, Revision A.03,
 Gaussian 16:  ES64L-G16RevA.03 25-Dec-2016

 --------------------------------------------------------
 #p PBE1PBE/Def2SVP td=(nstates=5) density=(transition=1)
 --------------------------------------------------------

 --------------------------------
 TDDFT excited states in gaussian
 --------------------------------
 Symbolic Z-matrix:
 Charge =  0 Multiplicity = 1

                         Standard orientation:
 ---------------------------------------------------------------------
 Center     Atomic      Atomic             Coordinates (Angstroms)
 Number     Number       Type             X           Y           Z
 ---------------------------------------------------------------------
      1         12           0       25.770741    0.694864    0.182670
      2          6           0       26.777337   -2.538936   -0.090827
      3          6           0       23.177689    0.305077   -2.059476
      4          6           0       25.069554    4.033851    0.470536
      5          6           0       28.706756    1.338601    2.196698
      6          7           0       25.211801   -0.876239   -1.083216
      7          6           0       25.606539   -2.235976   -0.848303
      8          6           0       24.694893   -3.175792   -1.530497
      9          6           0       23.848555   -2.182081   -2.446169
     10          6           0       24.065058   -0.804310   -1.860965
     11          6           0       24.286122   -2.220040   -3.995132
     12          6           0       23.931703   -4.150672   -0.581958
     13          6           0       23.893596   -5.576515   -1.029159
     14          1           0       23.685790   -5.813939   -2.576844
     15          7           0       24.274241    1.976817   -0.623339
     16          6           0       23.340707    1.572929   -1.530948
     17          6           0       22.514112    2.693800   -1.821854
     18          6           0       22.970671    3.818003   -1.028797
     19          6           0       24.146589    3.300539   -0.252067
     20          6           0       21.407933    2.642447   -2.898305
     21          6           0       22.475456    5.220470   -0.860880
     22          8           0       22.996875    6.149840   -0.234419
     23          6           0       21.083823    5.523477   -1.534653
     24          7           0       26.821948    2.516508    1.125504
     25          6           0       26.266416    3.701777    1.170548
     26          6           0       26.962004    4.634154    2.160228
     27          6           0       28.123105    3.752243    2.701961
     28          6           0       27.892793    2.442242    1.951053
     29          6           0       27.485000    6.008037    1.497057
     30          6           0       27.952748    3.592672    4.276996
     31          6           0       26.760826    2.805746    4.875815
     32          7           0       27.508331   -0.329388    0.785075
     33          6           0       28.540681    0.051497    1.621373
     34          6           0       29.329727   -1.168042    1.889550
     35          6           0       28.726853   -2.230053    1.285218
     36          6           0       27.595714   -1.644622    0.608870
     37          6           0       30.654209   -1.172029    2.571838
     38          6           0       28.758724   -3.669843    1.029301
     39          8           0       29.548218   -4.530902    1.379600
     40          6           0       27.479462   -3.897556    0.110067
     41          6           0       27.964458   -4.387343   -1.196282
     42          8           0       28.786544   -3.849458   -1.958400
     43          8           0       27.302559   -5.585718   -1.371324
     44          6           0       27.478534   -6.188330   -2.699156
     45          1           0       22.315404    0.210423   -2.722546
     46          1           0       24.719420    5.059555    0.608752
     47          1           0       29.554215    1.496252    2.866147
     48          1           0       25.354048   -3.792599   -2.142684
     49          1           0       22.797448   -2.451820   -2.348240
     50          1           0       24.907226   -3.077898   -4.252833
     51          1           0       24.963027   -1.377486   -4.135866
     52          1           0       23.342529   -2.099037   -4.525575
     53          1           0       22.898083   -3.822163   -0.472896
     54          1           0       24.498822   -4.071575    0.345415
     55          1           0       23.056523   -6.132841   -0.609200
     56          1           0       24.696832   -6.272615   -0.787195
     57          1           0       20.490925    2.127132   -2.612802
     58          1           0       21.927639    2.186924   -3.741056
     59          1           0       20.998447    3.624351   -3.134581
     60          1           0       21.219248    5.578069   -2.614858
     61          1           0       20.632183    6.363911   -1.007911
     62          1           0       20.323003    4.772100   -1.322268
     63          1           0       26.269556    4.853190    2.972677
     64          1           0       29.112459    4.171252    2.518130
     65          1           0       26.803372    6.784483    1.846202
     66          1           0       27.423228    5.947702    0.410000
     67          1           0       28.476157    6.385034    1.745969
     68          1           0       27.984142    4.524745    4.840992
     69          1           0       28.830679    2.992171    4.517405
     70          1           0       27.255411    1.961818    5.356924
     71          1           0       26.030075    2.511728    4.123426
     72          1           0       26.190787    3.364257    5.618221
     73          1           0       30.655425   -2.136280    3.079155
     74          1           0       30.775969   -0.341567    3.267507
     75          1           0       31.411282   -1.328583    1.804553
     76          1           0       27.018591   -4.720602    0.655589
     77          1           0       26.984318   -7.152628   -2.577410
     78          1           0       28.548813   -6.365351   -2.805344
     79          1           0       27.179941   -5.568567   -3.544887
     80         12           0      -26.678872   -0.183746    0.047669
     81          6           0      -23.263190   -0.783624   -0.581899
     82          6           0      -26.271123   -1.795503    2.959820
     83          6           0      -29.695223    0.866710    0.739608
     84          6           0      -26.570677    2.046481   -2.742465
     85          7           0      -24.932452   -1.132053    1.072358
     86          6           0      -23.667904   -1.346361    0.637928
     87          6           0      -22.823346   -2.157588    1.599505
     88          6           0      -23.948110   -2.677443    2.582148
     89          6           0      -25.152215   -1.829026    2.229235
     90          6           0      -24.265498   -4.225952    2.473858
     91          6           0      -21.599291   -1.516171    2.387643
     92          6           0      -21.416388    0.021394    2.490372
     93          1           0      -20.780299    0.602115    3.808296
     94          7           0      -27.860740   -0.579087    1.632701
     95          6           0      -27.505169   -1.155731    2.772907
     96          6           0      -28.639383   -1.066658    3.732486
     97          6           0      -29.738141   -0.400476    2.977445
     98          6           0      -29.099296    0.004978    1.725082
     99          6           0      -28.658033   -1.736419    5.080064
    100          6           0      -31.120292   -0.114129    3.503473
    101          8           0      -31.420527   -0.520648    4.623255
    102          6           0      -32.222023    0.730072    2.762767
    103          7           0      -27.975107    1.392249   -0.836145
    104          6           0      -29.184275    1.416513   -0.392922
    105          6           0      -30.020041    2.386428   -1.341549
    106          6           0      -28.914363    2.906890   -2.262294
    107          6           0      -27.697167    2.068120   -1.923436
    108          6           0      -31.239867    1.829749   -2.094478
    109          6           0      -28.477476    4.431429   -1.953070
    110          6           0      -28.798711    5.471584   -3.041896
    111          7           0      -25.266131    0.574040   -1.346681
    112          6           0      -25.379731    1.351449   -2.468847
    113          6           0      -24.150614    1.256459   -3.298486
    114          6           0      -23.210497    0.513392   -2.529896
    115          6           0      -24.019986    0.045271   -1.406277
    116          6           0      -23.853640    2.006915   -4.615962
    117          6           0      -21.883420    0.007442   -2.415416
    118          8           0      -20.826426    0.193828   -3.042267
    119          6           0      -21.872126   -0.927171   -1.179052
    120          6           0      -21.463393   -2.316195   -1.677915
    121          8           0      -20.448731   -2.953321   -1.577125
    122          8           0      -22.610678   -2.941212   -2.178525
    123          6           0      -22.487636   -4.364509   -2.622298
    124          1           0      -26.107235   -2.318024    3.904779
    125          1           0      -30.716601    1.157656    0.996791
    126          1           0      -26.641717    2.520328   -3.723360
    127          1           0      -22.482774   -3.009655    1.011487
    128          1           0      -23.629194   -2.512643    3.611442
    129          1           0      -23.680715   -4.688637    1.679549
    130          1           0      -25.286719   -4.209544    2.094725
    131          1           0      -24.135854   -4.696092    3.448844
    132          1           0      -20.693215   -1.940451    1.954883
    133          1           0      -21.601251   -1.898093    3.409104
    134          1           0      -22.415780    0.442164    2.379383
    135          1           0      -20.685481    0.425542    1.790661
    136          1           0      -29.653263   -1.788710    5.521021
    137          1           0      -27.892732   -1.240161    5.678018
    138          1           0      -28.226800   -2.718492    4.883194
    139          1           0      -32.515485    0.498430    1.738196
    140          1           0      -31.856421    1.753006    2.673036
    141          1           0      -33.169854    0.727547    3.300246
    142          1           0      -30.481501    3.195240   -0.776005
    143          1           0      -29.085142    2.912912   -3.339379
    144          1           0      -31.417154    0.779981   -1.860145
    145          1           0      -31.154818    1.984836   -3.170554
    146          1           0      -32.178565    2.307227   -1.813466
    147          1           0      -27.402578    4.519966   -1.801460
    148          1           0      -28.979627    4.692925   -1.021387
    149          1           0      -28.087242    6.292834   -3.131762
    150          1           0      -29.741634    5.922947   -2.733368
    151          1           0      -28.823981    4.876239   -3.954680
    152          1           0      -24.539246    2.821193   -4.848176
    153          1           0      -23.948736    1.238100   -5.382369
    154          1           0      -22.806999    2.310073   -4.604542
    155          1           0      -21.136222   -0.566340   -0.461239
    156          1           0      -21.531866   -4.706132   -3.019058
    157          1           0      -23.181684   -4.421603   -3.460620
    158          1           0      -22.821606   -5.151276   -1.945558
 ---------------------------------------------------------------------

 SCF Done:  E(RPBE1PBE) =  -4067.35649382     A.U. after   16 cycles

 Excitation energies and oscillator strengths:

 Excited State   1:      Singlet-A      1.8382 eV  674.48 nm  f=0.3745  <S**2>=0.000
     310 -> 315        0.17969
     312 -> 314        0.69183
     312 <- 314       -0.10365
 This state for optimization and/or second-order correction.
 Total Energy, E(TD-HF/TD-DFT) =  -4067.28894089
 Copying the excited state density for this state as the 1-particle RhoCI density.

 Excited State   2:      Singlet-A      1.8929 eV  654.99 nm  f=0.0000  <S**2>=0.000
     312 -> 313        0.70711

 Excited State   3:      Singlet-A      1.9112 eV  648.74 nm  f=0.3965  <S**2>=0.000
     309 -> 316        0.17707
     311 -> 313        0.69114
     311 <- 313       -0.10569

 Excited State   4:      Singlet-A      2.1473 eV  577.39 nm  f=0.0000  <S**2>=0.000
     311 -> 314        0.70711

 Excited State   5:      Singlet-A      2.2558 eV  549.64 nm  f=0.0512  <S**2>=0.000
     310 -> 314        0.62868
     312 -> 315       -0.31572

 The electronic state is 1-A.
 Alpha  occ. eigenvalues --  -46.93479 -46.92638 -19.26354 -19.25235 -19.20601
 Alpha  occ. eigenvalues --  -19.20552 -19.19937 -19.19545 -19.19544 -19.18989
 Alpha  occ. eigenvalues --  -14.41968 -14.41851 -14.41573 -14.41324 -14.40032
 Alpha  occ. eigenvalues --  -14.39904 -14.39221 -14.39079 -10.36878 -10.36600
 Alpha  occ. eigenvalues --  -10.32937 -10.32710 -10.32686 -10.32661 -10.29634
 Alpha  occ. eigenvalues --  -10.29584 -10.29131 -10.29086 -10.29083 -10.28750
 Alpha  occ. eigenvalues --  -10.28699 -10.28571 -10.28525 -10.28507 -10.28107
 Alpha  occ. eigenvalues --  -10.27961 -10.27917 -10.27820 -10.27653 -10.27649
 Alpha  occ. eigenvalues --  -10.27604 -10.27335 -10.26882 -10.26763 -10.26727
 Alpha  occ. eigenvalues --  -10.26646 -10.26617 -10.26581 -10.26508 -10.26303
 Alpha  occ. eigenvalues --  -10.26151 -10.25914 -10.25876 -10.25772 -10.25744
 Alpha  occ. eigenvalues --  -10.25610 -10.25571 -10.25489 -10.25420 -10.25390
 Alpha  occ. eigenvalues --  -10.25372 -10.25244 -10.25175 -10.25167 -10.25080
 Alpha  occ. eigenvalues --  -10.24965 -10.24961 -10.24798 -10.24725 -10.24479
 Alpha  occ. eigenvalues --  -10.24404 -10.24219 -10.24165 -10.24076 -10.24057
 Alpha  occ. eigenvalues --  -10.24054 -10.24014 -10.23721 -10.23695 -10.23335
 Alpha  occ. eigenvalues --  -10.23230 -10.23123 -10.23034 -10.22999 -10.22940
 Alpha  occ. eigenvalues --  -10.22658  -3.15539  -3.14627  -1.88367  -1.87911
 Alpha  occ. eigenvalues --   -1.87765  -1.87470  -1.86990  -1.86849  -1.10778
 Alpha  occ. eigenvalues --   -1.10770  -1.05091  -1.04472  -1.04151  -1.03909
 Alpha  occ. eigenvalues --   -1.02325  -1.02086  -1.01421  -0.99766  -0.99450
 Alpha  occ. eigenvalues --   -0.98725  -0.98592  -0.98051  -0.97435  -0.96316
 Alpha  occ. eigenvalues --   -0.87869  -0.86823  -0.84193  -0.83401  -0.83202
 Alpha  occ. eigenvalues --   -0.83097  -0.82897  -0.82649  -0.82299  -0.81713
 Alpha  occ. eigenvalues --   -0.81252  -0.81128  -0.80398  -0.79914  -0.79213
 Alpha  occ. eigenvalues --   -0.78946  -0.78213  -0.77678  -0.77194  -0.76684
 Alpha  occ. eigenvalues --   -0.76047  -0.75878  -0.75481  -0.75137  -0.74805
 Alpha  occ. eigenvalues --   -0.74129  -0.72857  -0.72341  -0.72006  -0.71675
 Alpha  occ. eigenvalues --   -0.71473  -0.71356  -0.70966  -0.70152  -0.69810
 Alpha  occ. eigenvalues --   -0.69309  -0.67763  -0.66939  -0.66908  -0.66651
 Alpha  occ. eigenvalues --   -0.64184  -0.64033  -0.63650  -0.63606  -0.63085
 Alpha  occ. eigenvalues --   -0.62842  -0.62091  -0.61832  -0.61333  -0.60188
 Alpha  occ. eigenvalues --   -0.60019  -0.59813  -0.59475  -0.59435  -0.59223
 Alpha  occ. eigenvalues --   -0.58942  -0.57685  -0.57125  -0.55151  -0.54913
 Alpha  occ. eigenvalues --   -0.54828  -0.54067  -0.53998  -0.53499  -0.53381
 Alpha  occ. eigenvalues --   -0.53203  -0.52763  -0.52505  -0.52113  -0.51692
 Alpha  occ. eigenvalues --   -0.51043  -0.50556  -0.50434  -0.50164  -0.50094
 Alpha  occ. eigenvalues --   -0.49629  -0.49528  -0.49449  -0.49084  -0.49031
 Alpha  occ. eigenvalues --   -0.48532  -0.48296  -0.48123  -0.47928  -0.47673
 Alpha  occ. eigenvalues --   -0.47553  -0.47392  -0.46981  -0.46916  -0.46638
 Alpha  occ. eigenvalues --   -0.46476  -0.46324  -0.46313  -0.46215  -0.46118
 Alpha  occ. eigenvalues --   -0.45771  -0.45656  -0.45651  -0.45401  -0.45231
 Alpha  occ. eigenvalues --   -0.44680  -0.44534  -0.44440  -0.44283  -0.44096
 Alpha  occ. eigenvalues --   -0.43964  -0.43732  -0.43504  -0.43475  -0.43260
 Alpha  occ. eigenvalues --   -0.43242  -0.43202  -0.43165  -0.43115  -0.42930
 Alpha  occ. eigenvalues --   -0.42757  -0.42626  -0.42343  -0.42341  -0.42197
 Alpha  occ. eigenvalues --   -0.42085  -0.42002  -0.41910  -0.41713  -0.41604
 Alpha  occ. eigenvalues --   -0.41371  -0.41337  -0.41115  -0.40879  -0.40796
 Alpha  occ. eigenvalues --   -0.40609  -0.40603  -0.40312  -0.40253  -0.40143
 Alpha  occ. eigenvalues --   -0.39944  -0.39684  -0.39500  -0.39301  -0.39040
 Alpha  occ. eigenvalues --   -0.38830  -0.38748  -0.38418  -0.38250  -0.38162
 Alpha  occ. eigenvalues --   -0.38014  -0.37938  -0.37737  -0.37711  -0.37682
 Alpha  occ. eigenvalues --   -0.37651  -0.37093  -0.37070  -0.37063  -0.36987
 Alpha  occ. eigenvalues --   -0.36885  -0.36872  -0.36856  -0.36502  -0.36426
 Alpha  occ. eigenvalues --   -0.36328  -0.36163  -0.35833  -0.35664  -0.35617
 Alpha  occ. eigenvalues --   -0.35367  -0.34920  -0.34730  -0.34476  -0.34131
 Alpha  occ. eigenvalues --   -0.33842  -0.33288  -0.32858  -0.32718  -0.32522
 Alpha  occ. eigenvalues --   -0.32148  -0.31994  -0.31735  -0.31562  -0.31476
 Alpha  occ. eigenvalues --   -0.31377  -0.31338  -0.30079  -0.29631  -0.29438
 Alpha  occ. eigenvalues --   -0.29380  -0.29114  -0.29016  -0.27458  -0.26874
 Alpha  occ. eigenvalues --   -0.26604  -0.26334  -0.26173  -0.25947  -0.25916
 Alpha  occ. eigenvalues --   -0.25651  -0.25434  -0.25088  -0.21438  -0.21296
 Alpha  occ. eigenvalues --   -0.19207  -0.18661
 Alpha virt. eigenvalues --   -0.11451  -0.11062  -0.05790  -0.05552  -0.04801
 Alpha virt. eigenvalues --   -0.04448  -0.02676  -0.02271  -0.01473  -0.00866
 Alpha virt. eigenvalues --    0.00071   0.00151   0.00496   0.00806   0.01046

 Mulliken charges:
               1
     1  Mg  12.003031
     2  C    6.019943
     3  C    5.980627
     4  C    5.996745
     5  C    6.016324
     6  N    7.002019
     7  C    5.964822
     8  C    6.011897
     9  C    5.989826
    10  C    6.034694
    11  C    5.999054
    12  C    6.002438
    13  C    6.003972
    14  H    0.991629
    15  N    6.992520
    16  C    6.035821
    17  C    6.021482
    18  C    6.016641
    19  C    6.024123
    20  C    5.999944
    21  C    6.012135
    22  O    8.030232
    23  C    5.995719
    24  N    7.003190
    25  C    6.025353
    26  C    5.991069
    27  C    6.010602
    28  C    5.967680
    29  C    5.998938
    30  C    6.002183
    31  C    6.004241
    32  N    7.002129
    33  C    5.957555
    34  C    5.973709
    35  C    5.996993
    36  C    5.969402
    37  C    6.001364
    38  C    5.982358
    39  O    7.973466
    40  C    5.997956
    41  C    5.996943
    42  O    7.995619
    43  O    7.998338
    44  C    6.001446
    45  H    1.007364
    46  H    1.006847
    47  H    0.991886
    48  H    0.998817
    49  H    1.000799
    50  H    1.013588
    51  H    1.000273
    52  H    0.999002
    53  H    0.988055
    54  H    1.005030
    55  H    0.996450
    56  H    1.003222
    57  H    1.019382
    58  H    1.014293
    59  H    1.012447
    60  H    1.008674
    61  H    1.013708
    62  H    1.007683
    63  H    1.000122
    64  H    0.997687
    65  H    0.997862
    66  H    0.996937
    67  H    1.008939
    68  H    0.990743
    69  H    1.004399
    70  H    1.005387
    71  H    0.991601
    72  H    0.993481
    73  H    0.985600
    74  H    0.982421
    75  H    0.980740
    76  H    0.992720
    77  H    0.995705
    78  H    0.998648
    79  H    0.993317
    80  Mg  12.000024
    81  C    6.000103
    82  C    6.000034
    83  C    5.999827
    84  C    5.999971
    85  N    6.999978
    86  C    5.999818
    87  C    6.000051
    88  C    5.999967
    89  C    6.000045
    90  C    5.999992
    91  C    5.999987
    92  C    6.000058
    93  H    0.999920
    94  N    6.999992
    95  C    6.000123
    96  C    6.000184
    97  C    6.000019
    98  C    6.000240
    99  C    5.999959
   100  C    6.000029
   101  O    8.000107
   102  C    5.999977
   103  N    7.000044
   104  C    6.000162
   105  C    5.999959
   106  C    6.000002
   107  C    5.999942
   108  C    5.999990
   109  C    6.000035
   110  C    6.000000
   111  N    6.999958
   112  C    5.999912
   113  C    5.999853
   114  C    5.999958
   115  C    5.999884
   116  C    6.000028
   117  C    5.999915
   118  O    7.999788
   119  C    6.000020
   120  C    5.999987
   121  O    7.999925
   122  O    8.000030
   123  C    6.000016
   124  H    1.000032
   125  H    1.000069
   126  H    0.999980
   127  H    0.999996
   128  H    1.000010
   129  H    1.000054
   130  H    1.000000
   131  H    1.000023
   132  H    0.999989
   133  H    0.999973
   134  H    1.000002
   135  H    0.999986
   136  H    1.000086
   137  H    1.000091
   138  H    1.000104
   139  H    1.000058
   140  H    1.000035
   141  H    1.000083
   142  H    1.000012
   143  H    1.000012
   144  H    1.000001
   145  H    1.000045
   146  H    1.000019
   147  H    0.999994
   148  H    0.999951
   149  H    0.999976
   150  H    0.999993
   151  H    1.000007
   152  H    0.999918
   153  H    0.999918
   154  H    0.999898
   155  H    0.999926
   156  H    0.999964
   157  H    1.000001
   158  H    0.999980
 Sum of Mulliken charges = 624.00000

 Dipole moment (field-independent basis, Debye):
    X=             -7.3939    Y=              6.3624    Z=             -3.5070  Tot=             10.3657
 Quadrupole moment (field-independent basis, Debye-Ang):
   XX=           -378.4022   YY=              8.6073   ZZ=             -0.7369
   XY=            157.7394   XZ=            -92.7487   YZ=             -3.7221

 Normal termination of Gaussian 16 at Wed Oct 13 22:18:51 2021.
