 Gaussian 16, Revision A.03,
 Gaussian 16:  ES64L-G16RevA.03 25-Dec-2016

 --------------------------------------------------------
 #p PBE1PBE/Def2SVP td=(nstates=5) density=(transition=1)
 --------------------------------------------------------

 --------------------------------
 TDDFT excited states in gaussian
 --------------------------------
 Symbolic Z-matrix:
 Charge =  0 Multiplicity = 1

                         Standard orientation:
 ---------------------------------------------------------------------
 Center     Atomic      Atomic             Coordinates (Angstroms)
 Number     Number       Type             X           Y           Z
 ---------------------------------------------------------------------
      1         12           0       25.303245   -0.707929    0.505427
      2          6           0       25.619246    2.143930   -1.669255
      3          6           0       24.639261    1.496105    3.026379
      4          6           0       25.311989   -3.343784    2.579953
      5          6           0       26.454446   -2.650144   -2.034986
      6          7           0       25.096102    1.658649    0.623977
      7          6           0       25.235997    2.524188   -0.421826
      8          6           0       24.820094    3.862220    0.059873
      9          6           0       24.635457    3.706467    1.594806
     10          6           0       24.837770    2.188627    1.855013
     11          6           0       25.678786    4.549265    2.395189
     12          6           0       23.616925    4.463402   -0.622563
     13          6           0       23.265466    5.918944   -0.360234
     14          1           0       23.016426    6.764626   -1.537829
     15          7           0       24.910352   -0.904478    2.473505
     16          6           0       24.747998    0.162577    3.399692
     17          6           0       24.405619   -0.455596    4.694394
     18          6           0       24.691944   -1.811383    4.557427
     19          6           0       25.057346   -2.066473    3.152234
     20          6           0       24.029647    0.390101    5.893118
     21          6           0       24.584401   -2.950296    5.594362
     22          8           0       25.075543   -4.084097    5.439458
     23          6           0       23.823289   -2.661844    6.823529
     24          7           0       25.875317   -2.741417    0.341183
     25          6           0       25.794288   -3.659529    1.282253
     26          6           0       26.277686   -5.061755    0.820567
     27          6           0       26.384621   -4.840572   -0.689844
     28          6           0       26.186055   -3.347167   -0.812462
     29          6           0       27.645742   -5.445053    1.479261
     30          6           0       25.428556   -5.619940   -1.564434
     31          6           0       26.014433   -6.240609   -2.845110
     32          7           0       25.816464   -0.346278   -1.454544
     33          6           0       26.262707   -1.270301   -2.373953
     34          6           0       26.479526   -0.643755   -3.712866
     35          6           0       26.241619    0.676647   -3.388495
     36          6           0       25.902334    0.834840   -2.039363
     37          6           0       26.720577   -1.311938   -5.028322
     38          6           0       26.224108    2.005842   -3.981290
     39          8           0       26.422644    2.304577   -5.153488
     40          6           0       25.816962    3.031912   -2.899042
     41          6           0       26.801872    4.082531   -2.940016
     42          8           0       27.969244    4.040427   -2.482204
     43          8           0       26.243832    5.233729   -3.406709
     44          6           0       26.983622    6.469341   -3.270057
     45          1           0       24.341434    2.180104    3.823490
     46          1           0       25.476239   -4.167795    3.277215
     47          1           0       27.029719   -3.303399   -2.694071
     48          1           0       25.699628    4.472281   -0.141697
     49          1           0       23.646893    4.021909    1.928930
     50          1           0       25.408849    5.236459    3.197683
     51          1           0       26.170386    5.152831    1.632374
     52          1           0       26.529890    3.986728    2.779892
     53          1           0       22.698441    3.963024   -0.315323
     54          1           0       23.565542    4.187497   -1.675449
     55          1           0       24.065973    6.415514    0.186086
     56          1           0       22.262665    5.896553    0.065579
     57          1           0       24.536647    0.109421    6.816068
     58          1           0       22.961072    0.407001    6.106556
     59          1           0       24.307964    1.441597    5.818255
     60          1           0       22.855049   -2.249324    6.539553
     61          1           0       24.439294   -1.901301    7.302070
     62          1           0       23.628493   -3.624217    7.295375
     63          1           0       25.480452   -5.757319    1.084914
     64          1           0       27.363872   -5.020357   -1.132599
     65          1           0       28.449544   -5.478206    0.744393
     66          1           0       27.610542   -6.445050    1.911575
     67          1           0       27.843367   -4.658561    2.207757
     68          1           0       24.560658   -5.024552   -1.846138
     69          1           0       24.917085   -6.281482   -0.866000
     70          1           0       25.410816   -7.119369   -3.070013
     71          1           0       27.090657   -6.406134   -2.786829
     72          1           0       25.862244   -5.429085   -3.556394
     73          1           0       25.834886   -1.393505   -5.658677
     74          1           0       27.242184   -2.237512   -4.786395
     75          1           0       27.538435   -0.804400   -5.541312
     76          1           0       24.918193    3.501166   -3.299086
     77          1           0       27.903255    6.387154   -2.690116
     78          1           0       26.336722    7.265983   -2.903676
     79          1           0       27.304180    6.862227   -4.235287
     80         12           0      -25.003650   -0.636715   -0.295160
     81          6           0      -26.351509    1.935597    1.716398
     82          6           0      -23.937475    1.593182   -2.478112
     83          6           0      -24.581106   -3.203329   -2.510284
     84          6           0      -27.139194   -2.943582    1.652404
     85          7           0      -25.205632    1.530251   -0.357204
     86          6           0      -25.558416    2.357710    0.647854
     87          6           0      -25.099619    3.789315    0.307876
     88          6           0      -24.334477    3.675929   -0.971595
     89          6           0      -24.515820    2.174562   -1.349309
     90          6           0      -24.739114    4.779243   -2.032843
     91          6           0      -24.355549    4.616242    1.409199
     92          6           0      -23.186457    5.635690    1.065748
     93          1           0      -23.191193    7.011724    1.747603
     94          7           0      -24.115406   -0.783558   -2.136495
     95          6           0      -23.725071    0.297741   -2.893788
     96          6           0      -23.109357   -0.206784   -4.088126
     97          6           0      -23.302610   -1.640248   -4.179330
     98          6           0      -24.067520   -1.922730   -2.944732
     99          6           0      -22.562550    0.767236   -5.051471
    100          6           0      -22.798912   -2.665072   -5.225495
    101          8           0      -23.108386   -3.807584   -5.139529
    102          6           0      -21.728579   -2.288369   -6.197420
    103          7           0      -25.824266   -2.765175   -0.408939
    104          6           0      -25.338294   -3.569019   -1.381297
    105          6           0      -25.843029   -5.040040   -1.233580
    106          6           0      -26.629904   -4.989600    0.111705
    107          6           0      -26.564866   -3.491878    0.500812
    108          6           0      -26.686852   -5.556590   -2.368469
    109          6           0      -26.135415   -5.896005    1.292765
    110          6           0      -24.944236   -5.474474    2.084903
    111          7           0      -26.449776   -0.647670    1.346683
    112          6           0      -27.135574   -1.627240    2.005928
    113          6           0      -27.806221   -1.054662    3.147615
    114          6           0      -27.553523    0.341851    3.107693
    115          6           0      -26.758562    0.539699    1.960473
    116          6           0      -28.748344   -1.726460    4.083171
    117          6           0      -27.812551    1.612159    3.723017
    118          8           0      -28.427769    1.951404    4.727353
    119          6           0      -27.006334    2.699940    2.880932
    120          6           0      -27.855163    3.898921    2.493052
    121          8           0      -28.798769    3.840473    1.747579
    122          8           0      -27.338121    5.036391    3.092467
    123          6           0      -28.113312    6.243898    2.805478
    124          1           0      -23.377834    2.250889   -3.147031
    125          1           0      -24.360856   -3.980101   -3.245154
    126          1           0      -27.686104   -3.638188    2.293245
    127          1           0      -26.083977    4.245891    0.204437
    128          1           0      -23.292539    3.908608   -0.750049
    129          1           0      -25.409145    5.501093   -1.566127
    130          1           0      -25.099667    4.262883   -2.922450
    131          1           0      -23.887678    5.408263   -2.293295
    132          1           0      -23.923982    3.892098    2.100624
    133          1           0      -25.049657    5.187589    2.026099
    134          1           0      -23.246214    5.756935   -0.016023
    135          1           0      -22.228983    5.160537    1.279565
    136          1           0      -22.767510    0.348715   -6.036573
    137          1           0      -21.481909    0.777711   -4.914340
    138          1           0      -22.878681    1.810476   -5.060906
    139          1           0      -22.306964   -1.942379   -7.053082
    140          1           0      -21.062541   -3.139825   -6.340420
    141          1           0      -21.130215   -1.422201   -5.914047
    142          1           0      -25.024671   -5.731761   -1.032793
    143          1           0      -27.709005   -5.140125    0.110667
    144          1           0      -26.657421   -4.883247   -3.226100
    145          1           0      -27.740131   -5.633958   -2.097510
    146          1           0      -26.262121   -6.525693   -2.629099
    147          1           0      -25.919662   -6.897266    0.919743
    148          1           0      -26.996348   -6.106501    1.927665
    149          1           0      -24.330537   -4.795172    1.492960
    150          1           0      -24.200893   -6.200564    2.414800
    151          1           0      -25.354894   -5.049302    3.001254
    152          1           0      -29.633238   -2.154717    3.613248
    153          1           0      -29.238892   -0.917337    4.624844
    154          1           0      -28.238583   -2.444992    4.725604
    155          1           0      -26.180071    3.011987    3.520011
    156          1           0      -27.288209    6.636412    2.211946
    157          1           0      -28.215341    6.712508    3.784016
    158          1           0      -29.044250    6.041584    2.275393
 ---------------------------------------------------------------------

 SCF Done:  E(RPBE1PBE) =  -4067.37303976     A.U. after   16 cycles

 Excitation energies and oscillator strengths:

 Excited State   1:      Singlet-A      1.8611 eV  666.20 nm  f=0.3688  <S**2>=0.000
     310 -> 316        0.17930
     311 -> 313        0.69127
     311 <- 313       -0.10765
 This state for optimization and/or second-order correction.
 Total Energy, E(TD-HF/TD-DFT) =  -4067.30464643
 Copying the excited state density for this state as the 1-particle RhoCI density.

 Excited State   2:      Singlet-A      1.9171 eV  646.72 nm  f=0.3715  <S**2>=0.000
     309 -> 315        0.19070
     312 -> 314        0.68791

 Excited State   3:      Singlet-A      1.9800 eV  626.19 nm  f=0.0000  <S**2>=0.000
     312 -> 313        0.70711

 Excited State   4:      Singlet-A      2.1007 eV  590.20 nm  f=0.0000  <S**2>=0.000
     311 -> 314        0.70711

 Excited State   5:      Singlet-A      2.1921 eV  565.59 nm  f=0.1040  <S**2>=0.000
     310 -> 313        0.65383
     311 -> 316       -0.25419

 The electronic state is 1-A.
 Alpha  occ. eigenvalues --  -46.93408 -46.91930 -19.25848 -19.25473 -19.20277
 Alpha  occ. eigenvalues --  -19.19708 -19.19243 -19.19116 -19.18927 -19.18885
 Alpha  occ. eigenvalues --  -14.41769 -14.41437 -14.41263 -14.40647 -14.39452
 Alpha  occ. eigenvalues --  -14.39290 -14.39150 -14.38531 -10.36155 -10.36150
 Alpha  occ. eigenvalues --  -10.32789 -10.32360 -10.31993 -10.31674 -10.29302
 Alpha  occ. eigenvalues --  -10.28895 -10.28565 -10.28537 -10.28485 -10.28466
 Alpha  occ. eigenvalues --  -10.28433 -10.28419 -10.28289 -10.28245 -10.28211
 Alpha  occ. eigenvalues --  -10.28178 -10.28069 -10.27848 -10.27168 -10.27044
 Alpha  occ. eigenvalues --  -10.26808 -10.26666 -10.26373 -10.26278 -10.26155
 Alpha  occ. eigenvalues --  -10.26111 -10.26086 -10.25939 -10.25854 -10.25836
 Alpha  occ. eigenvalues --  -10.25803 -10.25615 -10.25604 -10.25512 -10.25468
 Alpha  occ. eigenvalues --  -10.25412 -10.25311 -10.25252 -10.25095 -10.25044
 Alpha  occ. eigenvalues --  -10.24993 -10.24974 -10.24951 -10.24723 -10.24528
 Alpha  occ. eigenvalues --  -10.24429 -10.24417 -10.24352 -10.24021 -10.23994
 Alpha  occ. eigenvalues --  -10.23904 -10.23849 -10.23803 -10.23792 -10.23707
 Alpha  occ. eigenvalues --  -10.23622 -10.23515 -10.23510 -10.23439 -10.23353
 Alpha  occ. eigenvalues --  -10.23204 -10.22869 -10.22694 -10.22579 -10.22389
 Alpha  occ. eigenvalues --  -10.22379  -3.15301  -3.14113  -1.88112  -1.87683
 Alpha  occ. eigenvalues --   -1.87513  -1.86963  -1.86479  -1.86349  -1.11099
 Alpha  occ. eigenvalues --   -1.10919  -1.07602  -1.04259  -1.04015  -1.03749
 Alpha  occ. eigenvalues --   -1.03416  -1.00770  -1.00463  -0.99344  -0.98843
 Alpha  occ. eigenvalues --   -0.97799  -0.97710  -0.97143  -0.96841  -0.96494
 Alpha  occ. eigenvalues --   -0.87584  -0.86000  -0.84456  -0.83614  -0.83571
 Alpha  occ. eigenvalues --   -0.83165  -0.82810  -0.82565  -0.81895  -0.81709
 Alpha  occ. eigenvalues --   -0.81436  -0.81423  -0.81006  -0.80468  -0.79013
 Alpha  occ. eigenvalues --   -0.78370  -0.78284  -0.77970  -0.77245  -0.76779
 Alpha  occ. eigenvalues --   -0.76679  -0.76255  -0.75622  -0.75306  -0.75181
 Alpha  occ. eigenvalues --   -0.74781  -0.72969  -0.72600  -0.72066  -0.71793
 Alpha  occ. eigenvalues --   -0.71457  -0.71417  -0.70905  -0.70217  -0.69635
 Alpha  occ. eigenvalues --   -0.69040  -0.67498  -0.66818  -0.66442  -0.65890
 Alpha  occ. eigenvalues --   -0.64117  -0.63959  -0.63684  -0.63658  -0.62719
 Alpha  occ. eigenvalues --   -0.62530  -0.61342  -0.60968  -0.60884  -0.59883
 Alpha  occ. eigenvalues --   -0.59688  -0.59503  -0.59151  -0.58792  -0.58659
 Alpha  occ. eigenvalues --   -0.58529  -0.57173  -0.56288  -0.54956  -0.54547
 Alpha  occ. eigenvalues --   -0.54534  -0.54109  -0.54095  -0.53436  -0.53402
 Alpha  occ. eigenvalues --   -0.52953  -0.52887  -0.52571  -0.52263  -0.51959
 Alpha  occ. eigenvalues --   -0.51093  -0.50629  -0.50437  -0.50286  -0.50125
 Alpha  occ. eigenvalues --   -0.49931  -0.49624  -0.49189  -0.49000  -0.48647
 Alpha  occ. eigenvalues --   -0.48604  -0.48474  -0.48177  -0.47974  -0.47778
 Alpha  occ. eigenvalues --   -0.47764  -0.47500  -0.47431  -0.46973  -0.46680
 Alpha  occ. eigenvalues --   -0.46523  -0.46393  -0.46264  -0.45826  -0.45744
 Alpha  occ. eigenvalues --   -0.45512  -0.45454  -0.45387  -0.45190  -0.45067
 Alpha  occ. eigenvalues --   -0.44902  -0.44864  -0.44669  -0.44624  -0.44272
 Alpha  occ. eigenvalues --   -0.44155  -0.43885  -0.43668  -0.43649  -0.43402
 Alpha  occ. eigenvalues --   -0.43313  -0.43251  -0.43061  -0.43024  -0.42945
 Alpha  occ. eigenvalues --   -0.42604  -0.42426  -0.42335  -0.42050  -0.41934
 Alpha  occ. eigenvalues --   -0.41923  -0.41862  -0.41738  -0.41488  -0.41313
 Alpha  occ. eigenvalues --   -0.40996  -0.40880  -0.40789  -0.40517  -0.40421
 Alpha  occ. eigenvalues --   -0.40300  -0.40195  -0.39986  -0.39909  -0.39379
 Alpha  occ. eigenvalues --   -0.39362  -0.39341  -0.39067  -0.38884  -0.38798
 Alpha  occ. eigenvalues --   -0.38594  -0.38543  -0.38523  -0.38408  -0.38155
 Alpha  occ. eigenvalues --   -0.38122  -0.38060  -0.37835  -0.37713  -0.37498
 Alpha  occ. eigenvalues --   -0.37380  -0.37239  -0.37221  -0.36952  -0.36920
 Alpha  occ. eigenvalues --   -0.36744  -0.36623  -0.36497  -0.36443  -0.36406
 Alpha  occ. eigenvalues --   -0.36109  -0.36015  -0.35775  -0.35772  -0.35508
 Alpha  occ. eigenvalues --   -0.35074  -0.35020  -0.34930  -0.34104  -0.33918
 Alpha  occ. eigenvalues --   -0.33771  -0.33076  -0.32946  -0.32862  -0.32399
 Alpha  occ. eigenvalues --   -0.32156  -0.31989  -0.31099  -0.31023  -0.30897
 Alpha  occ. eigenvalues --   -0.30800  -0.30623  -0.29555  -0.29104  -0.28827
 Alpha  occ. eigenvalues --   -0.28693  -0.28610  -0.28217  -0.27200  -0.26551
 Alpha  occ. eigenvalues --   -0.26469  -0.26229  -0.25908  -0.25771  -0.25614
 Alpha  occ. eigenvalues --   -0.25434  -0.25409  -0.25039  -0.21040  -0.20779
 Alpha  occ. eigenvalues --   -0.18704  -0.18637
 Alpha virt. eigenvalues --   -0.11102  -0.10726  -0.05271  -0.05108  -0.03795
 Alpha virt. eigenvalues --   -0.03537  -0.01969  -0.01948  -0.01672  -0.00161
 Alpha virt. eigenvalues --    0.00304   0.00346   0.00948   0.01416   0.01700

 Mulliken charges:
               1
     1  Mg  12.000012
     2  C    6.000089
     3  C    5.999983
     4  C    5.999948
     5  C    5.999980
     6  N    7.000002
     7  C    5.999891
     8  C    6.000031
     9  C    5.999989
    10  C    6.000066
    11  C    5.999961
    12  C    6.000016
    13  C    6.000001
    14  H    0.999982
    15  N    6.999985
    16  C    6.000106
    17  C    6.000005
    18  C    6.000072
    19  C    6.000100
    20  C    5.999981
    21  C    6.000058
    22  O    8.000098
    23  C    5.999991
    24  N    6.999924
    25  C    6.000086
    26  C    5.999968
    27  C    6.000016
    28  C    5.999933
    29  C    6.000005
    30  C    6.000053
    31  C    5.999998
    32  N    7.000003
    33  C    5.999940
    34  C    5.999930
    35  C    6.000064
    36  C    5.999888
    37  C    5.999976
    38  C    5.999894
    39  O    7.999910
    40  C    5.999994
    41  C    5.999991
    42  O    8.000007
    43  O    7.999988
    44  C    6.000001
    45  H    1.000047
    46  H    1.000021
    47  H    0.999971
    48  H    1.000018
    49  H    0.999998
    50  H    1.000023
    51  H    1.000043
    52  H    1.000021
    53  H    0.999960
    54  H    1.000004
    55  H    1.000015
    56  H    0.999975
    57  H    1.000074
    58  H    1.000049
    59  H    1.000054
    60  H    1.000003
    61  H    1.000031
    62  H    1.000054
    63  H    0.999989
    64  H    1.000007
    65  H    1.000035
    66  H    1.000014
    67  H    0.999995
    68  H    0.999967
    69  H    0.999957
    70  H    0.999970
    71  H    1.000010
    72  H    1.000004
    73  H    0.999915
    74  H    0.999965
    75  H    0.999960
    76  H    0.999957
    77  H    1.000008
    78  H    0.999980
    79  H    0.999989
    80  Mg  12.000724
    81  C    6.024336
    82  C    5.993089
    83  C    5.983454
    84  C    6.000712
    85  N    7.014398
    86  C    5.965885
    87  C    6.005721
    88  C    5.988832
    89  C    6.030931
    90  C    6.000116
    91  C    6.001630
    92  C    5.997365
    93  H    1.002447
    94  N    6.993631
    95  C    6.035076
    96  C    6.020022
    97  C    6.016732
    98  C    6.026845
    99  C    5.994050
   100  C    6.013373
   101  O    8.024892
   102  C    5.995807
   103  N    6.998427
   104  C    6.027124
   105  C    5.989003
   106  C    6.003141
   107  C    5.974607
   108  C    5.999549
   109  C    6.004895
   110  C    6.006863
   111  N    7.001570
   112  C    5.971168
   113  C    5.962757
   114  C    6.001428
   115  C    5.968061
   116  C    6.002307
   117  C    5.985317
   118  O    7.972080
   119  C    5.997330
   120  C    5.996150
   121  O    7.996501
   122  O    7.998501
   123  C    6.001090
   124  H    1.009076
   125  H    1.004825
   126  H    0.988836
   127  H    1.002572
   128  H    1.004459
   129  H    1.011044
   130  H    0.996697
   131  H    1.002433
   132  H    1.002219
   133  H    1.004191
   134  H    0.993528
   135  H    0.998174
   136  H    1.016644
   137  H    1.019582
   138  H    1.018401
   139  H    1.008330
   140  H    1.012991
   141  H    1.003503
   142  H    1.001120
   143  H    1.001120
   144  H    0.992820
   145  H    1.008199
   146  H    1.000935
   147  H    0.989251
   148  H    1.001354
   149  H    0.990764
   150  H    0.992625
   151  H    1.006240
   152  H    0.978374
   153  H    0.987277
   154  H    0.980347
   155  H    0.993893
   156  H    0.994146
   157  H    0.998160
   158  H    0.997934
 Sum of Mulliken charges = 624.00000

 Dipole moment (field-independent basis, Debye):
    X=              5.4355    Y=              0.2817    Z=             -8.6539  Tot=             10.2232
 Quadrupole moment (field-independent basis, Debye-Ang):
   XX=           -277.4855   YY=             -2.4245   ZZ=              9.0205
   XY=            -10.5604   XZ=            219.1540   YZ=              5.7333

 Normal termination of Gaussian 16 at Fri Oct 15 04:35:52 2021.
