 Gaussian 16, Revision A.03,
 Gaussian 16:  ES64L-G16RevA.03 25-Dec-2016

 --------------------------------------------------------
 #p PBE1PBE/Def2SVP td=(nstates=5) density=(transition=1)
 --------------------------------------------------------

 --------------------------------
 TDDFT excited states in gaussian
 --------------------------------
 Symbolic Z-matrix:
 Charge =  0 Multiplicity = 1

                         Standard orientation:
 ---------------------------------------------------------------------
 Center     Atomic      Atomic             Coordinates (Angstroms)
 Number     Number       Type             X           Y           Z
 ---------------------------------------------------------------------
      1         12           0       25.791271    0.398428   -0.274627
      2          6           0       22.888496   -1.265647    0.236719
      3          6           0       27.561329   -2.284412    1.042191
      4          6           0       28.694020    2.065648   -0.780486
      5          6           0       24.012205    3.244220   -1.122822
      6          7           0       25.241501   -1.516202    0.407647
      7          6           0       23.993269   -2.019841    0.579849
      8          6           0       24.007419   -3.483016    0.938067
      9          6           0       25.478189   -3.711328    1.455966
     10          6           0       26.154367   -2.415108    0.900669
     11          6           0       25.750866   -4.008674    2.989587
     12          6           0       23.725935   -4.405837   -0.331943
     13          6           0       23.151145   -5.799252    0.059014
     14          1           0       23.451152   -6.448806    1.420345
     15          7           0       27.880882    0.015819    0.144318
     16          6           0       28.370993   -1.198149    0.693195
     17          6           0       29.798861   -1.138361    0.782152
     18          6           0       30.170219    0.152809    0.262609
     19          6           0       28.868363    0.780954   -0.162257
     20          6           0       30.668231   -2.258474    1.235222
     21          6           0       31.554890    0.774133    0.117606
     22          8           0       31.796435    1.963476   -0.242812
     23          6           0       32.782844   -0.059702    0.441720
     24          7           0       26.291210    2.377682   -0.795884
     25          6           0       27.579881    2.794289   -1.133431
     26          6           0       27.642990    4.137969   -1.915615
     27          6           0       26.044182    4.435311   -2.030422
     28          6           0       25.391111    3.307478   -1.318952
     29          6           0       28.422414    5.165138   -1.084433
     30          6           0       25.554533    4.653345   -3.431718
     31          6           0       24.843432    5.962705   -3.621116
     32          7           0       23.932799    1.008973   -0.335464
     33          6           0       23.293444    2.180210   -0.722374
     34          6           0       21.889619    2.027862   -0.617441
     35          6           0       21.634500    0.695002   -0.196667
     36          6           0       22.897196    0.068471   -0.136703
     37          6           0       20.819170    3.005206   -0.918859
     38          6           0       20.613429   -0.228344    0.247493
     39          8           0       19.413098   -0.162555    0.427321
     40          6           0       21.445188   -1.579001    0.472063
     41          6           0       20.995306   -2.327428    1.674834
     42          8           0       20.737157   -1.863476    2.756002
     43          8           0       20.848765   -3.643656    1.457402
     44          6           0       20.412440   -4.420784    2.652269
     45          1           0       27.998648   -3.097856    1.625087
     46          1           0       29.623740    2.637369   -0.812754
     47          1           0       23.378083    4.057132   -1.482502
     48          1           0       23.382975   -3.706006    1.803031
     49          1           0       25.920840   -4.521577    0.877498
     50          1           0       24.780531   -4.112682    3.475251
     51          1           0       26.350041   -3.289253    3.545477
     52          1           0       26.333658   -4.929258    3.026193
     53          1           0       24.689124   -4.461478   -0.839466
     54          1           0       23.007161   -3.878413   -0.959189
     55          1           0       23.525983   -6.434695   -0.743572
     56          1           0       22.078192   -5.744931   -0.123259
     57          1           0       30.894998   -3.016571    0.485512
     58          1           0       30.159014   -2.684606    2.098726
     59          1           0       31.579027   -1.921731    1.729464
     60          1           0       32.909353    0.005321    1.522292
     61          1           0       33.607131    0.456013   -0.050303
     62          1           0       32.695986   -1.108482    0.157240
     63          1           0       28.212036    3.930289   -2.821870
     64          1           0       25.826149    5.355517   -1.487355
     65          1           0       28.670699    4.864550   -0.066327
     66          1           0       27.917195    6.128371   -1.151332
     67          1           0       29.396726    5.255062   -1.565647
     68          1           0       24.817511    3.915788   -3.749652
     69          1           0       26.327545    4.596398   -4.198184
     70          1           0       25.194165    6.518630   -4.490149
     71          1           0       24.974648    6.614410   -2.757716
     72          1           0       23.787236    5.691797   -3.625945
     73          1           0       21.068016    4.054132   -0.755102
     74          1           0       20.118230    2.864457   -0.095570
     75          1           0       20.436532    2.840124   -1.926109
     76          1           0       21.062489   -2.107490   -0.401542
     77          1           0       19.345844   -4.304927    2.849936
     78          1           0       21.058437   -4.243473    3.512287
     79          1           0       20.554659   -5.480058    2.436833
     80         12           0      -26.117680   -0.292269    0.362629
     81          6           0      -22.814563   -1.345255   -0.277067
     82          6           0      -24.899621    1.511937    2.983381
     83          6           0      -29.135568    1.305302    0.509487
     84          6           0      -26.981202   -1.849627   -2.724275
     85          7           0      -24.025135    0.158365    1.175036
     86          6           0      -22.846441   -0.469696    0.891011
     87          6           0      -21.668715    0.110142    1.693278
     88          6           0      -22.530626    0.698970    2.915127
     89          6           0      -23.915790    0.796976    2.325798
     90          6           0      -22.527724   -0.151944    4.213382
     91          6           0      -20.860955    1.264560    0.946137
     92          6           0      -19.418822    1.532001    1.348422
     93          1           0      -18.996476    2.820379    2.086143
     94          7           0      -27.012621    1.220373    1.601413
     95          6           0      -26.354730    1.704321    2.694662
     96          6           0      -27.208110    2.458818    3.501504
     97          6           0      -28.489315    2.412370    2.833270
     98          6           0      -28.280409    1.655236    1.566756
     99          6           0      -26.810327    3.130654    4.810249
    100          6           0      -29.725596    3.074624    3.398156
    101          8           0      -29.655807    3.686207    4.495338
    102          6           0      -31.149775    2.957106    2.749599
    103          7           0      -27.749173   -0.316762   -0.928569
    104          6           0      -28.924741    0.420497   -0.621479
    105          6           0      -30.061346   -0.041910   -1.490161
    106          6           0      -29.372712   -0.737049   -2.684659
    107          6           0      -27.975964   -1.071309   -2.084481
    108          6           0      -31.106661   -1.031308   -0.927315
    109          6           0      -29.207230    0.248231   -3.958207
    110          6           0      -30.378192    0.397904   -4.917733
    111          7           0      -25.120235   -1.534150   -1.085611
    112          6           0      -25.598019   -2.090423   -2.262685
    113          6           0      -24.600154   -2.744025   -2.960852
    114          6           0      -23.449129   -2.531291   -2.182971
    115          6           0      -23.822280   -1.766640   -1.064785
    116          6           0      -24.789004   -3.483262   -4.247848
    117          6           0      -22.130317   -2.865515   -2.050860
    118          8           0      -21.451266   -3.643961   -2.690945
    119          6           0      -21.616247   -1.903040   -0.959625
    120          6           0      -20.775406   -0.901931   -1.694165
    121          8           0      -21.176066   -0.217682   -2.583743
    122          8           0      -19.457274   -0.951079   -1.237051
    123          6           0      -18.585695   -0.141732   -2.015691
    124          1           0      -24.596076    1.933693    3.944066
    125          1           0      -30.174801    1.624053    0.617918
    126          1           0      -27.351253   -2.415754   -3.581345
    127          1           0      -21.041073   -0.665074    2.131559
    128          1           0      -22.075276    1.653326    3.178169
    129          1           0      -21.775809    0.351768    4.821485
    130          1           0      -22.197036   -1.175340    4.036569
    131          1           0      -23.489075   -0.106590    4.725354
    132          1           0      -21.346065    2.228340    1.101013
    133          1           0      -20.958791    1.065600   -0.121298
    134          1           0      -18.870842    1.474128    0.406841
    135          1           0      -19.091703    0.684384    1.950404
    136          1           0      -27.524183    3.175641    5.633421
    137          1           0      -26.518163    4.097041    4.400016
    138          1           0      -25.999490    2.574775    5.281087
    139          1           0      -31.463715    1.913647    2.751911
    140          1           0      -30.985205    3.376014    1.757052
    141          1           0      -31.920414    3.609417    3.160121
    142          1           0      -30.546955    0.859939   -1.861511
    143          1           0      -29.904318   -1.633256   -3.004725
    144          1           0      -31.096218   -2.023173   -1.378855
    145          1           0      -32.041313   -0.525392   -0.684403
    146          1           0      -30.742641   -1.245364    0.077431
    147          1           0      -28.354229   -0.223390   -4.445709
    148          1           0      -28.931599    1.253010   -3.637420
    149          1           0      -30.600992    1.456786   -5.046192
    150          1           0      -31.250506   -0.106166   -4.500775
    151          1           0      -30.131192    0.016416   -5.908808
    152          1           0      -24.008906   -3.120955   -4.916759
    153          1           0      -25.734552   -3.243690   -4.735878
    154          1           0      -24.671768   -4.561594   -4.138979
    155          1           0      -21.003916   -2.478053   -0.265850
    156          1           0      -18.142199   -0.741653   -2.809895
    157          1           0      -17.692560    0.177691   -1.477334
    158          1           0      -19.096997    0.709035   -2.462854
 ---------------------------------------------------------------------

 SCF Done:  E(RPBE1PBE) =  -4067.35570709     A.U. after   16 cycles

 Excitation energies and oscillator strengths:

 Excited State   1:      Singlet-A      1.7600 eV  704.45 nm  f=0.0000  <S**2>=0.000
     312 -> 313        0.70711
 This state for optimization and/or second-order correction.
 Total Energy, E(TD-HF/TD-DFT) =  -4067.29102759
 Copying the excited state density for this state as the 1-particle RhoCI density.

 Excited State   2:      Singlet-A      1.8022 eV  687.94 nm  f=0.3733  <S**2>=0.000
     310 -> 316       -0.16358
     312 -> 314        0.69742
     312 <- 314       -0.11962

 Excited State   3:      Singlet-A      1.8621 eV  665.84 nm  f=0.3845  <S**2>=0.000
     309 -> 315       -0.18180
     311 -> 313        0.68867
     311 <- 313       -0.10551

 Excited State   4:      Singlet-A      2.1541 eV  575.57 nm  f=0.1183  <S**2>=0.000
     309 -> 313        0.65689
     311 -> 315        0.24321

 Excited State   5:      Singlet-A      2.1651 eV  572.64 nm  f=0.0000  <S**2>=0.000
     311 -> 314        0.70711

 The electronic state is 1-A.
 Alpha  occ. eigenvalues --  -46.93682 -46.90563 -19.25997 -19.25775 -19.21066
 Alpha  occ. eigenvalues --  -19.19432 -19.18975 -19.18722 -19.18344 -19.18148
 Alpha  occ. eigenvalues --  -14.42489 -14.42326 -14.42287 -14.41298 -14.39430
 Alpha  occ. eigenvalues --  -14.39131 -14.38822 -14.38493 -10.36664 -10.35577
 Alpha  occ. eigenvalues --  -10.32336 -10.32264 -10.32218 -10.30446 -10.30099
 Alpha  occ. eigenvalues --  -10.30086 -10.29441 -10.29274 -10.29114 -10.28668
 Alpha  occ. eigenvalues --  -10.28525 -10.28455 -10.28345 -10.28243 -10.28182
 Alpha  occ. eigenvalues --  -10.27908 -10.27729 -10.27675 -10.27557 -10.27034
 Alpha  occ. eigenvalues --  -10.26867 -10.26676 -10.26567 -10.26515 -10.26323
 Alpha  occ. eigenvalues --  -10.26205 -10.26082 -10.26004 -10.25954 -10.25864
 Alpha  occ. eigenvalues --  -10.25823 -10.25819 -10.25685 -10.25652 -10.25595
 Alpha  occ. eigenvalues --  -10.25485 -10.25485 -10.25481 -10.25461 -10.25449
 Alpha  occ. eigenvalues --  -10.25362 -10.25355 -10.25240 -10.25216 -10.25202
 Alpha  occ. eigenvalues --  -10.25070 -10.24999 -10.24911 -10.24566 -10.24304
 Alpha  occ. eigenvalues --  -10.24162 -10.24042 -10.23980 -10.23653 -10.23647
 Alpha  occ. eigenvalues --  -10.23541 -10.23271 -10.23269 -10.23224 -10.23102
 Alpha  occ. eigenvalues --  -10.23094 -10.23002 -10.22993 -10.22983 -10.22562
 Alpha  occ. eigenvalues --  -10.21861  -3.15561  -3.12992  -1.88399  -1.87927
 Alpha  occ. eigenvalues --   -1.87779  -1.85826  -1.85347  -1.85263  -1.12343
 Alpha  occ. eigenvalues --   -1.12077  -1.04872  -1.04809  -1.04277  -1.02085
 Alpha  occ. eigenvalues --   -1.02075  -1.02046  -1.00320  -0.99332  -0.99096
 Alpha  occ. eigenvalues --   -0.98585  -0.98233  -0.97347  -0.96512  -0.96044
 Alpha  occ. eigenvalues --   -0.88706  -0.87728  -0.84017  -0.83209  -0.83097
 Alpha  occ. eigenvalues --   -0.83014  -0.82972  -0.82830  -0.82021  -0.81916
 Alpha  occ. eigenvalues --   -0.81526  -0.81409  -0.80711  -0.80204  -0.78656
 Alpha  occ. eigenvalues --   -0.78638  -0.78077  -0.77905  -0.77155  -0.76754
 Alpha  occ. eigenvalues --   -0.76141  -0.75881  -0.75387  -0.74997  -0.74752
 Alpha  occ. eigenvalues --   -0.74572  -0.72602  -0.72381  -0.72106  -0.71688
 Alpha  occ. eigenvalues --   -0.71641  -0.71203  -0.70837  -0.70262  -0.70033
 Alpha  occ. eigenvalues --   -0.69588  -0.68056  -0.67337  -0.66680  -0.66291
 Alpha  occ. eigenvalues --   -0.63901  -0.63501  -0.63050  -0.62902  -0.62777
 Alpha  occ. eigenvalues --   -0.62573  -0.61629  -0.61106  -0.60667  -0.60272
 Alpha  occ. eigenvalues --   -0.59788  -0.59782  -0.59317  -0.59272  -0.58756
 Alpha  occ. eigenvalues --   -0.58673  -0.57338  -0.56896  -0.55009  -0.54875
 Alpha  occ. eigenvalues --   -0.54709  -0.54441  -0.54127  -0.53763  -0.53541
 Alpha  occ. eigenvalues --   -0.53539  -0.52997  -0.52699  -0.52534  -0.52308
 Alpha  occ. eigenvalues --   -0.51113  -0.50680  -0.50172  -0.49866  -0.49841
 Alpha  occ. eigenvalues --   -0.49739  -0.49647  -0.49577  -0.48515  -0.48431
 Alpha  occ. eigenvalues --   -0.48144  -0.47958  -0.47796  -0.47606  -0.47473
 Alpha  occ. eigenvalues --   -0.47323  -0.47210  -0.47090  -0.46893  -0.46670
 Alpha  occ. eigenvalues --   -0.46668  -0.46600  -0.46411  -0.46037  -0.45889
 Alpha  occ. eigenvalues --   -0.45769  -0.45738  -0.45461  -0.45138  -0.44978
 Alpha  occ. eigenvalues --   -0.44703  -0.44646  -0.44463  -0.44421  -0.44326
 Alpha  occ. eigenvalues --   -0.44235  -0.43971  -0.43624  -0.43581  -0.43533
 Alpha  occ. eigenvalues --   -0.43462  -0.43083  -0.43074  -0.42847  -0.42688
 Alpha  occ. eigenvalues --   -0.42634  -0.42372  -0.42006  -0.41998  -0.41873
 Alpha  occ. eigenvalues --   -0.41828  -0.41685  -0.41394  -0.41332  -0.41266
 Alpha  occ. eigenvalues --   -0.41115  -0.41072  -0.41046  -0.40776  -0.40675
 Alpha  occ. eigenvalues --   -0.40529  -0.40045  -0.39979  -0.39830  -0.39736
 Alpha  occ. eigenvalues --   -0.39555  -0.39485  -0.39394  -0.39357  -0.38859
 Alpha  occ. eigenvalues --   -0.38702  -0.38644  -0.38611  -0.38394  -0.38147
 Alpha  occ. eigenvalues --   -0.38113  -0.37991  -0.37989  -0.37766  -0.37400
 Alpha  occ. eigenvalues --   -0.37277  -0.37236  -0.37140  -0.37071  -0.36799
 Alpha  occ. eigenvalues --   -0.36776  -0.36385  -0.36269  -0.36188  -0.35992
 Alpha  occ. eigenvalues --   -0.35911  -0.35823  -0.35736  -0.35370  -0.35334
 Alpha  occ. eigenvalues --   -0.35285  -0.35263  -0.35203  -0.34961  -0.34342
 Alpha  occ. eigenvalues --   -0.33472  -0.33235  -0.32983  -0.32810  -0.32648
 Alpha  occ. eigenvalues --   -0.32616  -0.32235  -0.32064  -0.32046  -0.31892
 Alpha  occ. eigenvalues --   -0.31594  -0.31589  -0.30371  -0.30238  -0.29825
 Alpha  occ. eigenvalues --   -0.29395  -0.28999  -0.28421  -0.27069  -0.26998
 Alpha  occ. eigenvalues --   -0.25939  -0.25683  -0.25520  -0.25433  -0.25324
 Alpha  occ. eigenvalues --   -0.25220  -0.25193  -0.24608  -0.21294  -0.21194
 Alpha  occ. eigenvalues --   -0.19615  -0.18701
 Alpha virt. eigenvalues --   -0.11975  -0.11401  -0.05967  -0.05131  -0.04259
 Alpha virt. eigenvalues --   -0.04086  -0.02133  -0.01845  -0.01379   0.00119
 Alpha virt. eigenvalues --    0.00123   0.00769   0.00846   0.01198   0.01253

 Mulliken charges:
               1
     1  Mg  12.000000
     2  C    6.000000
     3  C    6.000000
     4  C    6.000000
     5  C    6.000000
     6  N    7.000000
     7  C    6.000000
     8  C    6.000000
     9  C    6.000000
    10  C    6.000000
    11  C    6.000000
    12  C    6.000000
    13  C    6.000000
    14  H    1.000000
    15  N    7.000000
    16  C    6.000000
    17  C    6.000000
    18  C    6.000000
    19  C    6.000000
    20  C    6.000000
    21  C    6.000000
    22  O    8.000000
    23  C    6.000000
    24  N    7.000000
    25  C    6.000000
    26  C    6.000000
    27  C    6.000000
    28  C    6.000000
    29  C    6.000000
    30  C    6.000000
    31  C    6.000000
    32  N    7.000000
    33  C    6.000000
    34  C    6.000000
    35  C    6.000000
    36  C    6.000000
    37  C    6.000000
    38  C    6.000000
    39  O    8.000000
    40  C    6.000000
    41  C    6.000000
    42  O    8.000000
    43  O    8.000000
    44  C    6.000000
    45  H    1.000000
    46  H    1.000000
    47  H    1.000000
    48  H    1.000000
    49  H    1.000000
    50  H    1.000000
    51  H    1.000000
    52  H    1.000000
    53  H    1.000000
    54  H    1.000000
    55  H    1.000000
    56  H    1.000000
    57  H    1.000000
    58  H    1.000000
    59  H    1.000000
    60  H    1.000000
    61  H    1.000000
    62  H    1.000000
    63  H    1.000000
    64  H    1.000000
    65  H    1.000000
    66  H    1.000000
    67  H    1.000000
    68  H    1.000000
    69  H    1.000000
    70  H    1.000000
    71  H    1.000000
    72  H    1.000000
    73  H    1.000000
    74  H    1.000000
    75  H    1.000000
    76  H    1.000000
    77  H    1.000000
    78  H    1.000000
    79  H    1.000000
    80  Mg  12.000000
    81  C    6.000000
    82  C    6.000000
    83  C    6.000000
    84  C    6.000000
    85  N    7.000000
    86  C    6.000000
    87  C    6.000000
    88  C    6.000000
    89  C    6.000000
    90  C    6.000000
    91  C    6.000000
    92  C    6.000000
    93  H    1.000000
    94  N    7.000000
    95  C    6.000000
    96  C    6.000000
    97  C    6.000000
    98  C    6.000000
    99  C    6.000000
   100  C    6.000000
   101  O    8.000000
   102  C    6.000000
   103  N    7.000000
   104  C    6.000000
   105  C    6.000000
   106  C    6.000000
   107  C    6.000000
   108  C    6.000000
   109  C    6.000000
   110  C    6.000000
   111  N    7.000000
   112  C    6.000000
   113  C    6.000000
   114  C    6.000000
   115  C    6.000000
   116  C    6.000000
   117  C    6.000000
   118  O    8.000000
   119  C    6.000000
   120  C    6.000000
   121  O    8.000000
   122  O    8.000000
   123  C    6.000000
   124  H    1.000000
   125  H    1.000000
   126  H    1.000000
   127  H    1.000000
   128  H    1.000000
   129  H    1.000000
   130  H    1.000000
   131  H    1.000000
   132  H    1.000000
   133  H    1.000000
   134  H    1.000000
   135  H    1.000000
   136  H    1.000000
   137  H    1.000000
   138  H    1.000000
   139  H    1.000000
   140  H    1.000000
   141  H    1.000000
   142  H    1.000000
   143  H    1.000000
   144  H    1.000000
   145  H    1.000000
   146  H    1.000000
   147  H    1.000000
   148  H    1.000000
   149  H    1.000000
   150  H    1.000000
   151  H    1.000000
   152  H    1.000000
   153  H    1.000000
   154  H    1.000000
   155  H    1.000000
   156  H    1.000000
   157  H    1.000000
   158  H    1.000000
 Sum of Mulliken charges = 624.00000

 Dipole moment (field-independent basis, Debye):
    X=              0.0000    Y=             -0.0000    Z=             -0.0000  Tot=              0.0000
 Quadrupole moment (field-independent basis, Debye-Ang):
   XX=             -0.0000   YY=              0.0000   ZZ=              0.0000
   XY=              0.0000   XZ=             -0.0000   YZ=              0.0000

 Normal termination of Gaussian 16 at Fri Oct 15 02:01:57 2021.
