 Gaussian 16, Revision A.03,
 Gaussian 16:  ES64L-G16RevA.03 25-Dec-2016

 --------------------------------------------------------
 #p PBE1PBE/Def2SVP td=(nstates=5) density=(transition=1)
 --------------------------------------------------------

 --------------------------------
 TDDFT excited states in gaussian
 --------------------------------
 Symbolic Z-matrix:
 Charge =  0 Multiplicity = 1

                         Standard orientation:
 ---------------------------------------------------------------------
 Center     Atomic      Atomic             Coordinates (Angstroms)
 Number     Number       Type             X           Y           Z
 ---------------------------------------------------------------------
      1         12           0       16.650020   -0.567836    0.270197
      2          6           0       15.512875    2.424670   -1.331059
      3          6           0       18.808102    1.383507    2.052893
      4          6           0       17.982274   -3.229723    1.363851
      5          6           0       15.255602   -2.342704   -2.385195
      6          7           0       17.018559    1.615010    0.272896
      7          6           0       16.473742    2.658468   -0.344793
      8          6           0       16.965525    4.029573    0.208012
      9          6           0       18.361501    3.566699    0.823639
     10          6           0       18.034054    2.109848    1.099839
     11          6           0       19.516812    3.630584   -0.170181
     12          6           0       16.013856    4.601314    1.312173
     13          6           0       16.237754    6.073604    1.669364
     14          1           0       15.085274    6.895535    2.006362
     15          7           0       17.806909   -0.868939    1.843027
     16          6           0       18.605786    0.043201    2.447247
     17          6           0       19.259772   -0.666443    3.567690
     18          6           0       18.921538   -2.112074    3.450033
     19          6           0       18.236111   -2.132211    2.183083
     20          6           0       20.060236    0.028079    4.626295
     21          6           0       19.184887   -3.290365    4.333440
     22          8           0       19.009004   -4.492272    3.934617
     23          6           0       19.745677   -3.000391    5.665533
     24          7           0       16.821517   -2.495376   -0.512627
     25          6           0       17.395044   -3.477523    0.191246
     26          6           0       17.153298   -4.815810   -0.441593
     27          6           0       16.083348   -4.569721   -1.601076
     28          6           0       15.951285   -3.031663   -1.477765
     29          6           0       18.389405   -5.512267   -1.027255
     30          6           0       14.793044   -5.426401   -1.560637
     31          6           0       13.959858   -5.042847   -0.358229
     32          7           0       15.419992   -0.096482   -1.454883
     33          6           0       14.975028   -0.987739   -2.441970
     34          6           0       14.268691   -0.187880   -3.459508
     35          6           0       14.366820    1.123680   -2.999045
     36          6           0       15.111324    1.145026   -1.785146
     37          6           0       13.693768   -0.687950   -4.661101
     38          6           0       14.037080    2.514906   -3.262898
     39          8           0       13.340759    3.098299   -4.094934
     40          6           0       14.870050    3.426639   -2.257546
     41          6           0       13.920522    4.428821   -1.659770
     42          8           0       13.002626    4.064429   -0.896847
     43          8           0       14.382031    5.668334   -1.885957
     44          6           0       13.501320    6.709870   -1.292910
     45          1           0       19.684445    1.861255    2.495296
     46          1           0       18.330029   -4.185348    1.761702
     47          1           0       14.721718   -2.837708   -3.198454
     48          1           0       17.128916    4.793842   -0.552001
     49          1           0       18.588550    4.087016    1.753930
     50          1           0       19.165102    3.861294   -1.175664
     51          1           0       19.977175    2.642690   -0.145223
     52          1           0       20.283205    4.327006    0.171014
     53          1           0       16.255543    4.139350    2.269376
     54          1           0       14.969369    4.452066    1.036315
     55          1           0       16.859559    6.573881    0.926403
     56          1           0       16.824347    6.117014    2.587092
     57          1           0       20.271365    1.061746    4.355181
     58          1           0       21.038604   -0.451365    4.651585
     59          1           0       19.591024   -0.042008    5.607753
     60          1           0       20.693243   -2.473728    5.550226
     61          1           0       19.784150   -3.954592    6.189813
     62          1           0       19.076713   -2.316770    6.189077
     63          1           0       16.742476   -5.521008    0.279758
     64          1           0       16.499996   -4.763068   -2.589861
     65          1           0       18.569404   -6.505111   -0.614259
     66          1           0       19.249085   -4.861513   -0.869901
     67          1           0       18.387569   -5.610283   -2.112523
     68          1           0       15.041803   -6.481819   -1.455013
     69          1           0       14.176755   -5.318641   -2.453288
     70          1           0       14.407548   -5.627478    0.444649
     71          1           0       12.917684   -5.324662   -0.512063
     72          1           0       14.087371   -3.990193   -0.104960
     73          1           0       12.724555   -0.199627   -4.761779
     74          1           0       13.589572   -1.772251   -4.628867
     75          1           0       14.434577   -0.361153   -5.390664
     76          1           0       15.653982    3.904697   -2.844090
     77          1           0       13.219584    7.388478   -2.098113
     78          1           0       14.043887    7.128393   -0.445051
     79          1           0       12.520532    6.375367   -0.953057
     80         12           0      -16.032885   -0.863530   -0.028798
     81          6           0      -18.018556    1.864916    1.046702
     82          6           0      -13.720574    1.541618   -1.071428
     83          6           0      -14.016894   -3.273394   -0.981620
     84          6           0      -18.777170   -2.968278    0.330179
     85          7           0      -15.916748    1.417505    0.037640
     86          6           0      -16.756968    2.300779    0.645084
     87          6           0      -16.352091    3.782479    0.561176
     88          6           0      -14.981178    3.589218   -0.264667
     89          6           0      -14.903320    2.101539   -0.440558
     90          6           0      -14.967066    4.296497   -1.677366
     91          6           0      -16.131149    4.436750    1.963937
     92          6           0      -17.018868    5.521771    2.560988
     93          1           0      -16.436951    6.632185    3.425772
     94          7           0      -14.089097   -0.901061   -0.840787
     95          6           0      -13.325256    0.194563   -1.268251
     96          6           0      -12.141674   -0.329893   -1.912179
     97          6           0      -12.121770   -1.713925   -1.758285
     98          6           0      -13.417786   -2.016284   -1.120114
     99          6           0      -11.102211    0.631176   -2.378899
    100          6           0      -11.118303   -2.769660   -2.221062
    101          8           0      -11.245099   -3.984894   -2.042751
    102          6           0       -9.846974   -2.281029   -2.795019
    103          7           0      -16.344901   -2.834206   -0.399467
    104          6           0      -15.313225   -3.711894   -0.586707
    105          6           0      -15.768713   -5.184657   -0.309385
    106          6           0      -17.254253   -5.032222   -0.009394
    107          6           0      -17.518141   -3.503244   -0.096083
    108          6           0      -15.400187   -6.180111   -1.457624
    109          6           0      -17.567112   -5.633299    1.369361
    110          6           0      -18.778521   -6.481047    1.512318
    111          7           0      -18.035788   -0.646756    0.461979
    112          6           0      -19.028914   -1.583481    0.598187
    113          6           0      -20.253071   -0.986645    1.041941
    114          6           0      -19.926843    0.422579    1.357080
    115          6           0      -18.532878    0.545077    0.975457
    116          6           0      -21.599784   -1.711225    1.208336
    117          6           0      -20.410395    1.732259    1.862194
    118          8           0      -21.485412    2.034225    2.407648
    119          6           0      -19.170959    2.701102    1.675979
    120          6           0      -19.780898    3.729975    0.776113
    121          8           0      -19.862332    3.722408   -0.446213
    122          8           0      -20.145986    4.782278    1.455991
    123          6           0      -20.922004    5.856118    0.789463
    124          1           0      -13.035478    2.381376   -1.202768
    125          1           0      -13.470331   -4.163022   -1.300421
    126          1           0      -19.606042   -3.656986    0.504470
    127          1           0      -17.095785    4.293171   -0.051836
    128          1           0      -14.043177    3.861514    0.220173
    129          1           0      -15.927102    4.613127   -2.084095
    130          1           0      -14.543277    3.624373   -2.422703
    131          1           0      -14.324621    5.174905   -1.613347
    132          1           0      -15.137624    4.884632    1.937958
    133          1           0      -16.149946    3.674629    2.741948
    134          1           0      -17.599866    4.929541    3.268109
    135          1           0      -17.546952    5.882110    1.678104
    136          1           0      -10.155772    0.491238   -1.858446
    137          1           0      -11.418567    1.661781   -2.216074
    138          1           0      -10.870420    0.533873   -3.439082
    139          1           0       -9.414964   -1.529772   -2.133776
    140          1           0       -9.996867   -1.697716   -3.703635
    141          1           0       -9.082453   -3.048061   -2.914399
    142          1           0      -15.173802   -5.432891    0.569417
    143          1           0      -17.858100   -5.614944   -0.704829
    144          1           0      -14.740038   -5.762591   -2.217733
    145          1           0      -16.262524   -6.559060   -2.004891
    146          1           0      -15.016463   -7.106854   -1.031257
    147          1           0      -17.670356   -4.745290    1.991661
    148          1           0      -16.789475   -6.283152    1.769939
    149          1           0      -19.342031   -6.016485    2.321137
    150          1           0      -18.494612   -7.523397    1.656911
    151          1           0      -19.471090   -6.438460    0.671425
    152          1           0      -22.157684   -1.639695    0.275397
    153          1           0      -22.132835   -1.251922    2.040662
    154          1           0      -21.473253   -2.777281    1.398318
    155          1           0      -18.954404    3.121706    2.657797
    156          1           0      -20.400655    6.329525   -0.041791
    157          1           0      -21.265624    6.641374    1.462527
    158          1           0      -21.882729    5.573870    0.359919
 ---------------------------------------------------------------------

 SCF Done:  E(RPBE1PBE) =  -4067.37601334     A.U. after   16 cycles

 Excitation energies and oscillator strengths:

 Excited State   1:      Singlet-A      1.8413 eV  673.34 nm  f=0.3889  <S**2>=0.000
     309 -> 315        0.16185
     311 -> 313        0.69209
     311 <- 313       -0.11086
 This state for optimization and/or second-order correction.
 Total Energy, E(TD-HF/TD-DFT) =  -4067.30834567
 Copying the excited state density for this state as the 1-particle RhoCI density.

 Excited State   2:      Singlet-A      1.8641 eV  665.10 nm  f=0.3550  <S**2>=0.000
     310 -> 316        0.18296
     312 -> 314        0.68858

 Excited State   3:      Singlet-A      1.9316 eV  641.87 nm  f=0.0000  <S**2>=0.000
     312 -> 313        0.70710

 Excited State   4:      Singlet-A      2.0007 eV  619.70 nm  f=0.0000  <S**2>=0.000
     311 -> 314        0.70710

 Excited State   5:      Singlet-A      2.1930 eV  565.36 nm  f=0.0902  <S**2>=0.000
     309 -> 313        0.65177
     311 -> 315       -0.24126

 The electronic state is 1-A.
 Alpha  occ. eigenvalues --  -46.91926 -46.91221 -19.26963 -19.25928 -19.19467
 Alpha  occ. eigenvalues --  -19.19343 -19.19339 -19.19038 -19.18464 -19.18450
 Alpha  occ. eigenvalues --  -14.41976 -14.41917 -14.41522 -14.40989 -14.39320
 Alpha  occ. eigenvalues --  -14.39081 -14.38823 -14.38287 -10.36145 -10.35681
 Alpha  occ. eigenvalues --  -10.32824 -10.32767 -10.32519 -10.31606 -10.29183
 Alpha  occ. eigenvalues --  -10.29176 -10.29115 -10.28948 -10.28908 -10.28818
 Alpha  occ. eigenvalues --  -10.28666 -10.28451 -10.28376 -10.28249 -10.28166
 Alpha  occ. eigenvalues --  -10.28031 -10.28006 -10.27574 -10.27288 -10.27067
 Alpha  occ. eigenvalues --  -10.26957 -10.26862 -10.26804 -10.26599 -10.26574
 Alpha  occ. eigenvalues --  -10.26442 -10.26359 -10.26093 -10.26053 -10.25930
 Alpha  occ. eigenvalues --  -10.25887 -10.25883 -10.25845 -10.25698 -10.25485
 Alpha  occ. eigenvalues --  -10.25404 -10.25379 -10.25310 -10.25303 -10.25302
 Alpha  occ. eigenvalues --  -10.25282 -10.25242 -10.24898 -10.24879 -10.24860
 Alpha  occ. eigenvalues --  -10.24810 -10.24607 -10.24315 -10.24093 -10.23896
 Alpha  occ. eigenvalues --  -10.23822 -10.23820 -10.23716 -10.23644 -10.23640
 Alpha  occ. eigenvalues --  -10.23494 -10.23401 -10.23333 -10.23309 -10.23271
 Alpha  occ. eigenvalues --  -10.22939 -10.22905 -10.22626 -10.22431 -10.22330
 Alpha  occ. eigenvalues --  -10.22121  -3.14100  -3.13538  -1.86943  -1.86477
 Alpha  occ. eigenvalues --   -1.86361  -1.86328  -1.85926  -1.85772  -1.12617
 Alpha  occ. eigenvalues --   -1.11460  -1.04483  -1.03402  -1.03324  -1.01865
 Alpha  occ. eigenvalues --   -1.01488  -1.01321  -1.00004  -0.99202  -0.98411
 Alpha  occ. eigenvalues --   -0.98398  -0.97929  -0.97403  -0.97119  -0.96260
 Alpha  occ. eigenvalues --   -0.86362  -0.86282  -0.83862  -0.83806  -0.83484
 Alpha  occ. eigenvalues --   -0.83183  -0.82911  -0.82620  -0.82235  -0.82005
 Alpha  occ. eigenvalues --   -0.81830  -0.81467  -0.81052  -0.79485  -0.79264
 Alpha  occ. eigenvalues --   -0.78653  -0.78254  -0.77859  -0.77185  -0.77143
 Alpha  occ. eigenvalues --   -0.76902  -0.76632  -0.75928  -0.75164  -0.74974
 Alpha  occ. eigenvalues --   -0.74809  -0.73133  -0.72833  -0.71836  -0.71575
 Alpha  occ. eigenvalues --   -0.71263  -0.71169  -0.70566  -0.70273  -0.69456
 Alpha  occ. eigenvalues --   -0.69255  -0.67272  -0.66761  -0.66195  -0.66118
 Alpha  occ. eigenvalues --   -0.64248  -0.63457  -0.63263  -0.62621  -0.62209
 Alpha  occ. eigenvalues --   -0.62149  -0.61584  -0.61226  -0.60177  -0.59738
 Alpha  occ. eigenvalues --   -0.59689  -0.59451  -0.59360  -0.59127  -0.58797
 Alpha  occ. eigenvalues --   -0.58747  -0.57059  -0.56909  -0.55225  -0.54973
 Alpha  occ. eigenvalues --   -0.54336  -0.53969  -0.53653  -0.53593  -0.53149
 Alpha  occ. eigenvalues --   -0.53082  -0.52394  -0.52252  -0.52137  -0.51835
 Alpha  occ. eigenvalues --   -0.51096  -0.50903  -0.50408  -0.50177  -0.50084
 Alpha  occ. eigenvalues --   -0.49867  -0.49588  -0.49112  -0.48869  -0.48781
 Alpha  occ. eigenvalues --   -0.48490  -0.48398  -0.47984  -0.47870  -0.47784
 Alpha  occ. eigenvalues --   -0.47585  -0.47385  -0.47208  -0.47131  -0.47007
 Alpha  occ. eigenvalues --   -0.46853  -0.46709  -0.46449  -0.46216  -0.46068
 Alpha  occ. eigenvalues --   -0.45891  -0.45301  -0.45110  -0.44944  -0.44662
 Alpha  occ. eigenvalues --   -0.44586  -0.44512  -0.44348  -0.44182  -0.44159
 Alpha  occ. eigenvalues --   -0.43894  -0.43886  -0.43739  -0.43523  -0.43449
 Alpha  occ. eigenvalues --   -0.43252  -0.43146  -0.43104  -0.43039  -0.42836
 Alpha  occ. eigenvalues --   -0.42580  -0.42367  -0.42343  -0.42173  -0.41979
 Alpha  occ. eigenvalues --   -0.41595  -0.41276  -0.41236  -0.41101  -0.40950
 Alpha  occ. eigenvalues --   -0.40906  -0.40777  -0.40617  -0.40588  -0.40307
 Alpha  occ. eigenvalues --   -0.40180  -0.39982  -0.39969  -0.39778  -0.39494
 Alpha  occ. eigenvalues --   -0.39336  -0.39252  -0.39122  -0.38930  -0.38869
 Alpha  occ. eigenvalues --   -0.38839  -0.38774  -0.38760  -0.38315  -0.38269
 Alpha  occ. eigenvalues --   -0.38042  -0.37890  -0.37858  -0.37672  -0.37527
 Alpha  occ. eigenvalues --   -0.37476  -0.37348  -0.36889  -0.36668  -0.36596
 Alpha  occ. eigenvalues --   -0.36400  -0.36377  -0.36280  -0.36075  -0.35992
 Alpha  occ. eigenvalues --   -0.35808  -0.35692  -0.35621  -0.35511  -0.35322
 Alpha  occ. eigenvalues --   -0.35042  -0.34995  -0.34790  -0.34388  -0.34364
 Alpha  occ. eigenvalues --   -0.33446  -0.33390  -0.32876  -0.32757  -0.32411
 Alpha  occ. eigenvalues --   -0.32287  -0.32217  -0.31740  -0.31704  -0.31319
 Alpha  occ. eigenvalues --   -0.31290  -0.30840  -0.29656  -0.29540  -0.28950
 Alpha  occ. eigenvalues --   -0.28826  -0.28450  -0.28054  -0.27227  -0.26751
 Alpha  occ. eigenvalues --   -0.26287  -0.26030  -0.25914  -0.25674  -0.25147
 Alpha  occ. eigenvalues --   -0.24983  -0.24863  -0.24658  -0.21007  -0.20785
 Alpha  occ. eigenvalues --   -0.18790  -0.18747
 Alpha virt. eigenvalues --   -0.11254  -0.11029  -0.05374  -0.05357  -0.04356
 Alpha virt. eigenvalues --   -0.04184  -0.02245  -0.02208  -0.00134   0.00321
 Alpha virt. eigenvalues --    0.00385   0.00417   0.01098   0.01650   0.01823

 Mulliken charges:
               1
     1  Mg  12.000616
     2  C    5.985341
     3  C    6.011611
     4  C    6.012115
     5  C    5.985718
     6  N    6.992066
     7  C    6.031700
     8  C    5.991709
     9  C    6.008719
    10  C    5.972973
    11  C    6.000820
    12  C    5.996388
    13  C    5.998960
    14  H    0.999641
    15  N    7.003239
    16  C    5.963657
    17  C    5.970852
    18  C    5.985047
    19  C    5.979543
    20  C    6.005164
    21  C    5.985812
    22  O    7.969283
    23  C    6.004896
    24  N    7.000827
    25  C    5.973528
    26  C    6.011188
    27  C    5.988177
    28  C    6.031192
    29  C    5.999524
    30  C    5.996299
    31  C    5.999009
    32  N    6.996756
    33  C    6.043708
    34  C    6.022689
    35  C    6.006190
    36  C    6.028846
    37  C    5.996703
    38  C    6.014493
    39  O    8.030350
    40  C    6.001406
    41  C    6.003422
    42  O    8.004283
    43  O    8.001780
    44  C    5.998758
    45  H    0.992328
    46  H    0.994018
    47  H    1.008815
    48  H    0.999201
    49  H    1.000408
    50  H    0.984555
    51  H    1.004416
    52  H    0.996698
    53  H    1.013149
    54  H    0.994396
    55  H    1.000743
    56  H    1.006557
    57  H    0.980748
    58  H    0.980263
    59  H    0.979494
    60  H    0.994821
    61  H    0.985575
    62  H    0.992875
    63  H    1.000974
    64  H    1.003994
    65  H    1.000063
    66  H    1.005305
    67  H    0.990590
    68  H    1.008967
    69  H    0.997179
    70  H    1.011231
    71  H    1.001410
    72  H    0.997338
    73  H    1.015550
    74  H    1.016468
    75  H    1.018187
    76  H    1.007737
    77  H    1.002858
    78  H    1.005911
    79  H    1.002181
    80  Mg  12.000311
    81  C    5.998897
    82  C    6.000008
    83  C    6.001306
    84  C    5.999733
    85  N    6.999333
    86  C    6.001905
    87  C    5.999185
    88  C    6.000647
    89  C    5.998289
    90  C    6.000245
    91  C    5.999835
    92  C    5.999851
    93  H    1.000385
    94  N    7.000329
    95  C    5.998171
    96  C    5.998925
    97  C    5.998885
    98  C    5.998630
    99  C    6.000325
   100  C    5.999227
   101  O    7.998344
   102  C    6.000300
   103  N    7.000627
   104  C    5.997718
   105  C    6.000340
   106  C    5.999582
   107  C    6.001575
   108  C    6.000127
   109  C    5.999859
   110  C    5.999965
   111  N    6.999952
   112  C    6.001546
   113  C    6.001819
   114  C    6.000046
   115  C    6.001705
   116  C    6.000015
   117  C    6.001150
   118  O    8.001619
   119  C    6.000117
   120  C    6.000040
   121  O    8.000446
   122  O    8.000067
   123  C    5.999833
   124  H    0.999168
   125  H    0.999819
   126  H    1.000643
   127  H    1.000057
   128  H    0.999989
   129  H    0.999314
   130  H    1.000181
   131  H    0.999555
   132  H    1.000439
   133  H    0.999969
   134  H    0.999797
   135  H    0.999998
   136  H    0.998846
   137  H    0.999122
   138  H    0.998820
   139  H    0.999608
   140  H    0.999499
   141  H    0.999043
   142  H    1.000038
   143  H    1.000176
   144  H    1.000264
   145  H    0.999627
   146  H    0.999855
   147  H    0.999799
   148  H    1.000636
   149  H    0.999878
   150  H    1.000393
   151  H    0.999964
   152  H    1.001149
   153  H    1.000886
   154  H    1.001050
   155  H    1.000506
   156  H    1.000312
   157  H    1.000293
   158  H    1.000091
 Sum of Mulliken charges = 624.00000

 Dipole moment (field-independent basis, Debye):
    X=             -6.8002    Y=              2.2383    Z=             -7.7539  Tot=             10.5535
 Quadrupole moment (field-independent basis, Debye-Ang):
   XX=           -189.8933   YY=              2.0372   ZZ=             -4.7030
   XY=             38.8209   XZ=           -138.8719   YZ=              5.6708

 Normal termination of Gaussian 16 at Thu Oct 14 17:06:27 2021.
