 Gaussian 16, Revision A.03,
 Gaussian 16:  ES64L-G16RevA.03 25-Dec-2016

 --------------------------------------------------------
 #p PBE1PBE/Def2SVP td=(nstates=5) density=(transition=1)
 --------------------------------------------------------

 --------------------------------
 TDDFT excited states in gaussian
 --------------------------------
 Symbolic Z-matrix:
 Charge =  0 Multiplicity = 1

                         Standard orientation:
 ---------------------------------------------------------------------
 Center     Atomic      Atomic             Coordinates (Angstroms)
 Number     Number       Type             X           Y           Z
 ---------------------------------------------------------------------
      1         12           0      -30.352455    0.404971    0.373426
      2          6           0      -27.818421   -1.911396   -0.294445
      3          6           0      -32.051645   -0.974416   -2.318792
      4          6           0      -32.508601    2.815444    0.707972
      5          6           0      -28.304541    1.765944    2.922441
      6          7           0      -29.787871   -1.024085   -1.418194
      7          6           0      -28.800723   -1.922419   -1.341013
      8          6           0      -28.956012   -2.867595   -2.485207
      9          6           0      -30.078601   -2.258982   -3.360966
     10          6           0      -30.724819   -1.373178   -2.314277
     11          6           0      -29.721525   -1.513154   -4.647901
     12          6           0      -29.311243   -4.310812   -2.005836
     13          6           0      -28.495826   -5.518964   -2.569791
     14          1           0      -27.892377   -5.425581   -4.005943
     15          7           0      -32.161728    0.778576   -0.591307
     16          6           0      -32.739728   -0.044831   -1.548427
     17          6           0      -34.027304    0.501797   -1.829361
     18          6           0      -34.155431    1.715426   -1.041812
     19          6           0      -32.941231    1.831663   -0.248028
     20          6           0      -35.004373   -0.053235   -2.888783
     21          6           0      -35.288901    2.781096   -1.031031
     22          8           0      -35.287200    3.760075   -0.354266
     23          6           0      -36.488523    2.482819   -1.908713
     24          7           0      -30.370911    2.023578    1.649550
     25          6           0      -31.365313    2.933315    1.545031
     26          6           0      -31.249576    4.112179    2.550247
     27          6           0      -30.030066    3.599833    3.430712
     28          6           0      -29.528578    2.378208    2.669803
     29          6           0      -31.020739    5.525403    1.758372
     30          6           0      -30.383833    3.398595    4.937748
     31          6           0      -30.713104    1.993169    5.408179
     32          7           0      -28.445278    0.033688    1.240754
     33          6           0      -27.803822    0.603924    2.307019
     34          6           0      -26.509685   -0.133455    2.523362
     35          6           0      -26.497240   -1.124159    1.515612
     36          6           0      -27.676607   -0.977103    0.712818
     37          6           0      -25.391235    0.224120    3.464109
     38          6           0      -25.734087   -2.232758    0.947573
     39          8           0      -24.636652   -2.664508    1.311994
     40          6           0      -26.638627   -2.854794   -0.112113
     41          6           0      -25.793589   -2.975349   -1.347850
     42          8           0      -25.520607   -2.060361   -2.103024
     43          8           0      -25.279197   -4.193685   -1.314836
     44          6           0      -24.112921   -4.470617   -2.138634
     45          1           0      -32.523212   -1.305235   -3.245993
     46          1           0      -33.301276    3.523184    0.958173
     47          1           0      -27.680632    2.177377    3.719020
     48          1           0      -28.009521   -2.920695   -3.022263
     49          1           0      -30.684710   -3.100306   -3.697234
     50          1           0      -28.664783   -1.484903   -4.914200
     51          1           0      -30.077211   -0.483661   -4.597759
     52          1           0      -30.261866   -2.019614   -5.447364
     53          1           0      -30.372887   -4.545206   -2.080904
     54          1           0      -29.103090   -4.192665   -0.942529
     55          1           0      -29.215876   -6.338043   -2.551592
     56          1           0      -27.680293   -5.738092   -1.881068
     57          1           0      -35.338937    0.699552   -3.602628
     58          1           0      -35.949377   -0.375840   -2.451479
     59          1           0      -34.624869   -0.908528   -3.449408
     60          1           0      -36.896831    1.485751   -1.742372
     61          1           0      -36.195588    2.650741   -2.945172
     62          1           0      -37.249795    3.252817   -1.783683
     63          1           0      -32.143614    4.229087    3.162478
     64          1           0      -29.215713    4.321551    3.492793
     65          1           0      -29.980369    5.780670    1.960238
     66          1           0      -31.570854    6.360656    2.192329
     67          1           0      -31.098080    5.445391    0.673479
     68          1           0      -31.324425    3.936758    5.055910
     69          1           0      -29.647105    3.847609    5.603557
     70          1           0      -31.363423    1.600389    4.625621
     71          1           0      -31.226457    2.200480    6.346818
     72          1           0      -29.934885    1.235035    5.492141
     73          1           0      -25.458196    1.155358    4.026698
     74          1           0      -24.459433    0.290627    2.902305
     75          1           0      -25.279617   -0.644920    4.111734
     76          1           0      -26.911203   -3.894088    0.072439
     77          1           0      -23.626508   -3.663934   -2.686122
     78          1           0      -24.520254   -5.123654   -2.911077
     79          1           0      -23.533839   -5.255812   -1.652439
     80         12           0       30.446281    0.028485   -0.633729
     81          6           0       27.348709   -0.802175    0.928560
     82          6           0       29.109249    3.005431   -1.235503
     83          6           0       33.550262    1.241861   -1.194550
     84          6           0       31.758276   -2.836117    1.031480
     85          7           0       28.493015    0.911638   -0.323181
     86          6           0       27.320616    0.381829    0.258023
     87          6           0       26.122508    1.382675    0.243991
     88          6           0       26.742498    2.584484   -0.523646
     89          6           0       28.188779    2.123572   -0.802561
     90          6           0       25.850504    2.861012   -1.745364
     91          6           0       25.507210    1.816469    1.644018
     92          6           0       24.076238    1.376072    1.930183
     93          1           0       23.051160    2.474824    2.277786
     94          7           0       31.227734    1.791579   -1.222818
     95          6           0       30.470765    2.946389   -1.419475
     96          6           0       31.268129    3.973639   -1.956706
     97          6           0       32.550808    3.482152   -2.114755
     98          6           0       32.528717    2.163112   -1.515577
     99          6           0       30.848375    5.431670   -2.374842
    100          6           0       33.665812    4.279384   -2.749956
    101          8           0       33.517755    5.343846   -3.272597
    102          6           0       35.091510    3.540122   -2.817504
    103          7           0       32.388605   -0.644513   -0.094684
    104          6           0       33.509049    0.033672   -0.490579
    105          6           0       34.748974   -0.703484    0.162482
    106          6           0       34.239262   -2.031810    0.746061
    107          6           0       32.684293   -1.838392    0.575017
    108          6           0       35.965587   -0.793117   -0.714333
    109          6           0       34.578657   -2.098161    2.229928
    110          6           0       34.651690   -3.463009    2.861464
    111          7           0       29.679354   -1.663911    0.510742
    112          6           0       30.328750   -2.734248    1.078086
    113          6           0       29.393807   -3.607743    1.688819
    114          6           0       28.135965   -2.962933    1.623482
    115          6           0       28.420992   -1.719695    0.991424
    116          6           0       29.674840   -4.862016    2.414473
    117          6           0       26.704448   -2.960540    1.953877
    118          8           0       26.033312   -3.855430    2.485168
    119          6           0       26.108929   -1.572619    1.500355
    120          6           0       25.220780   -1.781312    0.388013
    121          8           0       25.664693   -2.026687   -0.758594
    122          8           0       23.961158   -1.706899    0.860932
    123          6           0       22.834679   -1.692629   -0.112135
    124          1           0       28.690183    3.983120   -1.483813
    125          1           0       34.533737    1.641128   -1.451549
    126          1           0       32.083473   -3.788217    1.455217
    127          1           0       25.303992    0.967262   -0.343776
    128          1           0       26.816516    3.491924    0.074898
    129          1           0       26.378279    3.588995   -2.360797
    130          1           0       24.858301    3.257908   -1.531052
    131          1           0       25.681252    1.967057   -2.346663
    132          1           0       25.424200    2.900476    1.565381
    133          1           0       26.184315    1.539979    2.452287
    134          1           0       24.118683    0.647294    2.740341
    135          1           0       23.668908    0.887893    1.044119
    136          1           0       31.535072    6.095511   -1.849218
    137          1           0       29.825072    5.662424   -2.079100
    138          1           0       30.805924    5.625746   -3.446554
    139          1           0       35.734543    4.198556   -3.400755
    140          1           0       34.850462    2.591510   -3.297813
    141          1           0       35.345731    3.449001   -1.761531
    142          1           0       35.026070   -0.039423    0.981986
    143          1           0       34.599728   -2.946751    0.276005
    144          1           0       36.516820   -1.692892   -0.442478
    145          1           0       36.540730    0.111979   -0.518099
    146          1           0       35.757631   -0.733315   -1.782003
    147          1           0       33.910899   -1.498316    2.848980
    148          1           0       35.522988   -1.603947    2.458074
    149          1           0       34.642258   -4.270599    2.129700
    150          1           0       33.786272   -3.572463    3.515365
    151          1           0       35.477905   -3.516411    3.570353
    152          1           0       30.576018   -5.350101    2.041972
    153          1           0       28.802602   -5.494829    2.248825
    154          1           0       29.838807   -4.565142    3.450623
    155          1           0       25.678193   -0.975652    2.304234
    156          1           0       22.079079   -2.225776    0.466700
    157          1           0       23.070000   -2.154355   -1.070607
    158          1           0       22.389664   -0.700389   -0.193745
 ---------------------------------------------------------------------

 SCF Done:  E(RPBE1PBE) =  -4067.37407989     A.U. after   16 cycles

 Excitation energies and oscillator strengths:

 Excited State   1:      Singlet-A      1.8689 eV  663.41 nm  f=0.3672  <S**2>=0.000
     309 -> 315       -0.16688
     311 -> 313        0.69405
     311 <- 313       -0.10953
 This state for optimization and/or second-order correction.
 Total Energy, E(TD-HF/TD-DFT) =  -4067.30539974
 Copying the excited state density for this state as the 1-particle RhoCI density.

 Excited State   2:      Singlet-A      1.8764 eV  660.75 nm  f=0.3895  <S**2>=0.000
     310 -> 316        0.18218
     312 -> 314        0.69061
     312 <- 314       -0.10327

 Excited State   3:      Singlet-A      1.9746 eV  627.90 nm  f=0.0000  <S**2>=0.000
     312 -> 313        0.70711

 Excited State   4:      Singlet-A      2.0868 eV  594.14 nm  f=0.0000  <S**2>=0.000
     311 -> 314        0.70711

 Excited State   5:      Singlet-A      2.2077 eV  561.59 nm  f=0.0948  <S**2>=0.000
     310 -> 314        0.65478
     312 -> 316       -0.25275

 The electronic state is 1-A.
 Alpha  occ. eigenvalues --  -46.92180 -46.91941 -19.27160 -19.26808 -19.19933
 Alpha  occ. eigenvalues --  -19.19753 -19.19727 -19.19391 -19.19142 -19.18987
 Alpha  occ. eigenvalues --  -14.41968 -14.41774 -14.41390 -14.40983 -14.39094
 Alpha  occ. eigenvalues --  -14.38878 -14.38533 -14.38245 -10.36509 -10.36030
 Alpha  occ. eigenvalues --  -10.32702 -10.32507 -10.32397 -10.31794 -10.30067
 Alpha  occ. eigenvalues --  -10.29480 -10.29246 -10.29212 -10.28838 -10.28680
 Alpha  occ. eigenvalues --  -10.28668 -10.28501 -10.28443 -10.28107 -10.27973
 Alpha  occ. eigenvalues --  -10.27617 -10.27452 -10.27037 -10.26950 -10.26943
 Alpha  occ. eigenvalues --  -10.26830 -10.26757 -10.26682 -10.26519 -10.26314
 Alpha  occ. eigenvalues --  -10.26175 -10.25999 -10.25929 -10.25870 -10.25864
 Alpha  occ. eigenvalues --  -10.25755 -10.25665 -10.25644 -10.25627 -10.25404
 Alpha  occ. eigenvalues --  -10.25394 -10.25072 -10.25038 -10.25031 -10.24881
 Alpha  occ. eigenvalues --  -10.24838 -10.24727 -10.24714 -10.24544 -10.24346
 Alpha  occ. eigenvalues --  -10.24325 -10.24318 -10.24288 -10.24234 -10.23951
 Alpha  occ. eigenvalues --  -10.23842 -10.23775 -10.23756 -10.23588 -10.23555
 Alpha  occ. eigenvalues --  -10.23536 -10.23442 -10.23437 -10.23289 -10.23266
 Alpha  occ. eigenvalues --  -10.23035 -10.22900 -10.22833 -10.22651 -10.22636
 Alpha  occ. eigenvalues --  -10.22460  -3.14220  -3.14112  -1.87069  -1.86929
 Alpha  occ. eigenvalues --   -1.86629  -1.86466  -1.86402  -1.86362  -1.13024
 Alpha  occ. eigenvalues --   -1.11421  -1.06605  -1.06294  -1.04119  -1.03547
 Alpha  occ. eigenvalues --   -1.03352  -1.02198  -0.99600  -0.98678  -0.98397
 Alpha  occ. eigenvalues --   -0.97870  -0.97482  -0.97179  -0.96688  -0.96379
 Alpha  occ. eigenvalues --   -0.87570  -0.86630  -0.83971  -0.83566  -0.83021
 Alpha  occ. eigenvalues --   -0.82974  -0.82862  -0.82407  -0.81644  -0.81425
 Alpha  occ. eigenvalues --   -0.81024  -0.80831  -0.80432  -0.79858  -0.79050
 Alpha  occ. eigenvalues --   -0.78747  -0.78574  -0.77989  -0.77532  -0.76879
 Alpha  occ. eigenvalues --   -0.76158  -0.75742  -0.75499  -0.75113  -0.74515
 Alpha  occ. eigenvalues --   -0.74302  -0.72239  -0.72091  -0.71652  -0.71611
 Alpha  occ. eigenvalues --   -0.71333  -0.70909  -0.70597  -0.70569  -0.69504
 Alpha  occ. eigenvalues --   -0.69439  -0.67262  -0.67084  -0.66191  -0.66170
 Alpha  occ. eigenvalues --   -0.63870  -0.63545  -0.63312  -0.63030  -0.62380
 Alpha  occ. eigenvalues --   -0.62223  -0.61622  -0.60623  -0.60072  -0.60000
 Alpha  occ. eigenvalues --   -0.59723  -0.59517  -0.59448  -0.59176  -0.59151
 Alpha  occ. eigenvalues --   -0.58874  -0.57303  -0.56850  -0.54648  -0.54406
 Alpha  occ. eigenvalues --   -0.54225  -0.54195  -0.53906  -0.53764  -0.53105
 Alpha  occ. eigenvalues --   -0.53029  -0.52825  -0.52379  -0.51869  -0.51825
 Alpha  occ. eigenvalues --   -0.51393  -0.50938  -0.50581  -0.50563  -0.49578
 Alpha  occ. eigenvalues --   -0.49487  -0.49383  -0.49283  -0.49207  -0.48892
 Alpha  occ. eigenvalues --   -0.48434  -0.48154  -0.47837  -0.47755  -0.47454
 Alpha  occ. eigenvalues --   -0.47443  -0.47207  -0.46934  -0.46744  -0.46520
 Alpha  occ. eigenvalues --   -0.46280  -0.46250  -0.46105  -0.45915  -0.45842
 Alpha  occ. eigenvalues --   -0.45748  -0.45497  -0.45182  -0.45043  -0.44814
 Alpha  occ. eigenvalues --   -0.44658  -0.44487  -0.44354  -0.44285  -0.43964
 Alpha  occ. eigenvalues --   -0.43784  -0.43755  -0.43571  -0.43471  -0.43275
 Alpha  occ. eigenvalues --   -0.43073  -0.43067  -0.42943  -0.42823  -0.42692
 Alpha  occ. eigenvalues --   -0.42656  -0.42207  -0.41999  -0.41930  -0.41663
 Alpha  occ. eigenvalues --   -0.41555  -0.41140  -0.41119  -0.41004  -0.40853
 Alpha  occ. eigenvalues --   -0.40779  -0.40704  -0.40620  -0.40381  -0.40313
 Alpha  occ. eigenvalues --   -0.40266  -0.40043  -0.39937  -0.39904  -0.39689
 Alpha  occ. eigenvalues --   -0.39569  -0.39566  -0.39499  -0.39183  -0.39100
 Alpha  occ. eigenvalues --   -0.38882  -0.38481  -0.38388  -0.38314  -0.38131
 Alpha  occ. eigenvalues --   -0.38119  -0.38043  -0.37928  -0.37899  -0.37711
 Alpha  occ. eigenvalues --   -0.37662  -0.37548  -0.37372  -0.37161  -0.37025
 Alpha  occ. eigenvalues --   -0.36813  -0.36683  -0.36588  -0.36523  -0.36512
 Alpha  occ. eigenvalues --   -0.36098  -0.35995  -0.35563  -0.35529  -0.35193
 Alpha  occ. eigenvalues --   -0.35144  -0.35092  -0.34542  -0.34278  -0.34077
 Alpha  occ. eigenvalues --   -0.33384  -0.33275  -0.33168  -0.32617  -0.32202
 Alpha  occ. eigenvalues --   -0.32179  -0.32134  -0.31766  -0.31729  -0.31318
 Alpha  occ. eigenvalues --   -0.31191  -0.31062  -0.29450  -0.29417  -0.29106
 Alpha  occ. eigenvalues --   -0.29101  -0.28582  -0.28531  -0.27387  -0.26484
 Alpha  occ. eigenvalues --   -0.26149  -0.26017  -0.25773  -0.25515  -0.25410
 Alpha  occ. eigenvalues --   -0.25373  -0.24748  -0.24739  -0.21168  -0.20719
 Alpha  occ. eigenvalues --   -0.18872  -0.18708
 Alpha virt. eigenvalues --   -0.11233  -0.10983  -0.05247  -0.05010  -0.03945
 Alpha virt. eigenvalues --   -0.03713  -0.01679  -0.01617  -0.00516   0.00009
 Alpha virt. eigenvalues --    0.00011   0.00563   0.01082   0.01218   0.01392

 Mulliken charges:
               1
     1  Mg  12.000033
     2  C    6.000161
     3  C    5.999730
     4  C    5.999851
     5  C    6.000321
     6  N    6.999946
     7  C    5.999482
     8  C    6.000106
     9  C    5.999834
    10  C    6.000645
    11  C    5.999993
    12  C    6.000025
    13  C    6.000032
    14  H    0.999909
    15  N    6.999897
    16  C    6.000729
    17  C    6.000265
    18  C    6.000296
    19  C    6.000465
    20  C    5.999932
    21  C    6.000313
    22  O    8.000479
    23  C    5.999880
    24  N    7.000093
    25  C    6.000548
    26  C    5.999819
    27  C    6.000186
    28  C    5.999431
    29  C    5.999882
    30  C    6.000017
    31  C    6.000127
    32  N    7.000003
    33  C    5.999351
    34  C    5.999456
    35  C    5.999991
    36  C    5.999534
    37  C    6.000051
    38  C    5.999590
    39  O    7.999428
    40  C    6.000083
    41  C    5.999883
    42  O    7.999866
    43  O    7.999986
    44  C    6.000089
    45  H    1.000185
    46  H    1.000145
    47  H    0.999886
    48  H    0.999977
    49  H    1.000041
    50  H    1.000241
    51  H    0.999926
    52  H    1.000042
    53  H    0.999756
    54  H    1.000124
    55  H    0.999914
    56  H    1.000083
    57  H    1.000318
    58  H    1.000332
    59  H    1.000326
    60  H    1.000116
    61  H    1.000161
    62  H    1.000287
    63  H    1.000018
    64  H    0.999984
    65  H    1.000227
    66  H    1.000082
    67  H    0.999942
    68  H    0.999822
    69  H    1.000001
    70  H    0.999816
    71  H    0.999913
    72  H    1.000133
    73  H    0.999641
    74  H    0.999669
    75  H    0.999655
    76  H    0.999788
    77  H    0.999934
    78  H    0.999864
    79  H    0.999909
    80  Mg  12.000075
    81  C    5.979792
    82  C    6.001834
    83  C    6.019019
    84  C    5.993869
    85  N    6.984294
    86  C    6.028085
    87  C    5.988223
    88  C    6.013936
    89  C    5.970061
    90  C    6.002559
    91  C    5.997745
    92  C    5.997748
    93  H    1.006449
    94  N    7.002536
    95  C    5.967370
    96  C    5.977134
    97  C    5.990157
    98  C    5.967463
    99  C    6.001860
   100  C    5.991712
   101  O    7.983381
   102  C    5.996152
   103  N    7.004544
   104  C    5.973133
   105  C    6.002817
   106  C    5.993572
   107  C    6.031245
   108  C    6.000452
   109  C    5.992584
   110  C    5.999528
   111  N    7.002020
   112  C    6.031627
   113  C    6.028634
   114  C    6.004003
   115  C    6.029220
   116  C    5.998763
   117  C    6.017840
   118  O    8.029204
   119  C    6.002107
   120  C    6.002213
   121  O    8.005477
   122  O    8.001222
   123  C    5.998412
   124  H    0.986644
   125  H    0.994182
   126  H    1.009094
   127  H    1.000969
   128  H    0.997567
   129  H    1.005406
   130  H    0.988818
   131  H    0.990236
   132  H    1.008452
   133  H    0.998015
   134  H    0.995202
   135  H    0.998982
   136  H    0.985379
   137  H    0.983637
   138  H    0.982311
   139  H    0.988849
   140  H    0.993069
   141  H    0.992241
   142  H    1.000431
   143  H    1.003117
   144  H    0.992044
   145  H    1.004458
   146  H    1.002331
   147  H    1.002258
   148  H    1.012169
   149  H    0.999995
   150  H    0.994837
   151  H    1.005556
   152  H    1.016873
   153  H    1.014068
   154  H    1.020604
   155  H    1.010482
   156  H    1.001866
   157  H    1.002944
   158  H    1.006846
 Sum of Mulliken charges = 624.00000

 Dipole moment (field-independent basis, Debye):
    X=             -3.2555    Y=             -8.5153    Z=              4.5308  Tot=             10.1802
 Quadrupole moment (field-independent basis, Debye-Ang):
   XX=           -172.4787   YY=             -3.6438   ZZ=             -1.4164
   XY=           -261.9227   XZ=            143.0654   YZ=              2.6323

 Normal termination of Gaussian 16 at Fri Oct 15 19:06:07 2021.
