 Gaussian 16, Revision A.03,
 Gaussian 16:  ES64L-G16RevA.03 25-Dec-2016

 --------------------------------------------------------
 #p PBE1PBE/Def2SVP td=(nstates=5) density=(transition=1)
 --------------------------------------------------------

 --------------------------------
 TDDFT excited states in gaussian
 --------------------------------
 Symbolic Z-matrix:
 Charge =  0 Multiplicity = 1

                         Standard orientation:
 ---------------------------------------------------------------------
 Center     Atomic      Atomic             Coordinates (Angstroms)
 Number     Number       Type             X           Y           Z
 ---------------------------------------------------------------------
      1         12           0      -28.040281   -0.175702   -0.511532
      2          6           0      -25.039344    0.980916    0.718467
      3          6           0      -27.198951   -3.303403    0.571956
      4          6           0      -31.264745   -0.893293   -0.536137
      5          6           0      -28.760047    3.109088   -1.521270
      6          7           0      -26.483715   -0.899377    0.943960
      7          6           0      -25.265044   -0.320095    1.096554
      8          6           0      -24.268486   -1.229023    1.753165
      9          6           0      -24.827623   -2.614484    1.293918
     10          6           0      -26.233416   -2.256533    0.834886
     11          6           0      -23.934807   -3.308493    0.225629
     12          6           0      -24.281677   -1.090100    3.357680
     13          6           0      -22.861581   -1.259204    4.072680
     14          1           0      -22.954572   -2.430929    5.018436
     15          7           0      -29.050740   -1.934622   -0.231498
     16          6           0      -28.601908   -3.098404    0.287848
     17          6           0      -29.687109   -4.064783    0.400272
     18          6           0      -30.870626   -3.383785    0.048482
     19          6           0      -30.413462   -1.998876   -0.256322
     20          6           0      -29.428388   -5.505401    0.904213
     21          6           0      -32.239258   -3.978456    0.230418
     22          8           0      -32.346121   -5.113465    0.615875
     23          6           0      -33.561031   -3.219729    0.004928
     24          7           0      -29.815362    0.899676   -1.092410
     25          6           0      -30.964578    0.396280   -0.993872
     26          6           0      -32.058631    1.363961   -1.256452
     27          6           0      -31.266916    2.686885   -1.598520
     28          6           0      -29.883487    2.240755   -1.401450
     29          6           0      -33.055473    0.832272   -2.341086
     30          6           0      -31.667542    3.894346   -0.630423
     31          6           0      -31.323827    5.350048   -1.108034
     32          7           0      -27.115132    1.669119   -0.522172
     33          6           0      -27.495045    2.884124   -1.062856
     34          6           0      -26.413182    3.827118   -0.997336
     35          6           0      -25.373035    3.090401   -0.329747
     36          6           0      -25.886826    1.856078    0.018207
     37          6           0      -26.388578    5.232155   -1.506861
     38          6           0      -24.023352    3.170713    0.111349
     39          8           0      -23.147055    4.044716    0.094746
     40          6           0      -23.812653    1.884975    0.977666
     41          6           0      -22.481593    1.327883    0.596735
     42          8           0      -21.419106    1.567007    1.187627
     43          8           0      -22.605280    0.564530   -0.531229
     44          6           0      -21.259961    0.057812   -0.922660
     45          1           0      -26.980198   -4.358462    0.751422
     46          1           0      -32.325626   -1.143218   -0.477735
     47          1           0      -29.032089    4.150320   -1.710482
     48          1           0      -23.332119   -1.000032    1.245931
     49          1           0      -24.824568   -3.297445    2.143582
     50          1           0      -23.532424   -4.232905    0.638927
     51          1           0      -23.077016   -2.657302    0.054397
     52          1           0      -24.533899   -3.421838   -0.677346
     53          1           0      -25.014309   -1.697877    3.888463
     54          1           0      -24.629145   -0.098956    3.647451
     55          1           0      -22.760416   -0.356200    4.674903
     56          1           0      -21.953176   -1.295482    3.471250
     57          1           0      -29.986805   -5.787101    1.796837
     58          1           0      -28.375391   -5.736425    1.069011
     59          1           0      -29.690954   -6.174650    0.085582
     60          1           0      -33.711328   -2.915102   -1.030275
     61          1           0      -33.688453   -2.356929    0.659201
     62          1           0      -34.328230   -3.889254    0.395018
     63          1           0      -32.541110    1.462410   -0.284111
     64          1           0      -31.276841    3.046340   -2.627217
     65          1           0      -34.039088    0.796050   -1.873312
     66          1           0      -32.762940   -0.148133   -2.717457
     67          1           0      -33.270156    1.545008   -3.137188
     68          1           0      -31.193921    3.765052    0.342980
     69          1           0      -32.743260    3.800258   -0.489222
     70          1           0      -32.105873    6.095332   -1.250539
     71          1           0      -30.856432    5.328460   -2.091552
     72          1           0      -30.612290    5.812061   -0.423647
     73          1           0      -27.231594    5.543761   -2.123255
     74          1           0      -25.448511    5.199968   -2.056149
     75          1           0      -26.234226    5.765963   -0.569049
     76          1           0      -23.859070    2.056257    2.053654
     77          1           0      -20.653052    0.887704   -1.283251
     78          1           0      -21.288687   -0.569554   -1.813579
     79          1           0      -20.845388   -0.470970   -0.064141
     80         12           0       27.787460    0.464720   -0.222997
     81          6           0       25.848211   -2.347496   -0.247781
     82          6           0       24.909373    2.253188    0.863568
     83          6           0       29.749877    3.177393    0.196818
     84          6           0       30.636256   -1.534967   -0.373818
     85          7           0       25.628425   -0.116546    0.632296
     86          6           0       25.044152   -1.291534    0.265217
     87          6           0       23.606001   -1.304528    0.703966
     88          6           0       23.300552    0.204720    1.101983
     89          6           0       24.681635    0.889959    0.854500
     90          6           0       21.988651    0.750509    0.670065
     91          6           0       23.106048   -2.394885    1.765357
     92          6           0       24.078278   -2.871207    2.803555
     93          1           0       23.594187   -2.892228    4.246644
     94          7           0       27.331225    2.471814    0.204645
     95          6           0       26.138851    3.004498    0.585761
     96          6           0       26.233499    4.411434    0.841102
     97          6           0       27.655087    4.729515    0.529304
     98          6           0       28.317451    3.429800    0.283835
     99          6           0       25.187570    5.332330    1.255785
    100          6           0       28.337890    6.088403    0.469682
    101          8           0       27.775380    7.058873    0.835020
    102          6           0       29.761778    6.356557    0.067867
    103          7           0       29.851116    0.746390    0.021718
    104          6           0       30.390888    1.974465   -0.007031
    105          6           0       31.991565    1.900644    0.215172
    106          6           0       32.238829    0.419326   -0.354051
    107          6           0       30.852249   -0.150473   -0.171549
    108          6           0       32.814717    2.975432   -0.500326
    109          6           0       33.415664   -0.295893    0.333814
    110          6           0       34.486484   -1.017403   -0.492989
    111          7           0       28.191351   -1.548694   -0.186344
    112          6           0       29.383804   -2.253382   -0.294723
    113          6           0       29.156740   -3.636270   -0.460994
    114          6           0       27.778223   -3.762665   -0.508712
    115          6           0       27.209182   -2.451381   -0.335395
    116          6           0       30.174936   -4.720020   -0.637763
    117          6           0       26.657566   -4.586751   -0.695500
    118          8           0       26.651559   -5.801582   -0.883724
    119          6           0       25.371472   -3.775265   -0.369446
    120          6           0       24.479148   -4.046112   -1.571823
    121          8           0       23.301006   -4.454178   -1.492850
    122          8           0       25.157314   -3.625787   -2.691646
    123          6           0       24.497583   -3.510805   -4.015282
    124          1           0       24.027715    2.715233    1.312481
    125          1           0       30.380037    4.004285    0.530527
    126          1           0       31.532861   -2.146419   -0.491980
    127          1           0       22.990803   -1.601537   -0.146187
    128          1           0       23.256994    0.221493    2.190600
    129          1           0       22.062006    1.724113    0.185632
    130          1           0       21.248358    0.726834    1.469771
    131          1           0       21.577742    0.116728   -0.115851
    132          1           0       22.771328   -3.333111    1.322717
    133          1           0       22.326191   -1.958799    2.390442
    134          1           0       25.083784   -2.462410    2.709566
    135          1           0       24.191399   -3.945903    2.657196
    136          1           0       24.236280    4.983848    0.854868
    137          1           0       25.348700    6.361705    0.937815
    138          1           0       25.159221    5.301307    2.345572
    139          1           0       29.814739    5.535541   -0.647534
    140          1           0       30.468386    6.210309    0.884227
    141          1           0       29.978386    7.324982   -0.383359
    142          1           0       32.136857    1.877048    1.295614
    143          1           0       32.419695    0.293196   -1.421229
    144          1           0       33.303935    2.488149   -1.344167
    145          1           0       33.420484    3.529051    0.216477
    146          1           0       32.202608    3.764496   -0.936120
    147          1           0       32.977900   -1.026768    1.014253
    148          1           0       33.882780    0.414418    1.016153
    149          1           0       35.535987   -0.813872   -0.279805
    150          1           0       34.309748   -0.952864   -1.567427
    151          1           0       34.224861   -2.062345   -0.329491
    152          1           0       29.865191   -5.534423   -1.293116
    153          1           0       30.411064   -5.133240    0.343120
    154          1           0       31.099686   -4.371464   -1.099454
    155          1           0       25.022112   -4.241506    0.550980
    156          1           0       24.829299   -2.635910   -4.574138
    157          1           0       23.421869   -3.443641   -3.851906
    158          1           0       24.583888   -4.309262   -4.751185
 ---------------------------------------------------------------------

 SCF Done:  E(RPBE1PBE) =  -4067.31464563     A.U. after   17 cycles

 Excitation energies and oscillator strengths:

 Excited State   1:      Singlet-A      1.7595 eV  704.65 nm  f=0.0000  <S**2>=0.000
     312 -> 313        0.70711
 This state for optimization and/or second-order correction.
 Total Energy, E(TD-HF/TD-DFT) =  -4067.24998484
 Copying the excited state density for this state as the 1-particle RhoCI density.

 Excited State   2:      Singlet-A      1.7943 eV  690.97 nm  f=0.3462  <S**2>=0.000
     309 -> 315        0.16537
     311 -> 313        0.69527
     311 <- 313       -0.11757

 Excited State   3:      Singlet-A      1.7987 eV  689.31 nm  f=0.3712  <S**2>=0.000
     310 -> 316        0.16139
     312 -> 314        0.69415
     312 <- 314       -0.10904

 Excited State   4:      Singlet-A      2.1205 eV  584.68 nm  f=0.0000  <S**2>=0.000
     311 -> 314        0.70711

 Excited State   5:      Singlet-A      2.1559 eV  575.10 nm  f=0.1304  <S**2>=0.000
     308 -> 313        0.10066
     309 -> 313        0.65388
     311 -> 315       -0.23180

 The electronic state is 1-A.
 Alpha  occ. eigenvalues --  -46.93339 -46.92574 -19.26755 -19.26287 -19.20490
 Alpha  occ. eigenvalues --  -19.19431 -19.19404 -19.18503 -19.18454 -19.17605
 Alpha  occ. eigenvalues --  -14.42103 -14.41497 -14.41494 -14.41455 -14.39818
 Alpha  occ. eigenvalues --  -14.39730 -14.39210 -14.38436 -10.37423 -10.35823
 Alpha  occ. eigenvalues --  -10.32601 -10.31473 -10.31241 -10.30901 -10.29928
 Alpha  occ. eigenvalues --  -10.29755 -10.29644 -10.29189 -10.29003 -10.29000
 Alpha  occ. eigenvalues --  -10.28880 -10.28769 -10.28642 -10.28298 -10.28224
 Alpha  occ. eigenvalues --  -10.28180 -10.28166 -10.28099 -10.27871 -10.26849
 Alpha  occ. eigenvalues --  -10.26759 -10.26614 -10.26506 -10.26345 -10.26226
 Alpha  occ. eigenvalues --  -10.26221 -10.26146 -10.26136 -10.26108 -10.26085
 Alpha  occ. eigenvalues --  -10.25946 -10.25914 -10.25884 -10.25796 -10.25766
 Alpha  occ. eigenvalues --  -10.25648 -10.25407 -10.25384 -10.25344 -10.25326
 Alpha  occ. eigenvalues --  -10.25237 -10.25213 -10.25130 -10.25126 -10.25071
 Alpha  occ. eigenvalues --  -10.24997 -10.24736 -10.24613 -10.24609 -10.24414
 Alpha  occ. eigenvalues --  -10.24387 -10.24337 -10.24294 -10.24036 -10.23905
 Alpha  occ. eigenvalues --  -10.23825 -10.23823 -10.23754 -10.23753 -10.23635
 Alpha  occ. eigenvalues --  -10.23608 -10.23543 -10.22966 -10.22692 -10.22610
 Alpha  occ. eigenvalues --  -10.22543  -3.15391  -3.14726  -1.88187  -1.87801
 Alpha  occ. eigenvalues --   -1.87589  -1.87553  -1.87115  -1.86941  -1.10805
 Alpha  occ. eigenvalues --   -1.10313  -1.06404  -1.06371  -1.03897  -1.03110
 Alpha  occ. eigenvalues --   -1.01969  -1.01668  -1.01363  -0.99741  -0.99061
 Alpha  occ. eigenvalues --   -0.98927  -0.98525  -0.97685  -0.97619  -0.96900
 Alpha  occ. eigenvalues --   -0.87924  -0.87061  -0.84100  -0.84089  -0.82993
 Alpha  occ. eigenvalues --   -0.82926  -0.82729  -0.82516  -0.82168  -0.81630
 Alpha  occ. eigenvalues --   -0.81567  -0.81190  -0.80790  -0.80347  -0.78858
 Alpha  occ. eigenvalues --   -0.78504  -0.78217  -0.78188  -0.77370  -0.76528
 Alpha  occ. eigenvalues --   -0.76415  -0.75861  -0.75303  -0.75164  -0.74863
 Alpha  occ. eigenvalues --   -0.74693  -0.72816  -0.72785  -0.72107  -0.71952
 Alpha  occ. eigenvalues --   -0.71375  -0.71093  -0.70946  -0.70344  -0.69862
 Alpha  occ. eigenvalues --   -0.69777  -0.68056  -0.67207  -0.66616  -0.66204
 Alpha  occ. eigenvalues --   -0.64892  -0.64363  -0.63818  -0.63636  -0.62709
 Alpha  occ. eigenvalues --   -0.62577  -0.62027  -0.61338  -0.61160  -0.60652
 Alpha  occ. eigenvalues --   -0.60083  -0.59784  -0.59429  -0.59227  -0.59046
 Alpha  occ. eigenvalues --   -0.58826  -0.58100  -0.57063  -0.54924  -0.54832
 Alpha  occ. eigenvalues --   -0.54211  -0.53996  -0.53727  -0.53511  -0.53381
 Alpha  occ. eigenvalues --   -0.52614  -0.52572  -0.51974  -0.51830  -0.51431
 Alpha  occ. eigenvalues --   -0.51277  -0.51131  -0.50771  -0.50357  -0.50291
 Alpha  occ. eigenvalues --   -0.49862  -0.49641  -0.49531  -0.48967  -0.48819
 Alpha  occ. eigenvalues --   -0.48493  -0.48268  -0.47946  -0.47719  -0.47536
 Alpha  occ. eigenvalues --   -0.47144  -0.47059  -0.46793  -0.46478  -0.46451
 Alpha  occ. eigenvalues --   -0.46382  -0.46368  -0.46282  -0.45992  -0.45918
 Alpha  occ. eigenvalues --   -0.45777  -0.45650  -0.45363  -0.45362  -0.45166
 Alpha  occ. eigenvalues --   -0.44796  -0.44756  -0.44622  -0.44500  -0.44306
 Alpha  occ. eigenvalues --   -0.44130  -0.44128  -0.43872  -0.43831  -0.43635
 Alpha  occ. eigenvalues --   -0.43626  -0.43308  -0.42961  -0.42942  -0.42473
 Alpha  occ. eigenvalues --   -0.42423  -0.42362  -0.42307  -0.42012  -0.41995
 Alpha  occ. eigenvalues --   -0.41919  -0.41824  -0.41662  -0.41577  -0.41424
 Alpha  occ. eigenvalues --   -0.41173  -0.41037  -0.41016  -0.40918  -0.40654
 Alpha  occ. eigenvalues --   -0.40524  -0.40279  -0.40135  -0.40129  -0.40055
 Alpha  occ. eigenvalues --   -0.39776  -0.39746  -0.39552  -0.39470  -0.39208
 Alpha  occ. eigenvalues --   -0.39115  -0.38965  -0.38911  -0.38787  -0.38701
 Alpha  occ. eigenvalues --   -0.38317  -0.38314  -0.38029  -0.37942  -0.37555
 Alpha  occ. eigenvalues --   -0.37498  -0.37456  -0.37453  -0.37091  -0.37037
 Alpha  occ. eigenvalues --   -0.36897  -0.36886  -0.36796  -0.36754  -0.36532
 Alpha  occ. eigenvalues --   -0.36401  -0.36237  -0.36192  -0.36117  -0.35743
 Alpha  occ. eigenvalues --   -0.35465  -0.35115  -0.34969  -0.34596  -0.33928
 Alpha  occ. eigenvalues --   -0.33667  -0.33619  -0.33236  -0.33039  -0.32666
 Alpha  occ. eigenvalues --   -0.32316  -0.31908  -0.31820  -0.31801  -0.31495
 Alpha  occ. eigenvalues --   -0.31134  -0.30654  -0.30192  -0.29798  -0.29078
 Alpha  occ. eigenvalues --   -0.28968  -0.28573  -0.28376  -0.27145  -0.26837
 Alpha  occ. eigenvalues --   -0.26318  -0.26280  -0.26098  -0.25336  -0.25258
 Alpha  occ. eigenvalues --   -0.24930  -0.24740  -0.23731  -0.21399  -0.21032
 Alpha  occ. eigenvalues --   -0.19344  -0.18745
 Alpha virt. eigenvalues --   -0.12042  -0.11314  -0.05470  -0.05327  -0.03986
 Alpha virt. eigenvalues --   -0.03875  -0.02267  -0.01877  -0.01778  -0.00799
 Alpha virt. eigenvalues --   -0.00035   0.00250   0.00626   0.01201   0.01833

 Mulliken charges:
               1
     1  Mg  12.000000
     2  C    6.000000
     3  C    6.000000
     4  C    6.000000
     5  C    6.000000
     6  N    7.000000
     7  C    6.000000
     8  C    6.000000
     9  C    6.000000
    10  C    6.000000
    11  C    6.000000
    12  C    6.000000
    13  C    6.000000
    14  H    1.000000
    15  N    7.000000
    16  C    6.000000
    17  C    6.000000
    18  C    6.000000
    19  C    6.000000
    20  C    6.000000
    21  C    6.000000
    22  O    8.000000
    23  C    6.000000
    24  N    7.000000
    25  C    6.000000
    26  C    6.000000
    27  C    6.000000
    28  C    6.000000
    29  C    6.000000
    30  C    6.000000
    31  C    6.000000
    32  N    7.000000
    33  C    6.000000
    34  C    6.000000
    35  C    6.000000
    36  C    6.000000
    37  C    6.000000
    38  C    6.000000
    39  O    8.000000
    40  C    6.000000
    41  C    6.000000
    42  O    8.000000
    43  O    8.000000
    44  C    6.000000
    45  H    1.000000
    46  H    1.000000
    47  H    1.000000
    48  H    1.000000
    49  H    1.000000
    50  H    1.000000
    51  H    1.000000
    52  H    1.000000
    53  H    1.000000
    54  H    1.000000
    55  H    1.000000
    56  H    1.000000
    57  H    1.000000
    58  H    1.000000
    59  H    1.000000
    60  H    1.000000
    61  H    1.000000
    62  H    1.000000
    63  H    1.000000
    64  H    1.000000
    65  H    1.000000
    66  H    1.000000
    67  H    1.000000
    68  H    1.000000
    69  H    1.000000
    70  H    1.000000
    71  H    1.000000
    72  H    1.000000
    73  H    1.000000
    74  H    1.000000
    75  H    1.000000
    76  H    1.000000
    77  H    1.000000
    78  H    1.000000
    79  H    1.000000
    80  Mg  12.000000
    81  C    6.000000
    82  C    6.000000
    83  C    6.000000
    84  C    6.000000
    85  N    7.000000
    86  C    6.000000
    87  C    6.000000
    88  C    6.000000
    89  C    6.000000
    90  C    6.000000
    91  C    6.000000
    92  C    6.000000
    93  H    1.000000
    94  N    7.000000
    95  C    6.000000
    96  C    6.000000
    97  C    6.000000
    98  C    6.000000
    99  C    6.000000
   100  C    6.000000
   101  O    8.000000
   102  C    6.000000
   103  N    7.000000
   104  C    6.000000
   105  C    6.000000
   106  C    6.000000
   107  C    6.000000
   108  C    6.000000
   109  C    6.000000
   110  C    6.000000
   111  N    7.000000
   112  C    6.000000
   113  C    6.000000
   114  C    6.000000
   115  C    6.000000
   116  C    6.000000
   117  C    6.000000
   118  O    8.000000
   119  C    6.000000
   120  C    6.000000
   121  O    8.000000
   122  O    8.000000
   123  C    6.000000
   124  H    1.000000
   125  H    1.000000
   126  H    1.000000
   127  H    1.000000
   128  H    1.000000
   129  H    1.000000
   130  H    1.000000
   131  H    1.000000
   132  H    1.000000
   133  H    1.000000
   134  H    1.000000
   135  H    1.000000
   136  H    1.000000
   137  H    1.000000
   138  H    1.000000
   139  H    1.000000
   140  H    1.000000
   141  H    1.000000
   142  H    1.000000
   143  H    1.000000
   144  H    1.000000
   145  H    1.000000
   146  H    1.000000
   147  H    1.000000
   148  H    1.000000
   149  H    1.000000
   150  H    1.000000
   151  H    1.000000
   152  H    1.000000
   153  H    1.000000
   154  H    1.000000
   155  H    1.000000
   156  H    1.000000
   157  H    1.000000
   158  H    1.000000
 Sum of Mulliken charges = 624.00000

 Dipole moment (field-independent basis, Debye):
    X=              0.0000    Y=             -0.0000    Z=             -0.0000  Tot=              0.0000
 Quadrupole moment (field-independent basis, Debye-Ang):
   XX=              0.0000   YY=             -0.0000   ZZ=              0.0000
   XY=             -0.0000   XZ=             -0.0000   YZ=             -0.0000

 Normal termination of Gaussian 16 at Fri Oct 15 07:10:56 2021.
