 Gaussian 16, Revision A.03,
 Gaussian 16:  ES64L-G16RevA.03 25-Dec-2016

 --------------------------------------------------------
 #p PBE1PBE/Def2SVP td=(nstates=5) density=(transition=1)
 --------------------------------------------------------

 --------------------------------
 TDDFT excited states in gaussian
 --------------------------------
 Symbolic Z-matrix:
 Charge =  0 Multiplicity = 1

                         Standard orientation:
 ---------------------------------------------------------------------
 Center     Atomic      Atomic             Coordinates (Angstroms)
 Number     Number       Type             X           Y           Z
 ---------------------------------------------------------------------
      1         12           0      -16.098639   -0.855745   -0.212999
      2          6           0      -18.205917    1.912957    0.688228
      3          6           0      -13.709943    1.571512   -1.199629
      4          6           0      -13.943720   -3.388255   -1.280254
      5          6           0      -18.562797   -3.033016    0.376680
      6          7           0      -16.112011    1.556168   -0.420092
      7          6           0      -17.021228    2.396364    0.119075
      8          6           0      -16.605162    3.885482   -0.159489
      9          6           0      -15.267563    3.664260   -0.952291
     10          6           0      -14.938366    2.161813   -0.796658
     11          6           0      -15.374398    4.134063   -2.445087
     12          6           0      -16.410101    4.709209    1.113183
     13          6           0      -16.990102    6.085480    1.104240
     14          1           0      -16.915689    6.927234    2.386352
     15          7           0      -14.074468   -0.945576   -0.904960
     16          6           0      -13.301776    0.159669   -1.245568
     17          6           0      -12.000648   -0.315589   -1.672398
     18          6           0      -11.987583   -1.699396   -1.615125
     19          6           0      -13.409695   -2.085715   -1.325743
     20          6           0      -10.912638    0.555948   -2.230758
     21          6           0      -10.858611   -2.747724   -1.980967
     22          8           0      -10.918229   -3.950766   -1.908514
     23          6           0       -9.473984   -2.233156   -2.310015
     24          7           0      -16.242659   -2.843515   -0.570905
     25          6           0      -15.286389   -3.728420   -0.996207
     26          6           0      -15.870583   -5.134347   -1.268118
     27          6           0      -17.264609   -5.081632   -0.509643
     28          6           0      -17.347819   -3.541769   -0.183218
     29          6           0      -15.945281   -5.481225   -2.789517
     30          6           0      -17.341678   -5.974375    0.766169
     31          6           0      -16.464888   -5.533975    1.936252
     32          7           0      -17.979274   -0.686402    0.362738
     33          6           0      -18.925793   -1.709117    0.649878
     34          6           0      -20.187684   -1.128315    1.103225
     35          6           0      -19.922177    0.250803    1.178328
     36          6           0      -18.591392    0.485707    0.742031
     37          6           0      -21.395574   -1.864838    1.456140
     38          6           0      -20.562517    1.513340    1.532818
     39          8           0      -21.669826    1.716781    2.001818
     40          6           0      -19.502322    2.678925    1.145584
     41          6           0      -19.442284    3.423000    2.481788
     42          8           0      -18.905823    3.061237    3.544550
     43          8           0      -20.131398    4.545657    2.374284
     44          6           0      -19.999351    5.604939    3.455214
     45          1           0      -12.955293    2.326011   -1.430023
     46          1           0      -13.344250   -4.244873   -1.598130
     47          1           0      -19.296725   -3.803893    0.619499
     48          1           0      -17.462340    4.307323   -0.683194
     49          1           0      -14.432466    4.190534   -0.488018
     50          1           0      -14.628177    4.857907   -2.772658
     51          1           0      -16.381967    4.416222   -2.751110
     52          1           0      -15.135466    3.386431   -3.201766
     53          1           0      -15.366129    5.005172    1.008579
     54          1           0      -16.571503    4.134953    2.026145
     55          1           0      -18.011623    6.244055    0.754843
     56          1           0      -16.363356    6.607364    0.381019
     57          1           0      -11.148851    1.612842   -2.109846
     58          1           0      -10.684862    0.395618   -3.285717
     59          1           0       -9.941128    0.466725   -1.744368
     60          1           0       -9.035824   -1.665611   -1.489106
     61          1           0       -9.668327   -1.656298   -3.214264
     62          1           0       -8.948805   -3.130440   -2.637433
     63          1           0      -15.111240   -5.808256   -0.869888
     64          1           0      -18.168499   -5.131492   -1.117168
     65          1           0      -15.245192   -6.265778   -3.076544
     66          1           0      -15.878242   -4.664717   -3.507636
     67          1           0      -16.975559   -5.828500   -2.869232
     68          1           0      -17.306809   -7.013552    0.438764
     69          1           0      -18.357975   -5.897377    1.152206
     70          1           0      -15.785050   -4.706380    1.737037
     71          1           0      -15.848067   -6.399225    2.177827
     72          1           0      -16.992306   -5.114233    2.792071
     73          1           0      -22.238775   -1.246947    1.765542
     74          1           0      -21.093845   -2.526163    2.268270
     75          1           0      -21.662352   -2.485497    0.599561
     76          1           0      -19.922872    3.407913    0.452920
     77          1           0      -20.375181    6.526564    3.010304
     78          1           0      -18.963416    5.812277    3.721725
     79          1           0      -20.505293    5.342761    4.385127
     80         12           0       16.318253   -0.561765    0.429011
     81          6           0       15.752004    2.494798   -1.348114
     82          6           0       17.785725    1.236981    2.959810
     83          6           0       17.308034   -3.406375    1.957523
     84          6           0       15.697802   -2.251745   -2.604199
     85          7           0       16.695860    1.607558    0.742417
     86          6           0       16.330626    2.701806   -0.057457
     87          6           0       16.687315    3.978140    0.660481
     88          6           0       17.759642    3.482696    1.720067
     89          6           0       17.438699    1.960519    1.784985
     90          6           0       19.187135    3.778692    1.136534
     91          6           0       15.451188    4.773075    1.211306
     92          6           0       15.594167    6.184731    0.935493
     93          1           0       14.251570    7.054289    1.125302
     94          7           0       17.250592   -0.931190    2.313127
     95          6           0       17.737972   -0.063509    3.208050
     96          6           0       18.173479   -0.776543    4.369397
     97          6           0       18.069296   -2.127422    4.112208
     98          6           0       17.448040   -2.242501    2.712659
     99          6           0       18.857178   -0.060170    5.577067
    100          6           0       18.375620   -3.319969    5.041402
    101          8           0       18.251349   -4.440384    4.615741
    102          6           0       18.737030   -3.097627    6.491107
    103          7           0       16.729195   -2.513270   -0.350616
    104          6           0       17.003558   -3.530111    0.557329
    105          6           0       16.822839   -4.870712   -0.077143
    106          6           0       16.281273   -4.508660   -1.545341
    107          6           0       16.161485   -3.003600   -1.498035
    108          6           0       18.051517   -5.714490   -0.025597
    109          6           0       14.906828   -5.226423   -2.036009
    110          6           0       14.961937   -6.091663   -3.232531
    111          7           0       15.775944   -0.057304   -1.576194
    112          6           0       15.575454   -0.877875   -2.663255
    113          6           0       15.123995   -0.002232   -3.830419
    114          6           0       15.068238    1.314006   -3.329776
    115          6           0       15.525351    1.233742   -1.967729
    116          6           0       14.835226   -0.520536   -5.245873
    117          6           0       14.871959    2.668655   -3.749142
    118          8           0       14.518231    3.131334   -4.857118
    119          6           0       15.464964    3.511592   -2.546611
    120          6           0       14.435313    4.654425   -2.297497
    121          8           0       13.619515    4.582706   -1.360173
    122          8           0       14.660391    5.673288   -3.162959
    123          6           0       13.536970    6.664937   -3.041891
    124          1           0       18.046935    1.801907    3.857483
    125          1           0       17.603008   -4.342074    2.438408
    126          1           0       15.390509   -2.690116   -3.555828
    127          1           0       17.240533    4.577479   -0.062243
    128          1           0       17.655235    4.000518    2.672853
    129          1           0       19.478378    3.103305    0.332472
    130          1           0       19.908627    3.763716    1.952329
    131          1           0       19.200416    4.795923    0.744481
    132          1           0       15.520414    4.726370    2.298364
    133          1           0       14.506552    4.341733    0.879237
    134          1           0       15.783716    6.361241   -0.123423
    135          1           0       16.379099    6.566593    1.588771
    136          1           0       18.246065   -0.376160    6.422475
    137          1           0       18.834402    1.028794    5.538177
    138          1           0       19.904808   -0.354762    5.637150
    139          1           0       19.000280   -4.041344    6.968938
    140          1           0       17.770553   -2.696958    6.796712
    141          1           0       19.555402   -2.378711    6.529109
    142          1           0       16.023539   -5.308166    0.521359
    143          1           0       17.061104   -4.808791   -2.244816
    144          1           0       17.806026   -6.504524    0.682977
    145          1           0       18.901752   -5.202339    0.424591
    146          1           0       18.384585   -6.119662   -0.981384
    147          1           0       14.295800   -4.369212   -2.318606
    148          1           0       14.454493   -5.700986   -1.166236
    149          1           0       14.346854   -5.690587   -4.037662
    150          1           0       14.427179   -6.935163   -2.797242
    151          1           0       15.974344   -6.402990   -3.493433
    152          1           0       15.765638   -0.395509   -5.798639
    153          1           0       14.039821    0.036566   -5.740827
    154          1           0       14.495041   -1.554107   -5.181356
    155          1           0       16.406875    3.881826   -2.949060
    156          1           0       12.593863    6.346422   -3.485660
    157          1           0       13.758337    7.655674   -3.437470
    158          1           0       13.420718    6.841701   -1.972431
 ---------------------------------------------------------------------

 SCF Done:  E(RPBE1PBE) =  -4067.33028181     A.U. after   16 cycles

 Excitation energies and oscillator strengths:

 Excited State   1:      Singlet-A      1.7429 eV  711.35 nm  f=0.0000  <S**2>=0.000
     312 -> 313        0.70710
 This state for optimization and/or second-order correction.
 Total Energy, E(TD-HF/TD-DFT) =  -4067.26623001
 Copying the excited state density for this state as the 1-particle RhoCI density.

 Excited State   2:      Singlet-A      1.8202 eV  681.14 nm  f=0.3611  <S**2>=0.000
     310 -> 316       -0.17624
     311 -> 313        0.68971
     311 <- 313       -0.10866

 Excited State   3:      Singlet-A      1.8313 eV  677.02 nm  f=0.3444  <S**2>=0.000
     309 -> 315        0.18141
     312 -> 314        0.68660

 Excited State   4:      Singlet-A      2.1579 eV  574.56 nm  f=0.0000  <S**2>=0.000
     311 -> 314        0.70710

 Excited State   5:      Singlet-A      2.2320 eV  555.48 nm  f=0.0917  <S**2>=0.000
     310 -> 313        0.63929
     311 -> 316        0.29198

 The electronic state is 1-A.
 Alpha  occ. eigenvalues --  -46.92826 -46.91688 -19.26871 -19.25558 -19.20098
 Alpha  occ. eigenvalues --  -19.19626 -19.19606 -19.19482 -19.19196 -19.18251
 Alpha  occ. eigenvalues --  -14.41938 -14.41740 -14.41514 -14.41089 -14.39706
 Alpha  occ. eigenvalues --  -14.39392 -14.38941 -14.38938 -10.36815 -10.35493
 Alpha  occ. eigenvalues --  -10.32657 -10.32615 -10.32584 -10.32236 -10.29407
 Alpha  occ. eigenvalues --  -10.29211 -10.29063 -10.28960 -10.28923 -10.28903
 Alpha  occ. eigenvalues --  -10.28865 -10.28825 -10.28797 -10.28656 -10.28625
 Alpha  occ. eigenvalues --  -10.28474 -10.28264 -10.27809 -10.27653 -10.27244
 Alpha  occ. eigenvalues --  -10.26730 -10.26679 -10.26644 -10.26529 -10.26499
 Alpha  occ. eigenvalues --  -10.26388 -10.26324 -10.26279 -10.26223 -10.26212
 Alpha  occ. eigenvalues --  -10.26191 -10.26179 -10.26104 -10.25963 -10.25923
 Alpha  occ. eigenvalues --  -10.25902 -10.25819 -10.25572 -10.25313 -10.25280
 Alpha  occ. eigenvalues --  -10.25280 -10.25245 -10.25146 -10.24895 -10.24806
 Alpha  occ. eigenvalues --  -10.24470 -10.24235 -10.24189 -10.24181 -10.24099
 Alpha  occ. eigenvalues --  -10.24052 -10.23799 -10.23695 -10.23668 -10.23632
 Alpha  occ. eigenvalues --  -10.23612 -10.23605 -10.23549 -10.23448 -10.23190
 Alpha  occ. eigenvalues --  -10.22934 -10.22930 -10.22810 -10.22800 -10.22739
 Alpha  occ. eigenvalues --  -10.22524  -3.14748  -3.13955  -1.87583  -1.87109
 Alpha  occ. eigenvalues --   -1.86971  -1.86782  -1.86347  -1.86184  -1.10883
 Alpha  occ. eigenvalues --   -1.10715  -1.06283  -1.06116  -1.04802  -1.02755
 Alpha  occ. eigenvalues --   -1.02003  -1.00078  -0.98586  -0.98362  -0.97713
 Alpha  occ. eigenvalues --   -0.97598  -0.97385  -0.96837  -0.96351  -0.96271
 Alpha  occ. eigenvalues --   -0.85701  -0.85191  -0.83459  -0.83213  -0.82996
 Alpha  occ. eigenvalues --   -0.82945  -0.82511  -0.82261  -0.81683  -0.81608
 Alpha  occ. eigenvalues --   -0.81526  -0.81211  -0.80729  -0.79961  -0.78700
 Alpha  occ. eigenvalues --   -0.78363  -0.78166  -0.77837  -0.76883  -0.76611
 Alpha  occ. eigenvalues --   -0.76555  -0.75625  -0.75306  -0.75069  -0.74816
 Alpha  occ. eigenvalues --   -0.74470  -0.72395  -0.72389  -0.71882  -0.71587
 Alpha  occ. eigenvalues --   -0.71221  -0.70939  -0.70250  -0.69840  -0.69456
 Alpha  occ. eigenvalues --   -0.69253  -0.67030  -0.66615  -0.66059  -0.65983
 Alpha  occ. eigenvalues --   -0.64384  -0.63154  -0.63137  -0.62355  -0.61939
 Alpha  occ. eigenvalues --   -0.61885  -0.60737  -0.60628  -0.59862  -0.59597
 Alpha  occ. eigenvalues --   -0.59541  -0.59377  -0.59111  -0.59028  -0.58834
 Alpha  occ. eigenvalues --   -0.58626  -0.56715  -0.56375  -0.54422  -0.54084
 Alpha  occ. eigenvalues --   -0.53897  -0.53713  -0.53456  -0.53038  -0.52856
 Alpha  occ. eigenvalues --   -0.52364  -0.52056  -0.51938  -0.51578  -0.50620
 Alpha  occ. eigenvalues --   -0.50529  -0.50249  -0.50055  -0.49971  -0.49684
 Alpha  occ. eigenvalues --   -0.49606  -0.49129  -0.48939  -0.48599  -0.48481
 Alpha  occ. eigenvalues --   -0.48131  -0.48084  -0.47782  -0.47707  -0.47616
 Alpha  occ. eigenvalues --   -0.47505  -0.47359  -0.47235  -0.47181  -0.47059
 Alpha  occ. eigenvalues --   -0.46936  -0.46612  -0.46507  -0.46175  -0.45631
 Alpha  occ. eigenvalues --   -0.45549  -0.45438  -0.45232  -0.45073  -0.44914
 Alpha  occ. eigenvalues --   -0.44691  -0.44549  -0.44360  -0.44178  -0.44032
 Alpha  occ. eigenvalues --   -0.43858  -0.43852  -0.43818  -0.43536  -0.43449
 Alpha  occ. eigenvalues --   -0.43329  -0.43194  -0.43047  -0.42860  -0.42717
 Alpha  occ. eigenvalues --   -0.42598  -0.42512  -0.42213  -0.42167  -0.42129
 Alpha  occ. eigenvalues --   -0.41475  -0.41366  -0.41324  -0.41240  -0.41038
 Alpha  occ. eigenvalues --   -0.41018  -0.40945  -0.40892  -0.40542  -0.40536
 Alpha  occ. eigenvalues --   -0.40273  -0.40187  -0.39879  -0.39677  -0.39516
 Alpha  occ. eigenvalues --   -0.39300  -0.39199  -0.39115  -0.38977  -0.38803
 Alpha  occ. eigenvalues --   -0.38793  -0.38508  -0.38391  -0.38305  -0.38221
 Alpha  occ. eigenvalues --   -0.37912  -0.37850  -0.37841  -0.37812  -0.37746
 Alpha  occ. eigenvalues --   -0.37640  -0.37290  -0.37198  -0.36946  -0.36891
 Alpha  occ. eigenvalues --   -0.36856  -0.36706  -0.36423  -0.36209  -0.36068
 Alpha  occ. eigenvalues --   -0.35709  -0.35699  -0.35245  -0.35137  -0.35118
 Alpha  occ. eigenvalues --   -0.34720  -0.34519  -0.34001  -0.33765  -0.33542
 Alpha  occ. eigenvalues --   -0.33490  -0.33033  -0.32979  -0.32505  -0.32293
 Alpha  occ. eigenvalues --   -0.32117  -0.32000  -0.31700  -0.31188  -0.31058
 Alpha  occ. eigenvalues --   -0.30640  -0.29957  -0.29308  -0.29086  -0.29003
 Alpha  occ. eigenvalues --   -0.28649  -0.28393  -0.27608  -0.27130  -0.26894
 Alpha  occ. eigenvalues --   -0.26056  -0.26015  -0.25980  -0.25822  -0.25657
 Alpha  occ. eigenvalues --   -0.25504  -0.25497  -0.25102  -0.21080  -0.21018
 Alpha  occ. eigenvalues --   -0.18615  -0.17946
 Alpha virt. eigenvalues --   -0.11134  -0.10284  -0.05901  -0.05474  -0.04261
 Alpha virt. eigenvalues --   -0.03570  -0.02033  -0.01996  -0.00927   0.00445
 Alpha virt. eigenvalues --    0.00623   0.00883   0.01001   0.01380   0.01647

 Mulliken charges:
               1
     1  Mg  12.000000
     2  C    6.000000
     3  C    6.000000
     4  C    6.000000
     5  C    6.000000
     6  N    7.000000
     7  C    6.000000
     8  C    6.000000
     9  C    6.000000
    10  C    6.000000
    11  C    6.000000
    12  C    6.000000
    13  C    6.000000
    14  H    1.000000
    15  N    7.000000
    16  C    6.000000
    17  C    6.000000
    18  C    6.000000
    19  C    6.000000
    20  C    6.000000
    21  C    6.000000
    22  O    8.000000
    23  C    6.000000
    24  N    7.000000
    25  C    6.000000
    26  C    6.000000
    27  C    6.000000
    28  C    6.000000
    29  C    6.000000
    30  C    6.000000
    31  C    6.000000
    32  N    7.000000
    33  C    6.000000
    34  C    6.000000
    35  C    6.000000
    36  C    6.000000
    37  C    6.000000
    38  C    6.000000
    39  O    8.000000
    40  C    6.000000
    41  C    6.000000
    42  O    8.000000
    43  O    8.000000
    44  C    6.000000
    45  H    1.000000
    46  H    1.000000
    47  H    1.000000
    48  H    1.000000
    49  H    1.000000
    50  H    1.000000
    51  H    1.000000
    52  H    1.000000
    53  H    1.000000
    54  H    1.000000
    55  H    1.000000
    56  H    1.000000
    57  H    1.000000
    58  H    1.000000
    59  H    1.000000
    60  H    1.000000
    61  H    1.000000
    62  H    1.000000
    63  H    1.000000
    64  H    1.000000
    65  H    1.000000
    66  H    1.000000
    67  H    1.000000
    68  H    1.000000
    69  H    1.000000
    70  H    1.000000
    71  H    1.000000
    72  H    1.000000
    73  H    1.000000
    74  H    1.000000
    75  H    1.000000
    76  H    1.000000
    77  H    1.000000
    78  H    1.000000
    79  H    1.000000
    80  Mg  12.000000
    81  C    6.000000
    82  C    6.000000
    83  C    6.000000
    84  C    6.000000
    85  N    7.000000
    86  C    6.000000
    87  C    6.000000
    88  C    6.000000
    89  C    6.000000
    90  C    6.000000
    91  C    6.000000
    92  C    6.000000
    93  H    1.000000
    94  N    7.000000
    95  C    6.000000
    96  C    6.000000
    97  C    6.000000
    98  C    6.000000
    99  C    6.000000
   100  C    6.000000
   101  O    8.000000
   102  C    6.000000
   103  N    7.000000
   104  C    6.000000
   105  C    6.000000
   106  C    6.000000
   107  C    6.000000
   108  C    6.000000
   109  C    6.000000
   110  C    6.000000
   111  N    7.000000
   112  C    6.000000
   113  C    6.000000
   114  C    6.000000
   115  C    6.000000
   116  C    6.000000
   117  C    6.000000
   118  O    8.000000
   119  C    6.000000
   120  C    6.000000
   121  O    8.000000
   122  O    8.000000
   123  C    6.000000
   124  H    1.000000
   125  H    1.000000
   126  H    1.000000
   127  H    1.000000
   128  H    1.000000
   129  H    1.000000
   130  H    1.000000
   131  H    1.000000
   132  H    1.000000
   133  H    1.000000
   134  H    1.000000
   135  H    1.000000
   136  H    1.000000
   137  H    1.000000
   138  H    1.000000
   139  H    1.000000
   140  H    1.000000
   141  H    1.000000
   142  H    1.000000
   143  H    1.000000
   144  H    1.000000
   145  H    1.000000
   146  H    1.000000
   147  H    1.000000
   148  H    1.000000
   149  H    1.000000
   150  H    1.000000
   151  H    1.000000
   152  H    1.000000
   153  H    1.000000
   154  H    1.000000
   155  H    1.000000
   156  H    1.000000
   157  H    1.000000
   158  H    1.000000
 Sum of Mulliken charges = 624.00000

 Dipole moment (field-independent basis, Debye):
    X=             -0.0000    Y=             -0.0000    Z=              0.0000  Tot=              0.0000
 Quadrupole moment (field-independent basis, Debye-Ang):
   XX=              0.0000   YY=              0.0000   ZZ=             -0.0000
   XY=             -0.0000   XZ=             -0.0000   YZ=             -0.0000

 Normal termination of Gaussian 16 at Thu Oct 14 15:10:04 2021.
