 Gaussian 16, Revision A.03,
 Gaussian 16:  ES64L-G16RevA.03 25-Dec-2016

 --------------------------------------------------------
 #p PBE1PBE/Def2SVP td=(nstates=5) density=(transition=1)
 --------------------------------------------------------

 --------------------------------
 TDDFT excited states in gaussian
 --------------------------------
 Symbolic Z-matrix:
 Charge =  0 Multiplicity = 1

                         Standard orientation:
 ---------------------------------------------------------------------
 Center     Atomic      Atomic             Coordinates (Angstroms)
 Number     Number       Type             X           Y           Z
 ---------------------------------------------------------------------
      1         12           0       -8.944619   -0.330808   -0.221865
      2          6           0       -7.173679    2.455910    0.876853
      3          6           0      -11.147200    1.670699   -1.801114
      4          6           0      -10.832803   -3.062915   -0.851019
      5          6           0       -6.944044   -2.267028    1.812477
      6          7           0       -9.119730    1.870809   -0.405096
      7          6           0       -8.163367    2.787000   -0.047998
      8          6           0       -8.535654    4.136805   -0.531876
      9          6           0       -9.823525    3.967430   -1.346165
     10          6           0      -10.092116    2.405383   -1.228650
     11          6           0      -11.027506    4.833255   -1.008987
     12          6           0       -7.311650    4.833220   -1.358267
     13          6           0       -6.718568    6.145487   -0.793936
     14          1           0       -6.323313    7.274548   -1.713661
     15          7           0      -10.668634   -0.671684   -1.288547
     16          6           0      -11.467677    0.300689   -1.871010
     17          6           0      -12.607983   -0.307560   -2.453740
     18          6           0      -12.547689   -1.702362   -2.187482
     19          6           0      -11.303031   -1.866946   -1.429613
     20          6           0      -13.573550    0.589823   -3.322548
     21          6           0      -13.622905   -2.719686   -2.565416
     22          8           0      -13.609507   -3.923285   -2.266110
     23          6           0      -14.742508   -2.307595   -3.416412
     24          7           0       -9.086072   -2.361756    0.562353
     25          6           0       -9.853249   -3.314872    0.075059
     26          6           0       -9.639692   -4.641864    0.837694
     27          6           0       -8.132494   -4.405753    1.246881
     28          6           0       -8.014662   -2.886150    1.185449
     29          6           0      -10.508297   -4.990977    2.102571
     30          6           0       -7.013800   -5.124955    0.350946
     31          6           0       -6.959696   -4.801962   -1.086002
     32          7           0       -7.342322   -0.049739    1.181402
     33          6           0       -6.594993   -0.966264    1.946828
     34          6           0       -5.608548   -0.259654    2.700089
     35          6           0       -5.819001    1.068068    2.385296
     36          6           0       -6.825025    1.132046    1.366263
     37          6           0       -4.794406   -0.797944    3.772519
     38          6           0       -5.269681    2.335761    2.506217
     39          8           0       -4.324817    2.761637    3.178453
     40          6           0       -6.153118    3.336017    1.629867
     41          6           0       -6.879581    4.190154    2.615645
     42          8           0       -7.655422    3.915116    3.506804
     43          8           0       -6.475456    5.434892    2.356076
     44          6           0       -7.087408    6.514076    3.198555
     45          1           0      -11.649500    2.392463   -2.448536
     46          1           0      -11.385059   -3.933598   -1.208753
     47          1           0       -6.277282   -2.901128    2.400166
     48          1           0       -8.726264    4.712093    0.373260
     49          1           0       -9.600260    4.141699   -2.398493
     50          1           0      -11.509301    4.112156   -0.349743
     51          1           0      -11.614960    5.179835   -1.859396
     52          1           0      -10.890706    5.750917   -0.437547
     53          1           0       -7.633483    4.994379   -2.386701
     54          1           0       -6.404687    4.228859   -1.388265
     55          1           0       -5.769876    5.869615   -0.332615
     56          1           0       -7.309869    6.540260    0.031201
     57          1           0      -14.591699    0.449803   -2.959906
     58          1           0      -13.449480    0.042523   -4.257063
     59          1           0      -13.440895    1.671430   -3.295547
     60          1           0      -15.291721   -1.480962   -2.967832
     61          1           0      -15.486736   -3.097731   -3.319722
     62          1           0      -14.497155   -2.154752   -4.467698
     63          1           0       -9.565447   -5.445851    0.105306
     64          1           0       -8.072636   -4.830815    2.248516
     65          1           0      -10.718270   -4.161180    2.776370
     66          1           0       -9.916764   -5.773674    2.578880
     67          1           0      -11.477490   -5.392670    1.805740
     68          1           0       -7.090722   -6.212501    0.356328
     69          1           0       -6.016791   -4.761608    0.599882
     70          1           0       -6.410031   -3.861944   -1.105317
     71          1           0       -7.889028   -4.629723   -1.629788
     72          1           0       -6.409574   -5.469484   -1.748423
     73          1           0       -5.458547   -0.765156    4.637022
     74          1           0       -3.887784   -0.237957    3.999941
     75          1           0       -4.389451   -1.786950    3.555314
     76          1           0       -5.575174    3.888268    0.888776
     77          1           0       -7.793014    7.008060    2.530196
     78          1           0       -6.306002    7.175212    3.572577
     79          1           0       -7.679290    6.203197    4.059904
     80         12           0        8.558875   -1.008090   -0.440137
     81          6           0       10.792799    1.677841   -0.616234
     82          6           0        6.019423    1.069913   -0.493388
     83          6           0        6.484990   -3.584901    0.488761
     84          6           0       11.279749   -3.184433    0.130732
     85          7           0        8.474503    1.087821   -0.643531
     86          6           0        9.469196    2.032670   -0.768296
     87          6           0        8.904858    3.406580   -1.106090
     88          6           0        7.381850    3.195341   -0.828679
     89          6           0        7.262688    1.712889   -0.754439
     90          6           0        6.713949    3.951282    0.299585
     91          6           0        9.274964    3.937716   -2.527765
     92          6           0        8.733799    5.331342   -2.864984
     93          1           0        9.754425    6.338638   -3.374075
     94          7           0        6.434617   -1.216491    0.024100
     95          6           0        5.542314   -0.232074   -0.211351
     96          6           0        4.213073   -0.745076   -0.027207
     97          6           0        4.341627   -2.087228    0.369813
     98          6           0        5.807356   -2.339746    0.317556
     99          6           0        2.958191    0.088174   -0.180619
    100          6           0        3.286593   -3.101731    0.667551
    101          8           0        3.472439   -4.248172    1.156418
    102          6           0        1.828375   -2.808214    0.336758
    103          7           0        8.847567   -3.038284    0.230328
    104          6           0        7.836984   -3.854144    0.610775
    105          6           0        8.405843   -5.358240    0.828532
    106          6           0        9.856232   -5.244624    0.240783
    107          6           0       10.022526   -3.764140    0.115545
    108          6           0        8.327461   -5.721024    2.362995
    109          6           0        9.916783   -5.833447   -1.215972
    110          6           0        8.911827   -5.358470   -2.253864
    111          7           0       10.692928   -0.845013   -0.322800
    112          6           0       11.612266   -1.831063   -0.091283
    113          6           0       12.865534   -1.232845   -0.118331
    114          6           0       12.676776    0.167820   -0.297276
    115          6           0       11.325039    0.356997   -0.416569
    116          6           0       14.200969   -1.845461    0.117562
    117          6           0       13.298938    1.507403   -0.399334
    118          8           0       14.451852    1.912366   -0.303716
    119          6           0       12.077947    2.533916   -0.715522
    120          6           0       12.182542    3.747862    0.137224
    121          8           0       12.595992    3.757520    1.334681
    122          8           0       11.932679    4.790393   -0.643475
    123          6           0       12.430191    6.050263   -0.124935
    124          1           0        5.136627    1.700117   -0.620709
    125          1           0        5.836356   -4.424246    0.750603
    126          1           0       12.098486   -3.903957    0.180533
    127          1           0        9.429778    4.080025   -0.428304
    128          1           0        6.754461    3.455342   -1.681946
    129          1           0        7.223374    4.843463    0.663672
    130          1           0        6.530368    3.265773    1.127351
    131          1           0        5.676097    4.107018    0.004453
    132          1           0        8.953392    3.219076   -3.282025
    133          1           0       10.359899    3.965887   -2.623454
    134          1           0        8.531204    5.907139   -1.962101
    135          1           0        7.856969    5.270762   -3.510328
    136          1           0        3.130966    1.154942   -0.322448
    137          1           0        2.326903    0.162647    0.704499
    138          1           0        2.316863   -0.239525   -0.999375
    139          1           0        1.482986   -2.029615    1.016331
    140          1           0        1.167273   -3.612919    0.657664
    141          1           0        1.656807   -2.618687   -0.723456
    142          1           0        7.767303   -6.069189    0.304180
    143          1           0       10.503485   -5.661371    1.012434
    144          1           0        7.706687   -5.036168    2.940941
    145          1           0        9.290886   -5.713487    2.873014
    146          1           0        7.861348   -6.685491    2.559418
    147          1           0        9.775220   -6.887360   -0.976320
    148          1           0       10.886023   -5.740192   -1.704915
    149          1           0        8.116159   -4.789444   -1.772531
    150          1           0        8.516080   -6.116667   -2.928730
    151          1           0        9.532061   -4.754496   -2.916199
    152          1           0       14.420016   -2.703986   -0.517800
    153          1           0       14.164584   -2.209757    1.143831
    154          1           0       15.012276   -1.121806    0.045783
    155          1           0       12.256499    2.832091   -1.748307
    156          1           0       12.899438    6.623960   -0.925152
    157          1           0       13.192555    5.986134    0.651092
    158          1           0       11.553988    6.590215    0.235461
 ---------------------------------------------------------------------

 SCF Done:  E(RPBE1PBE) =  -4067.36469272     A.U. after   17 cycles

 Excitation energies and oscillator strengths:

 Excited State   1:      Singlet-A      1.8444 eV  672.22 nm  f=0.6807  <S**2>=0.000
     310 -> 316        0.12155
     311 -> 314       -0.42454
     312 -> 313        0.55089
 This state for optimization and/or second-order correction.
 Total Energy, E(TD-HF/TD-DFT) =  -4067.29691185
 Copying the excited state density for this state as the 1-particle RhoCI density.

 Excited State   2:      Singlet-A      1.8447 eV  672.10 nm  f=0.0000  <S**2>=0.000
     311 -> 313        0.70702

 Excited State   3:      Singlet-A      1.8656 eV  664.58 nm  f=0.0811  <S**2>=0.000
     309 -> 315        0.13143
     311 -> 314        0.54719
     312 -> 313        0.42582

 Excited State   4:      Singlet-A      1.8686 eV  663.50 nm  f=0.0000  <S**2>=0.000
     312 -> 314        0.70705

 Excited State   5:      Singlet-A      2.1530 eV  575.86 nm  f=0.1306  <S**2>=0.000
     310 -> 313        0.66822
     312 -> 316       -0.19754

 The electronic state is 1-A.
 Alpha  occ. eigenvalues --  -46.92916 -46.92697 -19.27279 -19.25888 -19.19500
 Alpha  occ. eigenvalues --  -19.19351 -19.19056 -19.19050 -19.18851 -19.18691
 Alpha  occ. eigenvalues --  -14.42273 -14.41823 -14.41394 -14.41314 -14.39560
 Alpha  occ. eigenvalues --  -14.39169 -14.38805 -14.37808 -10.36257 -10.35806
 Alpha  occ. eigenvalues --  -10.32609 -10.32363 -10.32147 -10.31498 -10.29527
 Alpha  occ. eigenvalues --  -10.29400 -10.29217 -10.29125 -10.29102 -10.28796
 Alpha  occ. eigenvalues --  -10.28639 -10.28535 -10.28189 -10.28110 -10.28005
 Alpha  occ. eigenvalues --  -10.27968 -10.27902 -10.27697 -10.26982 -10.26980
 Alpha  occ. eigenvalues --  -10.26818 -10.26707 -10.26609 -10.26573 -10.26544
 Alpha  occ. eigenvalues --  -10.26275 -10.26158 -10.26099 -10.26046 -10.26026
 Alpha  occ. eigenvalues --  -10.26004 -10.25903 -10.25868 -10.25768 -10.25757
 Alpha  occ. eigenvalues --  -10.25757 -10.25625 -10.25553 -10.25485 -10.25483
 Alpha  occ. eigenvalues --  -10.25435 -10.25360 -10.25178 -10.25143 -10.25090
 Alpha  occ. eigenvalues --  -10.24837 -10.24625 -10.24453 -10.24178 -10.24154
 Alpha  occ. eigenvalues --  -10.24154 -10.24147 -10.24088 -10.23922 -10.23759
 Alpha  occ. eigenvalues --  -10.23676 -10.23595 -10.23548 -10.23162 -10.23094
 Alpha  occ. eigenvalues --  -10.23023 -10.22834 -10.22538 -10.22480 -10.22275
 Alpha  occ. eigenvalues --  -10.22226  -3.14909  -3.14670  -1.87753  -1.87519
 Alpha  occ. eigenvalues --   -1.87261  -1.87148  -1.87014  -1.86906  -1.12903
 Alpha  occ. eigenvalues --   -1.11980  -1.04006  -1.03683  -1.03521  -1.02790
 Alpha  occ. eigenvalues --   -1.02370  -1.00725  -1.00205  -0.99825  -0.99118
 Alpha  occ. eigenvalues --   -0.98867  -0.98241  -0.98033  -0.97501  -0.97153
 Alpha  occ. eigenvalues --   -0.86757  -0.86228  -0.83752  -0.83687  -0.83503
 Alpha  occ. eigenvalues --   -0.83237  -0.82878  -0.82525  -0.82439  -0.82120
 Alpha  occ. eigenvalues --   -0.82066  -0.81381  -0.81329  -0.80158  -0.79135
 Alpha  occ. eigenvalues --   -0.79033  -0.78692  -0.78025  -0.77553  -0.77121
 Alpha  occ. eigenvalues --   -0.76425  -0.76017  -0.75982  -0.75576  -0.75266
 Alpha  occ. eigenvalues --   -0.74792  -0.73263  -0.72836  -0.72160  -0.71894
 Alpha  occ. eigenvalues --   -0.71880  -0.71595  -0.70487  -0.70442  -0.69857
 Alpha  occ. eigenvalues --   -0.69514  -0.68109  -0.67205  -0.66322  -0.66075
 Alpha  occ. eigenvalues --   -0.64110  -0.63953  -0.63638  -0.63531  -0.62570
 Alpha  occ. eigenvalues --   -0.62362  -0.62189  -0.61776  -0.60454  -0.60108
 Alpha  occ. eigenvalues --   -0.59801  -0.59735  -0.59501  -0.59218  -0.59010
 Alpha  occ. eigenvalues --   -0.58662  -0.57298  -0.56810  -0.55326  -0.55177
 Alpha  occ. eigenvalues --   -0.54677  -0.54203  -0.54074  -0.53812  -0.53442
 Alpha  occ. eigenvalues --   -0.53091  -0.53003  -0.52579  -0.52081  -0.51816
 Alpha  occ. eigenvalues --   -0.51220  -0.50717  -0.50479  -0.50449  -0.50270
 Alpha  occ. eigenvalues --   -0.50262  -0.49959  -0.49877  -0.49810  -0.49525
 Alpha  occ. eigenvalues --   -0.49364  -0.48853  -0.48068  -0.47979  -0.47971
 Alpha  occ. eigenvalues --   -0.47609  -0.47459  -0.47438  -0.47228  -0.46995
 Alpha  occ. eigenvalues --   -0.46914  -0.46686  -0.46258  -0.46077  -0.46045
 Alpha  occ. eigenvalues --   -0.45894  -0.45540  -0.45160  -0.45145  -0.44780
 Alpha  occ. eigenvalues --   -0.44614  -0.44611  -0.44510  -0.44288  -0.44036
 Alpha  occ. eigenvalues --   -0.43996  -0.43800  -0.43615  -0.43442  -0.43334
 Alpha  occ. eigenvalues --   -0.43206  -0.43134  -0.42990  -0.42888  -0.42828
 Alpha  occ. eigenvalues --   -0.42660  -0.42147  -0.41953  -0.41948  -0.41703
 Alpha  occ. eigenvalues --   -0.41593  -0.41552  -0.41431  -0.41137  -0.41114
 Alpha  occ. eigenvalues --   -0.40950  -0.40927  -0.40727  -0.40672  -0.40590
 Alpha  occ. eigenvalues --   -0.40249  -0.40133  -0.39943  -0.39607  -0.39525
 Alpha  occ. eigenvalues --   -0.39330  -0.39174  -0.39148  -0.39035  -0.38984
 Alpha  occ. eigenvalues --   -0.38694  -0.38572  -0.38476  -0.38364  -0.38231
 Alpha  occ. eigenvalues --   -0.38112  -0.37964  -0.37959  -0.37499  -0.37498
 Alpha  occ. eigenvalues --   -0.37410  -0.37229  -0.37191  -0.37103  -0.36966
 Alpha  occ. eigenvalues --   -0.36900  -0.36597  -0.36407  -0.36194  -0.36152
 Alpha  occ. eigenvalues --   -0.36091  -0.35971  -0.35751  -0.35623  -0.35283
 Alpha  occ. eigenvalues --   -0.35263  -0.34550  -0.34442  -0.34142  -0.34064
 Alpha  occ. eigenvalues --   -0.33583  -0.33256  -0.33205  -0.32869  -0.32771
 Alpha  occ. eigenvalues --   -0.32270  -0.32232  -0.31923  -0.31570  -0.31567
 Alpha  occ. eigenvalues --   -0.31359  -0.31285  -0.29863  -0.29387  -0.29221
 Alpha  occ. eigenvalues --   -0.29175  -0.29139  -0.28180  -0.27296  -0.27292
 Alpha  occ. eigenvalues --   -0.26356  -0.26284  -0.25965  -0.25903  -0.25554
 Alpha  occ. eigenvalues --   -0.25458  -0.25188  -0.24349  -0.21154  -0.20924
 Alpha  occ. eigenvalues --   -0.19258  -0.19247
 Alpha virt. eigenvalues --   -0.11684  -0.11622  -0.05340  -0.04841  -0.04108
 Alpha virt. eigenvalues --   -0.04039  -0.02308  -0.01989  -0.00978  -0.00804
 Alpha virt. eigenvalues --   -0.00194   0.00599   0.00846   0.01715   0.01720

 Mulliken charges:
               1
     1  Mg  11.998366
     2  C    5.982147
     3  C    5.998095
     4  C    6.017512
     5  C    6.011351
     6  N    6.987769
     7  C    6.019256
     8  C    5.993577
     9  C    6.002853
    10  C    5.986284
    11  C    6.001486
    12  C    5.998888
    13  C    6.000004
    14  H    1.001120
    15  N    7.003819
    16  C    5.979880
    17  C    5.988576
    18  C    5.991755
    19  C    5.979467
    20  C    5.999653
    21  C    5.992659
    22  O    7.982524
    23  C    6.004915
    24  N    7.013687
    25  C    5.977428
    26  C    6.005592
    27  C    5.994459
    28  C    6.011245
    29  C    5.999332
    30  C    5.994376
    31  C    6.000418
    32  N    6.997491
    33  C    6.015273
    34  C    6.019937
    35  C    6.002508
    36  C    6.017266
    37  C    5.997668
    38  C    6.008275
    39  O    8.021417
    40  C    6.000599
    41  C    6.002325
    42  O    8.001031
    43  O    8.000891
    44  C    5.999178
    45  H    0.990761
    46  H    0.999172
    47  H    1.009648
    48  H    0.998799
    49  H    0.997899
    50  H    1.000211
    51  H    0.998521
    52  H    0.991726
    53  H    1.003570
    54  H    0.997864
    55  H    0.997141
    56  H    0.999613
    57  H    0.989642
    58  H    0.991174
    59  H    0.991518
    60  H    0.996788
    61  H    0.991595
    62  H    0.994651
    63  H    1.001068
    64  H    1.002878
    65  H    0.997694
    66  H    0.996157
    67  H    1.003282
    68  H    1.005807
    69  H    0.999473
    70  H    0.997223
    71  H    1.008647
    72  H    1.003007
    73  H    1.010853
    74  H    1.010788
    75  H    1.010664
    76  H    1.004858
    77  H    1.003493
    78  H    1.000716
    79  H    1.000745
    80  Mg  12.004837
    81  C    5.982494
    82  C    6.000758
    83  C    6.017330
    84  C    6.000698
    85  N    6.985767
    86  C    6.027643
    87  C    5.993056
    88  C    6.006603
    89  C    5.974634
    90  C    6.001278
    91  C    5.997877
    92  C    6.002080
    93  H    0.998467
    94  N    7.004623
    95  C    5.973265
    96  C    5.985486
    97  C    5.985169
    98  C    5.977757
    99  C    6.004148
   100  C    5.991439
   101  O    7.973508
   102  C    6.005052
   103  N    7.005908
   104  C    5.978184
   105  C    6.003488
   106  C    5.990663
   107  C    6.022593
   108  C    6.001157
   109  C    5.992471
   110  C    5.998339
   111  N    6.997947
   112  C    6.023088
   113  C    6.024828
   114  C    5.998762
   115  C    6.027018
   116  C    5.999436
   117  C    6.010956
   118  O    8.019805
   119  C    6.003952
   120  C    6.004461
   121  O    8.001193
   122  O    8.001619
   123  C    5.998698
   124  H    0.991349
   125  H    0.998068
   126  H    1.011221
   127  H    0.998565
   128  H    0.998178
   129  H    0.989153
   130  H    1.000024
   131  H    1.000480
   132  H    1.004491
   133  H    0.994795
   134  H    1.002032
   135  H    1.004084
   136  H    0.987450
   137  H    0.984123
   138  H    0.985688
   139  H    0.992248
   140  H    0.987702
   141  H    0.993670
   142  H    1.002260
   143  H    1.002455
   144  H    1.004821
   145  H    0.992758
   146  H    1.000538
   147  H    1.009128
   148  H    0.998785
   149  H    1.011250
   150  H    1.004735
   151  H    0.996740
   152  H    1.015645
   153  H    1.015662
   154  H    1.011695
   155  H    1.003668
   156  H    1.002615
   157  H    1.000634
   158  H    1.004757
 Sum of Mulliken charges = 624.00000

 Dipole moment (field-independent basis, Debye):
    X=             13.5847    Y=             -0.1528    Z=              3.1759  Tot=             13.9518
 Quadrupole moment (field-independent basis, Debye-Ang):
   XX=             45.4755   YY=              3.1777   ZZ=              1.1169
   XY=             -9.2210   XZ=            -35.9750   YZ=              1.1850

 Normal termination of Gaussian 16 at Thu Oct 14 03:13:26 2021.
