 Gaussian 16, Revision A.03,
 Gaussian 16:  ES64L-G16RevA.03 25-Dec-2016

 --------------------------------------------------------
 #p PBE1PBE/Def2SVP td=(nstates=5) density=(transition=1)
 --------------------------------------------------------

 --------------------------------
 TDDFT excited states in gaussian
 --------------------------------
 Symbolic Z-matrix:
 Charge =  0 Multiplicity = 1

                         Standard orientation:
 ---------------------------------------------------------------------
 Center     Atomic      Atomic             Coordinates (Angstroms)
 Number     Number       Type             X           Y           Z
 ---------------------------------------------------------------------
      1         12           0      -17.182313   -0.776650    0.124143
      2          6           0      -17.024560    2.246109   -1.526314
      3          6           0      -16.117683    0.999863    3.046207
      4          6           0      -16.959011   -3.610900    1.727367
      5          6           0      -17.877928   -2.414298   -2.842241
      6          7           0      -16.426678    1.404954    0.607978
      7          6           0      -16.689555    2.436204   -0.177081
      8          6           0      -16.674335    3.766785    0.627230
      9          6           0      -15.841934    3.312576    1.876930
     10          6           0      -16.114309    1.799981    1.898903
     11          6           0      -14.313954    3.642985    1.730840
     12          6           0      -18.151617    4.097529    0.935544
     13          6           0      -18.425667    5.452389    1.602385
     14          1           0      -17.279323    6.277200    2.152283
     15          7           0      -16.744435   -1.310961    2.084933
     16          6           0      -16.363576   -0.408623    3.136918
     17          6           0      -16.360428   -1.199696    4.359884
     18          6           0      -16.716802   -2.534729    3.991870
     19          6           0      -16.792792   -2.559416    2.531855
     20          6           0      -16.072010   -0.628676    5.798262
     21          6           0      -17.001030   -3.734416    4.954947
     22          8           0      -17.170942   -4.819226    4.469623
     23          6           0      -17.019164   -3.533192    6.435465
     24          7           0      -17.483141   -2.751400   -0.464668
     25          6           0      -17.337335   -3.791721    0.386641
     26          6           0      -17.516788   -5.151975   -0.286410
     27          6           0      -17.946558   -4.745739   -1.715155
     28          6           0      -17.753980   -3.175293   -1.674624
     29          6           0      -16.256671   -6.093076   -0.266791
     30          6           0      -19.274402   -5.258002   -2.211921
     31          6           0      -20.548795   -5.169319   -1.338062
     32          7           0      -17.405780   -0.284400   -1.820031
     33          6           0      -17.696321   -1.030591   -2.926140
     34          6           0      -17.885009   -0.107630   -4.025408
     35          6           0      -17.667171    1.232089   -3.552519
     36          6           0      -17.360147    1.039693   -2.177664
     37          6           0      -18.237716   -0.525756   -5.418750
     38          6           0      -17.574237    2.612304   -3.891742
     39          8           0      -17.704755    3.235183   -4.967993
     40          6           0      -16.870850    3.266338   -2.581181
     41          6           0      -17.503659    4.646163   -2.393488
     42          8           0      -18.652109    4.865953   -2.322638
     43          8           0      -16.497655    5.569749   -2.369710
     44          6           0      -16.796611    6.887768   -1.848668
     45          1           0      -15.729537    1.535921    3.914268
     46          1           0      -16.849747   -4.588929    2.200663
     47          1           0      -18.078666   -2.871193   -3.812758
     48          1           0      -16.120663    4.553014    0.114223
     49          1           0      -16.329817    3.827617    2.704810
     50          1           0      -14.069634    4.503112    2.352993
     51          1           0      -14.115572    3.839129    0.676970
     52          1           0      -13.660605    2.848338    2.091192
     53          1           0      -18.504570    3.358152    1.653997
     54          1           0      -18.798009    3.927087    0.075144
     55          1           0      -19.299250    5.440579    2.254547
     56          1           0      -18.870890    6.052703    0.808752
     57          1           0      -15.319011   -1.209334    6.331937
     58          1           0      -17.038302   -0.607140    6.301907
     59          1           0      -15.780308    0.419418    5.721026
     60          1           0      -17.706013   -4.316430    6.756980
     61          1           0      -17.500906   -2.600732    6.727420
     62          1           0      -16.090625   -3.384890    6.986690
     63          1           0      -18.330694   -5.628790    0.259306
     64          1           0      -17.211815   -5.016172   -2.473488
     65          1           0      -16.282701   -6.632993   -1.212943
     66          1           0      -16.473203   -6.749281    0.576443
     67          1           0      -15.357136   -5.521162   -0.039294
     68          1           0      -19.085370   -6.330329   -2.175100
     69          1           0      -19.593921   -4.951274   -3.208440
     70          1           0      -21.040338   -6.096788   -1.047319
     71          1           0      -21.369765   -4.699758   -1.879880
     72          1           0      -20.310845   -4.646873   -0.411378
     73          1           0      -18.243763    0.392379   -6.005504
     74          1           0      -19.253371   -0.922943   -5.443077
     75          1           0      -17.633169   -1.333234   -5.830740
     76          1           0      -15.806617    3.282000   -2.817175
     77          1           0      -16.407976    7.359681   -2.751201
     78          1           0      -16.339254    7.092459   -0.880432
     79          1           0      -17.860894    7.112695   -1.774584
     80         12           0       17.611576   -0.599066    0.073327
     81          6           0       15.260325    1.965254    0.448198
     82          6           0       20.136940    1.662720    0.506305
     83          6           0       19.768125   -3.006507   -0.630033
     84          6           0       14.880243   -2.818275   -0.552257
     85          7           0       17.657614    1.593799    0.391142
     86          6           0       16.604462    2.459426    0.586729
     87          6           0       17.103932    3.796613    1.101916
     88          6           0       18.657892    3.725055    0.826299
     89          6           0       18.815731    2.176693    0.646267
     90          6           0       19.095266    4.499588   -0.410440
     91          6           0       16.581991    4.037261    2.565317
     92          6           0       17.216254    5.279183    3.250927
     93          1           0       17.626248    6.421063    2.344307
     94          7           0       19.599288   -0.662157   -0.024236
     95          6           0       20.496281    0.393560    0.079159
     96          6           0       21.884690   -0.046287   -0.144538
     97          6           0       21.753590   -1.438265   -0.439319
     98          6           0       20.327023   -1.745692   -0.379735
     99          6           0       23.055028    0.853245   -0.003556
    100          6           0       22.878823   -2.386762   -0.763619
    101          8           0       22.678384   -3.616166   -0.967813
    102          6           0       24.310506   -1.924062   -0.779978
    103          7           0       17.346279   -2.660513   -0.459268
    104          6           0       18.432486   -3.399920   -0.685017
    105          6           0       18.019177   -4.846111   -1.206390
    106          6           0       16.391433   -4.774304   -1.221794
    107          6           0       16.183505   -3.339877   -0.734036
    108          6           0       18.683624   -5.077787   -2.625098
    109          6           0       15.679166   -5.786076   -0.225729
    110          6           0       15.424006   -7.216702   -0.781110
    111          7           0       15.542816   -0.507092   -0.106406
    112          6           0       14.529398   -1.491768   -0.246520
    113          6           0       13.156234   -0.831206   -0.131021
    114          6           0       13.385471    0.526681    0.066713
    115          6           0       14.862563    0.654648    0.154423
    116          6           0       11.814238   -1.492728   -0.167671
    117          6           0       12.790550    1.820944    0.304691
    118          8           0       11.614774    2.194071    0.365701
    119          6           0       13.989781    2.796710    0.749515
    120          6           0       13.958399    4.126870    0.032219
    121          8           0       14.467491    4.326618   -1.037455
    122          8           0       13.470112    5.149711    0.876360
    123          6           0       13.790140    6.537062    0.508173
    124          1           0       20.821775    2.506732    0.615054
    125          1           0       20.484484   -3.793159   -0.876557
    126          1           0       14.008726   -3.412788   -0.834502
    127          1           0       16.649480    4.572980    0.487740
    128          1           0       19.297947    4.012561    1.661055
    129          1           0       19.848940    5.205715   -0.062256
    130          1           0       18.210034    4.929369   -0.878656
    131          1           0       19.692568    3.898502   -1.095611
    132          1           0       16.656114    3.034209    2.984272
    133          1           0       15.510055    4.202456    2.462178
    134          1           0       18.076129    4.858066    3.771943
    135          1           0       16.494562    5.673074    3.966403
    136          1           0       23.450203    0.880968   -1.018875
    137          1           0       23.772568    0.512608    0.742427
    138          1           0       22.898246    1.901329    0.254672
    139          1           0       24.589599   -1.604692    0.223181
    140          1           0       24.213200   -1.137181   -1.528980
    141          1           0       25.044447   -2.630183   -1.167352
    142          1           0       18.402471   -5.456044   -0.387436
    143          1           0       15.899545   -4.700651   -2.192634
    144          1           0       19.263481   -4.233059   -2.996591
    145          1           0       17.910260   -5.277729   -3.367225
    146          1           0       19.403464   -5.882608   -2.479076
    147          1           0       14.817963   -5.340491    0.271331
    148          1           0       16.379821   -5.927300    0.596577
    149          1           0       15.892741   -7.909788   -0.083422
    150          1           0       15.800139   -7.262432   -1.803217
    151          1           0       14.361630   -7.459479   -0.814012
    152          1           0       11.440400   -1.473875    0.856274
    153          1           0       11.905198   -2.510345   -0.549440
    154          1           0       11.027796   -1.016287   -0.752633
    155          1           0       13.888448    2.922748    1.827062
    156          1           0       13.089274    6.780231   -0.289980
    157          1           0       14.853191    6.644517    0.291641
    158          1           0       13.617824    7.134095    1.403295
 ---------------------------------------------------------------------

 SCF Done:  E(RPBE1PBE) =  -4067.38458086     A.U. after   16 cycles

 Excitation energies and oscillator strengths:

 Excited State   1:      Singlet-A      1.8621 eV  665.84 nm  f=0.3771  <S**2>=0.000
     309 -> 315        0.19125
     312 -> 314        0.68813
     312 <- 314       -0.10015
 This state for optimization and/or second-order correction.
 Total Energy, E(TD-HF/TD-DFT) =  -4067.31615127
 Copying the excited state density for this state as the 1-particle RhoCI density.

 Excited State   2:      Singlet-A      1.8745 eV  661.42 nm  f=0.0000  <S**2>=0.000
     312 -> 313        0.70711

 Excited State   3:      Singlet-A      1.8858 eV  657.45 nm  f=0.3636  <S**2>=0.000
     310 -> 316        0.19012
     311 -> 313        0.68801
     311 <- 313       -0.10014

 Excited State   4:      Singlet-A      2.1265 eV  583.05 nm  f=0.0000  <S**2>=0.000
     311 -> 314        0.70710

 Excited State   5:      Singlet-A      2.2137 eV  560.08 nm  f=0.0895  <S**2>=0.000
     310 -> 313        0.64980
     311 -> 316       -0.26389

 The electronic state is 1-A.
 Alpha  occ. eigenvalues --  -46.91619 -46.91508 -19.24978 -19.24646 -19.20478
 Alpha  occ. eigenvalues --  -19.20353 -19.19426 -19.19310 -19.19153 -19.18601
 Alpha  occ. eigenvalues --  -14.41612 -14.41207 -14.41149 -14.41129 -14.39660
 Alpha  occ. eigenvalues --  -14.39530 -14.38970 -14.38879 -10.36423 -10.35823
 Alpha  occ. eigenvalues --  -10.32698 -10.32420 -10.32345 -10.32111 -10.28981
 Alpha  occ. eigenvalues --  -10.28780 -10.28619 -10.28598 -10.28465 -10.28334
 Alpha  occ. eigenvalues --  -10.28329 -10.28246 -10.28205 -10.28113 -10.28092
 Alpha  occ. eigenvalues --  -10.28084 -10.27924 -10.27764 -10.27298 -10.27180
 Alpha  occ. eigenvalues --  -10.27155 -10.26891 -10.26865 -10.26777 -10.26653
 Alpha  occ. eigenvalues --  -10.26237 -10.26217 -10.26188 -10.26182 -10.26124
 Alpha  occ. eigenvalues --  -10.26121 -10.25958 -10.25828 -10.25604 -10.25591
 Alpha  occ. eigenvalues --  -10.25578 -10.25522 -10.25364 -10.25276 -10.25243
 Alpha  occ. eigenvalues --  -10.25236 -10.25207 -10.25071 -10.24968 -10.24793
 Alpha  occ. eigenvalues --  -10.24483 -10.24362 -10.24288 -10.24275 -10.24144
 Alpha  occ. eigenvalues --  -10.24144 -10.24042 -10.23778 -10.23774 -10.23706
 Alpha  occ. eigenvalues --  -10.23688 -10.23656 -10.23503 -10.23339 -10.23248
 Alpha  occ. eigenvalues --  -10.23113 -10.23087 -10.22899 -10.22856 -10.22651
 Alpha  occ. eigenvalues --  -10.22595  -3.13834  -3.13766  -1.86675  -1.86613
 Alpha  occ. eigenvalues --   -1.86225  -1.86126  -1.86048  -1.86021  -1.12300
 Alpha  occ. eigenvalues --   -1.10203  -1.06288  -1.04567  -1.03864  -1.02629
 Alpha  occ. eigenvalues --   -1.02611  -1.02462  -0.99833  -0.98938  -0.98613
 Alpha  occ. eigenvalues --   -0.98111  -0.97641  -0.97461  -0.96774  -0.96088
 Alpha  occ. eigenvalues --   -0.87293  -0.85966  -0.83619  -0.83172  -0.83009
 Alpha  occ. eigenvalues --   -0.82845  -0.82723  -0.82113  -0.81880  -0.81608
 Alpha  occ. eigenvalues --   -0.81059  -0.80674  -0.80662  -0.79906  -0.78520
 Alpha  occ. eigenvalues --   -0.78313  -0.77959  -0.77250  -0.76673  -0.76337
 Alpha  occ. eigenvalues --   -0.76187  -0.75920  -0.75688  -0.75061  -0.74563
 Alpha  occ. eigenvalues --   -0.74347  -0.73223  -0.72290  -0.71777  -0.71626
 Alpha  occ. eigenvalues --   -0.71289  -0.71030  -0.70135  -0.70094  -0.69854
 Alpha  occ. eigenvalues --   -0.68920  -0.67054  -0.66541  -0.66408  -0.65923
 Alpha  occ. eigenvalues --   -0.64594  -0.63728  -0.63251  -0.62993  -0.62789
 Alpha  occ. eigenvalues --   -0.62458  -0.61499  -0.60642  -0.59947  -0.59664
 Alpha  occ. eigenvalues --   -0.59616  -0.59377  -0.58777  -0.58587  -0.58480
 Alpha  occ. eigenvalues --   -0.58302  -0.56843  -0.55864  -0.55203  -0.55037
 Alpha  occ. eigenvalues --   -0.54153  -0.54079  -0.53674  -0.53332  -0.53275
 Alpha  occ. eigenvalues --   -0.52685  -0.52332  -0.52214  -0.52194  -0.51370
 Alpha  occ. eigenvalues --   -0.50763  -0.50717  -0.50541  -0.50326  -0.50201
 Alpha  occ. eigenvalues --   -0.49811  -0.49173  -0.48754  -0.48745  -0.48483
 Alpha  occ. eigenvalues --   -0.48235  -0.48026  -0.47981  -0.47863  -0.47623
 Alpha  occ. eigenvalues --   -0.47156  -0.46952  -0.46795  -0.46698  -0.46557
 Alpha  occ. eigenvalues --   -0.46518  -0.46361  -0.46216  -0.45990  -0.45752
 Alpha  occ. eigenvalues --   -0.45359  -0.45321  -0.45217  -0.45053  -0.44728
 Alpha  occ. eigenvalues --   -0.44603  -0.44585  -0.44226  -0.44109  -0.44074
 Alpha  occ. eigenvalues --   -0.44052  -0.43899  -0.43894  -0.43861  -0.43653
 Alpha  occ. eigenvalues --   -0.43531  -0.43307  -0.43177  -0.42872  -0.42799
 Alpha  occ. eigenvalues --   -0.42749  -0.42712  -0.42587  -0.42262  -0.42033
 Alpha  occ. eigenvalues --   -0.41542  -0.41497  -0.41377  -0.41208  -0.40939
 Alpha  occ. eigenvalues --   -0.40783  -0.40639  -0.40602  -0.40477  -0.40338
 Alpha  occ. eigenvalues --   -0.40194  -0.39992  -0.39891  -0.39875  -0.39670
 Alpha  occ. eigenvalues --   -0.39649  -0.39481  -0.39445  -0.38990  -0.38826
 Alpha  occ. eigenvalues --   -0.38653  -0.38319  -0.38147  -0.38122  -0.37993
 Alpha  occ. eigenvalues --   -0.37843  -0.37743  -0.37741  -0.37673  -0.37549
 Alpha  occ. eigenvalues --   -0.37491  -0.37185  -0.37178  -0.37044  -0.36903
 Alpha  occ. eigenvalues --   -0.36779  -0.36634  -0.36356  -0.36283  -0.36262
 Alpha  occ. eigenvalues --   -0.36084  -0.35790  -0.35769  -0.35292  -0.35085
 Alpha  occ. eigenvalues --   -0.35054  -0.34406  -0.34376  -0.34146  -0.34067
 Alpha  occ. eigenvalues --   -0.33481  -0.33288  -0.33257  -0.33013  -0.32760
 Alpha  occ. eigenvalues --   -0.32493  -0.32125  -0.31767  -0.31246  -0.31209
 Alpha  occ. eigenvalues --   -0.30944  -0.30838  -0.30089  -0.29402  -0.29375
 Alpha  occ. eigenvalues --   -0.29086  -0.28786  -0.28704  -0.26916  -0.26850
 Alpha  occ. eigenvalues --   -0.26402  -0.25994  -0.25775  -0.25608  -0.25581
 Alpha  occ. eigenvalues --   -0.25205  -0.25197  -0.24946  -0.20900  -0.20710
 Alpha  occ. eigenvalues --   -0.18689  -0.18172
 Alpha virt. eigenvalues --   -0.10900  -0.10491  -0.05552  -0.05305  -0.04418
 Alpha virt. eigenvalues --   -0.03967  -0.02205  -0.01766  -0.00205   0.00320
 Alpha virt. eigenvalues --    0.00596   0.01080   0.01333   0.01521   0.01710

 Mulliken charges:
               1
     1  Mg  12.000002
     2  C    5.999991
     3  C    5.999802
     4  C    5.999936
     5  C    6.000110
     6  N    7.000008
     7  C    5.999843
     8  C    5.999997
     9  C    5.999900
    10  C    6.000340
    11  C    5.999956
    12  C    6.000087
    13  C    6.000006
    14  H    1.000011
    15  N    6.999930
    16  C    6.000530
    17  C    6.000105
    18  C    6.000202
    19  C    6.000264
    20  C    5.999994
    21  C    6.000141
    22  O    8.000232
    23  C    5.999972
    24  N    7.000005
    25  C    6.000290
    26  C    5.999896
    27  C    6.000050
    28  C    5.999760
    29  C    6.000013
    30  C    6.000077
    31  C    6.000052
    32  N    7.000001
    33  C    5.999684
    34  C    5.999665
    35  C    5.999954
    36  C    5.999838
    37  C    6.000064
    38  C    5.999773
    39  O    7.999638
    40  C    6.000070
    41  C    5.999904
    42  O    7.999875
    43  O    8.000035
    44  C    6.000027
    45  H    1.000146
    46  H    1.000053
    47  H    0.999899
    48  H    1.000067
    49  H    0.999970
    50  H    1.000087
    51  H    1.000212
    52  H    1.000117
    53  H    0.999832
    54  H    1.000022
    55  H    0.999867
    56  H    0.999979
    57  H    1.000227
    58  H    1.000052
    59  H    1.000193
    60  H    1.000042
    61  H    1.000007
    62  H    1.000168
    63  H    0.999910
    64  H    1.000080
    65  H    1.000095
    66  H    0.999940
    67  H    1.000136
    68  H    0.999894
    69  H    1.000005
    70  H    0.999875
    71  H    0.999953
    72  H    0.999925
    73  H    0.999851
    74  H    0.999658
    75  H    0.999824
    76  H    1.000044
    77  H    0.999998
    78  H    0.999968
    79  H    0.999872
    80  Mg  12.001672
    81  C    6.021816
    82  C    5.992648
    83  C    5.979049
    84  C    6.008500
    85  N    7.010512
    86  C    5.966073
    87  C    6.006504
    88  C    5.992163
    89  C    6.028704
    90  C    5.998190
    91  C    6.003158
    92  C    5.999628
    93  H    0.995353
    94  N    6.995139
    95  C    6.034385
    96  C    6.024081
    97  C    6.014449
    98  C    6.025435
    99  C    5.995244
   100  C    6.011765
   101  O    8.031091
   102  C    5.997390
   103  N    6.996431
   104  C    6.028903
   105  C    5.995033
   106  C    6.008714
   107  C    5.967336
   108  C    5.997505
   109  C    6.006647
   110  C    5.998289
   111  N    7.001658
   112  C    5.965658
   113  C    5.969349
   114  C    5.996581
   115  C    5.975304
   116  C    6.004161
   117  C    5.982022
   118  O    7.969933
   119  C    5.997519
   120  C    5.998774
   121  O    7.992213
   122  O    7.999280
   123  C    6.001853
   124  H    1.012333
   125  H    1.004589
   126  H    0.991213
   127  H    1.000504
   128  H    1.000260
   129  H    1.003394
   130  H    1.014042
   131  H    0.994877
   132  H    0.997916
   133  H    1.006598
   134  H    0.993721
   135  H    1.001406
   136  H    1.016750
   137  H    1.018130
   138  H    1.017213
   139  H    1.006891
   140  H    1.004149
   141  H    1.014026
   142  H    0.997116
   143  H    1.000505
   144  H    0.993729
   145  H    1.009021
   146  H    0.998754
   147  H    1.004507
   148  H    0.990940
   149  H    0.994985
   150  H    0.995520
   151  H    1.000396
   152  H    0.981482
   153  H    0.983773
   154  H    0.982434
   155  H    0.994019
   156  H    0.998671
   157  H    0.993750
   158  H    0.996272
 Sum of Mulliken charges = 624.00000

 Dipole moment (field-independent basis, Debye):
    X=             10.3301    Y=             -0.2292    Z=             -0.1829  Tot=             10.3343
 Quadrupole moment (field-independent basis, Debye-Ang):
   XX=            361.2273   YY=             -3.7807   ZZ=             -0.0153
   XY=             -7.2928   XZ=             -8.4499   YZ=             -0.1668

 Normal termination of Gaussian 16 at Thu Oct 14 07:18:39 2021.
