 Gaussian 16, Revision A.03,
 Gaussian 16:  ES64L-G16RevA.03 25-Dec-2016

 --------------------------------------------------------
 #p PBE1PBE/Def2SVP td=(nstates=5) density=(transition=1)
 --------------------------------------------------------

 --------------------------------
 TDDFT excited states in gaussian
 --------------------------------
 Symbolic Z-matrix:
 Charge =  0 Multiplicity = 1

                         Standard orientation:
 ---------------------------------------------------------------------
 Center     Atomic      Atomic             Coordinates (Angstroms)
 Number     Number       Type             X           Y           Z
 ---------------------------------------------------------------------
      1         12           0       30.520671    0.459069    0.550200
      2          6           0       30.606636   -2.550198   -1.285853
      3          6           0       29.042923    1.974298   -2.157521
      4          6           0       30.473045    3.382859    2.202382
      5          6           0       32.529541   -0.970282    3.033058
      6          7           0       29.820451   -0.313120   -1.371960
      7          6           0       29.904099   -1.498642   -1.968894
      8          6           0       29.276672   -1.608983   -3.374145
      9          6           0       29.090080   -0.034792   -3.625779
     10          6           0       29.384724    0.602777   -2.289986
     11          6           0       29.975195    0.514827   -4.717945
     12          6           0       27.869345   -2.425736   -3.417851
     13          6           0       27.590250   -3.069205   -4.779286
     14          1           0       27.472446   -4.614617   -4.738124
     15          7           0       29.697608    2.416027    0.167039
     16          6           0       29.162195    2.828637   -1.078223
     17          6           0       28.544974    4.117198   -0.858273
     18          6           0       28.922179    4.547387    0.410683
     19          6           0       29.720969    3.437221    1.018350
     20          6           0       27.839420    4.912636   -1.940361
     21          6           0       28.601653    5.809169    1.178752
     22          8           0       28.977903    5.928755    2.308115
     23          6           0       27.756588    6.899519    0.599494
     24          7           0       31.528021    1.188578    2.246709
     25          6           0       31.288252    2.420352    2.782400
     26          6           0       32.058247    2.467174    4.131352
     27          6           0       32.177569    1.027783    4.599157
     28          6           0       32.105920    0.320418    3.225377
     29          6           0       33.455373    3.039591    3.896360
     30          6           0       31.136835    0.600659    5.566858
     31          6           0       29.692313    0.932049    5.284683
     32          7           0       31.387816   -1.378882    0.885947
     33          6           0       32.185293   -1.837400    1.917583
     34          6           0       32.521070   -3.247402    1.666064
     35          6           0       31.898803   -3.552077    0.442939
     36          6           0       31.246483   -2.423625    0.026940
     37          6           0       33.370530   -4.103855    2.502037
     38          6           0       31.553262   -4.605578   -0.473376
     39          8           0       31.825672   -5.841874   -0.455133
     40          6           0       30.654519   -3.954419   -1.628064
     41          6           0       31.407379   -4.157402   -2.917375
     42          8           0       32.570175   -3.907619   -3.036609
     43          8           0       30.629597   -4.613056   -4.016174
     44          6           0       31.291645   -4.502894   -5.351606
     45          1           0       28.620831    2.486077   -3.024247
     46          1           0       30.567703    4.337666    2.724459
     47          1           0       33.004330   -1.526665    3.844229
     48          1           0       29.951973   -2.143423   -4.043473
     49          1           0       28.041279    0.059689   -3.909882
     50          1           0       29.357878    0.554576   -5.615264
     51          1           0       30.908474   -0.038275   -4.825732
     52          1           0       30.105643    1.561612   -4.443687
     53          1           0       27.042257   -1.748889   -3.201370
     54          1           0       27.836863   -3.176558   -2.628092
     55          1           0       28.428917   -2.697873   -5.368587
     56          1           0       26.713663   -2.640247   -5.264390
     57          1           0       27.596108    4.171013   -2.700269
     58          1           0       28.637180    5.542420   -2.333096
     59          1           0       26.930449    5.393657   -1.578554
     60          1           0       26.787018    6.401662    0.621108
     61          1           0       27.995752    7.161226   -0.430885
     62          1           0       27.788844    7.783639    1.237122
     63          1           0       31.618363    3.106513    4.895976
     64          1           0       33.100859    0.782621    5.123018
     65          1           0       34.313930    2.369635    3.848971
     66          1           0       33.644339    3.765727    4.686937
     67          1           0       33.431941    3.607841    2.965801
     68          1           0       31.362004    0.934455    6.580041
     69          1           0       31.224580   -0.485573    5.579305
     70          1           0       29.207435   -0.022611    5.078663
     71          1           0       29.369663    1.598912    4.484575
     72          1           0       29.245861    1.303797    6.206818
     73          1           0       34.398382   -3.752842    2.410946
     74          1           0       33.191583   -5.105075    2.110235
     75          1           0       33.115566   -4.010296    3.558517
     76          1           0       29.694810   -4.464869   -1.545350
     77          1           0       32.011831   -5.310211   -5.484172
     78          1           0       31.800225   -3.549499   -5.501818
     79          1           0       30.645429   -4.643401   -6.217599
     80         12           0      -31.068499   -0.471651   -0.042387
     81          6           0      -28.080133    1.317670   -0.174874
     82          6           0      -29.739084   -2.426341    2.466880
     83          6           0      -33.997763   -1.950505   -0.015858
     84          6           0      -32.652836    2.264352   -1.855313
     85          7           0      -29.011723   -0.541592    0.987859
     86          6           0      -27.952745    0.301362    0.799128
     87          6           0      -26.796283   -0.099804    1.644350
     88          6           0      -27.355581   -1.285212    2.527945
     89          6           0      -28.825008   -1.475119    1.983391
     90          6           0      -26.448564   -2.540482    2.577546
     91          6           0      -26.251236    1.058195    2.515208
     92          6           0      -24.742722    1.211995    2.329231
     93          1           0      -23.856710    1.215942    3.611406
     94          7           0      -31.761712   -2.012059    1.059899
     95          6           0      -31.068531   -2.740423    2.025565
     96          6           0      -31.977987   -3.801857    2.437492
     97          6           0      -33.242318   -3.709012    1.689848
     98          6           0      -33.030944   -2.538970    0.780124
     99          6           0      -31.701629   -4.678232    3.554378
    100          6           0      -34.411714   -4.543663    2.012515
    101          8           0      -34.417418   -5.413250    2.858515
    102          6           0      -35.759011   -4.354354    1.407686
    103          7           0      -32.968225    0.102557   -0.767154
    104          6           0      -33.953931   -0.846795   -0.862933
    105          6           0      -35.178058   -0.261123   -1.534589
    106          6           0      -34.874970    1.186260   -1.646138
    107          6           0      -33.457882    1.238058   -1.355008
    108          6           0      -35.626931   -0.989579   -2.867136
    109          6           0      -35.589236    2.052767   -0.552796
    110          6           0      -35.917729    3.426484   -0.917202
    111          7           0      -30.520482    1.420039   -0.900144
    112          6           0      -31.227787    2.371394   -1.646832
    113          6           0      -30.299671    3.284537   -2.236443
    114          6           0      -29.072428    2.956453   -1.672560
    115          6           0      -29.259484    1.814737   -0.814278
    116          6           0      -30.683512    4.359305   -3.185303
    117          6           0      -27.718452    3.336638   -1.590075
    118          8           0      -27.129244    4.244908   -2.132212
    119          6           0      -27.022316    2.291652   -0.689851
    120          6           0      -25.915981    1.674046   -1.438213
    121          8           0      -26.013792    0.698299   -2.201332
    122          8           0      -24.779926    2.436711   -1.292624
    123          6           0      -23.517045    1.986409   -1.854877
    124          1           0      -29.232822   -3.043670    3.211163
    125          1           0      -35.030816   -2.304288   -0.060588
    126          1           0      -33.164857    3.047667   -2.418120
    127          1           0      -26.135250   -0.628254    0.956840
    128          1           0      -27.444372   -1.036077    3.584923
    129          1           0      -25.486359   -2.143133    2.252213
    130          1           0      -26.794765   -3.415925    2.028039
    131          1           0      -26.340678   -2.878141    3.608009
    132          1           0      -26.339104    0.886765    3.587893
    133          1           0      -26.801878    1.949082    2.213737
    134          1           0      -24.717044    2.238764    1.964583
    135          1           0      -24.437975    0.500773    1.562928
    136          1           0      -30.709547   -4.434792    3.935255
    137          1           0      -31.629216   -5.741073    3.321730
    138          1           0      -32.422943   -4.486958    4.349651
    139          1           0      -35.467549   -4.281764    0.359871
    140          1           0      -36.173631   -3.412954    1.769145
    141          1           0      -36.399430   -5.217796    1.589075
    142          1           0      -35.970205   -0.462875   -0.814488
    143          1           0      -34.950737    1.649006   -2.630176
    144          1           0      -35.081245   -1.924841   -2.993474
    145          1           0      -35.637547   -0.357588   -3.755840
    146          1           0      -36.632521   -1.405354   -2.810123
    147          1           0      -34.986230    2.050020    0.355294
    148          1           0      -36.536008    1.598476   -0.261085
    149          1           0      -36.891474    3.432577   -1.408184
    150          1           0      -35.146954    3.886313   -1.536602
    151          1           0      -36.163091    3.994696   -0.019385
    152          1           0      -31.459802    4.020552   -3.871261
    153          1           0      -29.845152    4.779567   -3.741082
    154          1           0      -31.178910    5.093767   -2.550216
    155          1           0      -26.476525    2.742521    0.139069
    156          1           0      -23.375511    2.019984   -2.935177
    157          1           0      -23.293078    0.984722   -1.488609
    158          1           0      -22.793407    2.712203   -1.485692
 ---------------------------------------------------------------------

 SCF Done:  E(RPBE1PBE) =  -4067.34385741     A.U. after   16 cycles

 Excitation energies and oscillator strengths:

 Excited State   1:      Singlet-A      1.8249 eV  679.41 nm  f=0.3519  <S**2>=0.000
     310 -> 316       -0.17191
     312 -> 314        0.69443
     312 <- 314       -0.10917
 This state for optimization and/or second-order correction.
 Total Energy, E(TD-HF/TD-DFT) =  -4067.27679393
 Copying the excited state density for this state as the 1-particle RhoCI density.

 Excited State   2:      Singlet-A      1.8373 eV  674.81 nm  f=0.3594  <S**2>=0.000
     309 -> 315       -0.18243
     311 -> 313        0.68983
     311 <- 313       -0.10422

 Excited State   3:      Singlet-A      1.9391 eV  639.38 nm  f=0.0000  <S**2>=0.000
     312 -> 313        0.70711

 Excited State   4:      Singlet-A      2.0618 eV  601.33 nm  f=0.0000  <S**2>=0.000
     311 -> 314        0.70711

 Excited State   5:      Singlet-A      2.1781 eV  569.24 nm  f=0.1121  <S**2>=0.000
     310 -> 314        0.65715
     312 -> 316        0.25112

 The electronic state is 1-A.
 Alpha  occ. eigenvalues --  -46.92329 -46.92035 -19.25528 -19.25183 -19.20259
 Alpha  occ. eigenvalues --  -19.19589 -19.19047 -19.18735 -19.18637 -19.17597
 Alpha  occ. eigenvalues --  -14.42722 -14.41841 -14.41459 -14.41073 -14.39929
 Alpha  occ. eigenvalues --  -14.39247 -14.38895 -14.38863 -10.36467 -10.36098
 Alpha  occ. eigenvalues --  -10.32121 -10.32067 -10.31362 -10.30811 -10.29349
 Alpha  occ. eigenvalues --  -10.29335 -10.29330 -10.29190 -10.29036 -10.28948
 Alpha  occ. eigenvalues --  -10.28896 -10.28827 -10.28729 -10.28715 -10.28516
 Alpha  occ. eigenvalues --  -10.28272 -10.28256 -10.27953 -10.27705 -10.27501
 Alpha  occ. eigenvalues --  -10.26843 -10.26727 -10.26684 -10.26506 -10.26409
 Alpha  occ. eigenvalues --  -10.26386 -10.26327 -10.26207 -10.26165 -10.26147
 Alpha  occ. eigenvalues --  -10.26126 -10.26034 -10.25966 -10.25832 -10.25758
 Alpha  occ. eigenvalues --  -10.25690 -10.25580 -10.25459 -10.25407 -10.25252
 Alpha  occ. eigenvalues --  -10.25145 -10.25058 -10.24937 -10.24917 -10.24905
 Alpha  occ. eigenvalues --  -10.24881 -10.24797 -10.24769 -10.24586 -10.24528
 Alpha  occ. eigenvalues --  -10.24297 -10.24110 -10.23952 -10.23787 -10.23704
 Alpha  occ. eigenvalues --  -10.23673 -10.23357 -10.23079 -10.22994 -10.22819
 Alpha  occ. eigenvalues --  -10.22581 -10.22522 -10.22481 -10.22415 -10.22262
 Alpha  occ. eigenvalues --  -10.21911  -3.14401  -3.14112  -1.87245  -1.86976
 Alpha  occ. eigenvalues --   -1.86784  -1.86614  -1.86463  -1.86352  -1.10373
 Alpha  occ. eigenvalues --   -1.10214  -1.06638  -1.04858  -1.04579  -1.02245
 Alpha  occ. eigenvalues --   -1.01573  -1.01506  -0.99837  -0.99601  -0.98479
 Alpha  occ. eigenvalues --   -0.97979  -0.97844  -0.97640  -0.96421  -0.96177
 Alpha  occ. eigenvalues --   -0.87422  -0.87033  -0.85120  -0.84267  -0.83865
 Alpha  occ. eigenvalues --   -0.83725  -0.83389  -0.82997  -0.82063  -0.81999
 Alpha  occ. eigenvalues --   -0.81615  -0.81302  -0.80804  -0.80563  -0.79537
 Alpha  occ. eigenvalues --   -0.78898  -0.78875  -0.77907  -0.77751  -0.76831
 Alpha  occ. eigenvalues --   -0.76810  -0.76569  -0.75745  -0.75505  -0.75167
 Alpha  occ. eigenvalues --   -0.74231  -0.73024  -0.72990  -0.72296  -0.71679
 Alpha  occ. eigenvalues --   -0.71509  -0.71423  -0.70634  -0.70584  -0.69751
 Alpha  occ. eigenvalues --   -0.69342  -0.67879  -0.67013  -0.66500  -0.65759
 Alpha  occ. eigenvalues --   -0.64059  -0.63812  -0.63485  -0.63300  -0.62359
 Alpha  occ. eigenvalues --   -0.62310  -0.61876  -0.61406  -0.60943  -0.60424
 Alpha  occ. eigenvalues --   -0.60208  -0.59821  -0.59447  -0.59286  -0.58839
 Alpha  occ. eigenvalues --   -0.57901  -0.56627  -0.56397  -0.55309  -0.54775
 Alpha  occ. eigenvalues --   -0.54463  -0.54086  -0.54022  -0.53763  -0.53646
 Alpha  occ. eigenvalues --   -0.53622  -0.53076  -0.52550  -0.52292  -0.51864
 Alpha  occ. eigenvalues --   -0.51000  -0.50921  -0.50401  -0.50334  -0.50050
 Alpha  occ. eigenvalues --   -0.49748  -0.49248  -0.49074  -0.49033  -0.48835
 Alpha  occ. eigenvalues --   -0.48656  -0.48502  -0.48114  -0.47940  -0.47915
 Alpha  occ. eigenvalues --   -0.47703  -0.47473  -0.47128  -0.47106  -0.46778
 Alpha  occ. eigenvalues --   -0.46526  -0.46495  -0.46346  -0.46288  -0.46047
 Alpha  occ. eigenvalues --   -0.45980  -0.45953  -0.45827  -0.45481  -0.45361
 Alpha  occ. eigenvalues --   -0.45024  -0.44742  -0.44662  -0.44611  -0.44307
 Alpha  occ. eigenvalues --   -0.44204  -0.44113  -0.43968  -0.43848  -0.43786
 Alpha  occ. eigenvalues --   -0.43725  -0.43494  -0.43234  -0.43115  -0.43028
 Alpha  occ. eigenvalues --   -0.42837  -0.42397  -0.42309  -0.42192  -0.41932
 Alpha  occ. eigenvalues --   -0.41847  -0.41733  -0.41507  -0.41448  -0.41284
 Alpha  occ. eigenvalues --   -0.41066  -0.41036  -0.40893  -0.40764  -0.40510
 Alpha  occ. eigenvalues --   -0.40430  -0.40150  -0.40093  -0.40012  -0.39760
 Alpha  occ. eigenvalues --   -0.39615  -0.39339  -0.39254  -0.39129  -0.38885
 Alpha  occ. eigenvalues --   -0.38873  -0.38576  -0.38530  -0.38399  -0.38230
 Alpha  occ. eigenvalues --   -0.38103  -0.38026  -0.37899  -0.37842  -0.37822
 Alpha  occ. eigenvalues --   -0.37650  -0.37426  -0.37327  -0.37289  -0.36968
 Alpha  occ. eigenvalues --   -0.36692  -0.36620  -0.36408  -0.36374  -0.36156
 Alpha  occ. eigenvalues --   -0.36066  -0.35888  -0.35833  -0.35596  -0.35273
 Alpha  occ. eigenvalues --   -0.35205  -0.35159  -0.34712  -0.34454  -0.34093
 Alpha  occ. eigenvalues --   -0.33533  -0.33294  -0.32705  -0.32688  -0.32347
 Alpha  occ. eigenvalues --   -0.32324  -0.32112  -0.32031  -0.31454  -0.31406
 Alpha  occ. eigenvalues --   -0.31253  -0.31222  -0.29817  -0.29539  -0.29538
 Alpha  occ. eigenvalues --   -0.28932  -0.28815  -0.28236  -0.27131  -0.27040
 Alpha  occ. eigenvalues --   -0.25988  -0.25705  -0.25588  -0.25496  -0.25301
 Alpha  occ. eigenvalues --   -0.25261  -0.25062  -0.24335  -0.21271  -0.21033
 Alpha  occ. eigenvalues --   -0.19231  -0.18963
 Alpha virt. eigenvalues --   -0.11623  -0.11440  -0.05977  -0.05253  -0.03956
 Alpha virt. eigenvalues --   -0.03820  -0.02237  -0.02057  -0.00199  -0.00058
 Alpha virt. eigenvalues --    0.00034   0.00732   0.00734   0.00932   0.01213

 Mulliken charges:
               1
     1  Mg  11.995557
     2  C    6.017073
     3  C    5.988028
     4  C    5.985847
     5  C    6.009790
     6  N    7.011075
     7  C    5.961966
     8  C    6.013810
     9  C    5.983586
    10  C    6.037357
    11  C    5.996538
    12  C    6.001028
    13  C    6.000172
    14  H    1.003413
    15  N    6.992836
    16  C    6.042445
    17  C    6.012332
    18  C    6.021178
    19  C    6.027286
    20  C    5.999557
    21  C    6.011373
    22  O    8.028140
    23  C    5.997347
    24  N    6.999027
    25  C    6.026065
    26  C    5.996664
    27  C    6.004006
    28  C    5.972829
    29  C    6.001656
    30  C    6.006039
    31  C    5.999636
    32  N    6.997978
    33  C    5.962361
    34  C    5.967215
    35  C    5.999757
    36  C    5.974033
    37  C    6.000463
    38  C    5.986418
    39  O    7.971040
    40  C    5.996811
    41  C    5.994431
    42  O    7.998013
    43  O    7.997113
    44  C    6.002095
    45  H    1.010342
    46  H    1.004428
    47  H    0.992193
    48  H    1.002200
    49  H    1.005448
    50  H    1.007870
    51  H    1.013590
    52  H    0.994281
    53  H    0.989350
    54  H    1.005968
    55  H    0.997171
    56  H    0.994717
    57  H    1.014077
    58  H    1.014244
    59  H    1.013662
    60  H    1.007563
    61  H    1.007105
    62  H    1.013643
    63  H    0.998758
    64  H    0.999586
    65  H    1.011278
    66  H    1.001470
    67  H    0.993639
    68  H    0.992958
    69  H    1.006327
    70  H    1.005916
    71  H    0.984766
    72  H    0.997265
    73  H    0.979095
    74  H    0.987265
    75  H    0.980632
    76  H    0.994086
    77  H    0.998527
    78  H    0.994706
    79  H    0.994490
    80  Mg  12.000024
    81  C    6.000062
    82  C    5.999898
    83  C    5.999911
    84  C    6.000155
    85  N    7.000000
    86  C    5.999679
    87  C    6.000164
    88  C    5.999897
    89  C    6.000336
    90  C    5.999972
    91  C    6.000006
    92  C    6.000021
    93  H    0.999894
    94  N    6.999905
    95  C    6.000471
    96  C    6.000229
    97  C    6.000203
    98  C    6.000348
    99  C    5.999835
   100  C    6.000069
   101  O    8.000233
   102  C    5.999971
   103  N    7.000090
   104  C    6.000333
   105  C    5.999937
   106  C    6.000054
   107  C    5.999576
   108  C    5.999991
   109  C    6.000089
   110  C    6.000017
   111  N    6.999998
   112  C    5.999573
   113  C    5.999734
   114  C    5.999950
   115  C    5.999667
   116  C    6.000026
   117  C    5.999809
   118  O    7.999586
   119  C    6.000041
   120  C    5.999977
   121  O    7.999877
   122  O    8.000000
   123  C    6.000051
   124  H    1.000111
   125  H    1.000111
   126  H    0.999894
   127  H    0.999970
   128  H    1.000002
   129  H    1.000126
   130  H    0.999974
   131  H    0.999998
   132  H    0.999918
   133  H    1.000081
   134  H    1.000037
   135  H    0.999992
   136  H    1.000237
   137  H    1.000269
   138  H    1.000237
   139  H    1.000075
   140  H    1.000126
   141  H    1.000154
   142  H    0.999986
   143  H    1.000030
   144  H    0.999977
   145  H    1.000138
   146  H    1.000030
   147  H    0.999939
   148  H    0.999849
   149  H    0.999944
   150  H    1.000064
   151  H    0.999959
   152  H    0.999793
   153  H    0.999838
   154  H    0.999787
   155  H    0.999884
   156  H    0.999952
   157  H    0.999931
   158  H    0.999927
 Sum of Mulliken charges = 624.00000

 Dipole moment (field-independent basis, Debye):
    X=             -3.8815    Y=              9.1616    Z=             -1.6443  Tot=             10.0848
 Quadrupole moment (field-independent basis, Debye-Ang):
   XX=           -231.4785   YY=              8.6221   ZZ=             -2.5000
   XY=            283.5359   XZ=            -55.8949   YZ=              2.3672

 Normal termination of Gaussian 16 at Wed Oct 13 22:00:03 2021.
