 Gaussian 16, Revision A.03,
 Gaussian 16:  ES64L-G16RevA.03 25-Dec-2016

 --------------------------------------------------------
 #p PBE1PBE/Def2SVP td=(nstates=5) density=(transition=1)
 --------------------------------------------------------

 --------------------------------
 TDDFT excited states in gaussian
 --------------------------------
 Symbolic Z-matrix:
 Charge =  0 Multiplicity = 1

                         Standard orientation:
 ---------------------------------------------------------------------
 Center     Atomic      Atomic             Coordinates (Angstroms)
 Number     Number       Type             X           Y           Z
 ---------------------------------------------------------------------
      1         12           0      -28.708122    0.255310    0.378626
      2          6           0      -26.476447   -1.754293   -1.455520
      3          6           0      -28.382537    2.656831   -2.114822
      4          6           0      -30.553322    2.239410    2.298562
      5          6           0      -28.246139   -1.910904    3.204326
      6          7           0      -27.558529    0.438386   -1.522363
      7          6           0      -26.807835   -0.586604   -2.115091
      8          6           0      -26.632244   -0.284214   -3.591745
      9          6           0      -26.985228    1.223261   -3.738814
     10          6           0      -27.694723    1.458330   -2.371261
     11          6           0      -25.802495    2.183068   -4.080354
     12          6           0      -27.431743   -1.230401   -4.553162
     13          6           0      -26.728602   -1.474611   -5.960528
     14          1           0      -25.415173   -0.739435   -6.240581
     15          7           0      -29.451263    2.069644    0.072462
     16          6           0      -29.274567    2.871716   -1.041814
     17          6           0      -30.077987    4.056366   -0.947755
     18          6           0      -30.623461    4.031720    0.375665
     19          6           0      -30.247977    2.747192    0.939057
     20          6           0      -30.118032    5.163211   -2.045248
     21          6           0      -31.424721    5.079166    1.077227
     22          8           0      -31.703518    4.984136    2.296332
     23          6           0      -31.963481    6.434265    0.531350
     24          7           0      -29.102839    0.336988    2.527938
     25          6           0      -29.989380    1.210048    3.042425
     26          6           0      -30.427232    0.765897    4.460761
     27          6           0      -29.682743   -0.538631    4.766881
     28          6           0      -28.980745   -0.750251    3.353546
     29          6           0      -30.322484    1.883415    5.453305
     30          6           0      -30.532492   -1.744341    5.222431
     31          6           0      -31.623420   -2.201040    4.222690
     32          7           0      -27.548885   -1.470885    0.876574
     33          6           0      -27.608654   -2.275157    1.963477
     34          6           0      -26.884160   -3.497848    1.620208
     35          6           0      -26.420048   -3.400259    0.278558
     36          6           0      -26.810401   -2.103161   -0.134442
     37          6           0      -26.767707   -4.740319    2.499186
     38          6           0      -25.708369   -4.061639   -0.768117
     39          8           0      -25.259962   -5.196230   -0.909545
     40          6           0      -25.656140   -2.932513   -1.990318
     41          6           0      -24.213747   -2.717417   -2.408499
     42          8           0      -23.435950   -2.008418   -1.800583
     43          8           0      -23.951687   -3.344678   -3.605302
     44          6           0      -22.564022   -3.586124   -3.986936
     45          1           0      -28.307422    3.278691   -3.009099
     46          1           0      -31.239944    2.889160    2.844697
     47          1           0      -28.264136   -2.585879    4.062198
     48          1           0      -25.586475   -0.423257   -3.865467
     49          1           0      -27.730322    1.297623   -4.530379
     50          1           0      -25.849400    2.906991   -3.267513
     51          1           0      -26.010841    2.740218   -4.994534
     52          1           0      -24.785586    1.793496   -4.127001
     53          1           0      -28.392167   -0.796928   -4.830335
     54          1           0      -27.631234   -2.165746   -4.031832
     55          1           0      -27.386423   -1.062801   -6.726051
     56          1           0      -26.587147   -2.549798   -6.067638
     57          1           0      -30.161731    6.127121   -1.536760
     58          1           0      -31.004928    5.097413   -2.674574
     59          1           0      -29.334186    5.243935   -2.798204
     60          1           0      -32.573888    6.274913   -0.357982
     61          1           0      -31.167429    7.154396    0.342294
     62          1           0      -32.776086    6.862442    1.117043
     63          1           0      -31.510123    0.660818    4.408243
     64          1           0      -28.858637   -0.239352    5.415438
     65          1           0      -31.286548    2.337986    5.682207
     66          1           0      -29.607649    2.627127    5.100797
     67          1           0      -29.893873    1.590616    6.412420
     68          1           0      -31.030470   -1.370590    6.117331
     69          1           0      -29.885962   -2.582572    5.483865
     70          1           0      -31.374733   -3.234656    3.982926
     71          1           0      -31.544538   -1.548787    3.352907
     72          1           0      -32.644829   -2.061496    4.577080
     73          1           0      -26.911836   -5.664372    1.940038
     74          1           0      -27.571948   -4.786776    3.232886
     75          1           0      -25.825679   -4.680467    3.044948
     76          1           0      -26.166457   -3.418674   -2.822169
     77          1           0      -22.004786   -2.695963   -3.697694
     78          1           0      -22.402842   -3.741408   -5.053767
     79          1           0      -22.279722   -4.507305   -3.478251
     80         12           0       28.749542    0.427711   -0.180465
     81          6           0       26.129629   -1.923777   -0.179688
     82          6           0       26.319647    2.851821   -0.740030
     83          6           0       31.061150    2.788620    0.236834
     84          6           0       30.773825   -1.993084    1.263635
     85          7           0       26.444629    0.409007   -0.260310
     86          6           0       25.569410   -0.654131   -0.368106
     87          6           0       24.195638   -0.312544   -0.905789
     88          6           0       24.265583    1.219927   -1.107959
     89          6           0       25.731335    1.553882   -0.676941
     90          6           0       23.934942    1.699987   -2.579277
     91          6           0       22.953729   -0.709028    0.011056
     92          6           0       23.149214   -0.693099    1.535896
     93          1           0       22.544070    0.491422    2.346013
     94          7           0       28.693851    2.481867   -0.251459
     95          6           0       27.630690    3.285447   -0.550921
     96          6           0       28.069428    4.685509   -0.636443
     97          6           0       29.469842    4.688957   -0.354413
     98          6           0       29.793969    3.252975   -0.092763
     99          6           0       27.140499    5.841272   -0.988683
    100          6           0       30.230960    6.064205   -0.267743
    101          8           0       29.579533    7.089331   -0.412012
    102          6           0       31.776282    6.101670    0.089496
    103          7           0       30.563452    0.414981    0.736022
    104          6           0       31.438294    1.495395    0.647712
    105          6           0       32.911863    1.090978    1.219963
    106          6           0       32.640146   -0.446375    1.665990
    107          6           0       31.244687   -0.676520    1.181986
    108          6           0       34.035093    1.253479    0.153894
    109          6           0       32.775259   -0.735471    3.222400
    110          6           0       33.672845   -1.891821    3.689515
    111          7           0       28.583275   -1.614883    0.328720
    112          6           0       29.460063   -2.490034    0.916943
    113          6           0       28.779629   -3.790842    1.089734
    114          6           0       27.481434   -3.607196    0.542570
    115          6           0       27.425078   -2.241971    0.145547
    116          6           0       29.327530   -5.038331    1.725663
    117          6           0       26.191295   -4.296946    0.353825
    118          8           0       25.836229   -5.475275    0.503257
    119          6           0       25.326676   -3.241600   -0.319585
    120          6           0       24.953807   -3.594751   -1.647913
    121          8           0       25.742699   -3.463691   -2.619396
    122          8           0       23.622674   -4.053011   -1.706490
    123          6           0       23.034356   -4.301085   -3.018784
    124          1           0       25.635891    3.630543   -1.083358
    125          1           0       31.879382    3.511155    0.229381
    126          1           0       31.491858   -2.710305    1.665614
    127          1           0       24.162665   -0.873275   -1.839148
    128          1           0       23.651541    1.645820   -0.315266
    129          1           0       22.984226    2.233052   -2.581439
    130          1           0       23.880370    0.794068   -3.183556
    131          1           0       24.699311    2.379414   -2.957859
    132          1           0       22.798192   -1.746907   -0.286142
    133          1           0       22.086984   -0.119991   -0.289632
    134          1           0       24.209057   -0.744485    1.787488
    135          1           0       22.752616   -1.625165    1.936296
    136          1           0       26.834062    6.455595   -0.142012
    137          1           0       26.336865    5.511571   -1.647263
    138          1           0       27.625197    6.527821   -1.682593
    139          1           0       32.264116    5.363773   -0.547845
    140          1           0       31.871440    5.848021    1.144958
    141          1           0       32.203608    7.104293    0.104961
    142          1           0       33.146780    1.831801    1.983645
    143          1           0       33.311635   -1.069745    1.075120
    144          1           0       34.177696    0.282059   -0.319048
    145          1           0       34.949358    1.682457    0.564176
    146          1           0       33.809812    1.984133   -0.622779
    147          1           0       31.760611   -0.851035    3.604847
    148          1           0       33.213925    0.198199    3.574420
    149          1           0       33.428465   -2.217348    4.701032
    150          1           0       34.664982   -1.442781    3.649260
    151          1           0       33.493816   -2.678909    2.956723
    152          1           0       30.083227   -4.669850    2.418857
    153          1           0       29.832074   -5.520700    0.888512
    154          1           0       28.580700   -5.723497    2.127856
    155          1           0       24.464365   -3.216535    0.346302
    156          1           0       23.463852   -5.104568   -3.617213
    157          1           0       23.065099   -3.390621   -3.618012
    158          1           0       21.961036   -4.403584   -2.858014
 ---------------------------------------------------------------------

 SCF Done:  E(RPBE1PBE) =  -4067.37506195     A.U. after   16 cycles

 Excitation energies and oscillator strengths:

 Excited State   1:      Singlet-A      1.8002 eV  688.74 nm  f=0.0000  <S**2>=0.000
     312 -> 313        0.70711
 This state for optimization and/or second-order correction.
 Total Energy, E(TD-HF/TD-DFT) =  -4067.30890746
 Copying the excited state density for this state as the 1-particle RhoCI density.

 Excited State   2:      Singlet-A      1.8182 eV  681.90 nm  f=0.3824  <S**2>=0.000
     309 -> 316        0.16261
     311 -> 313        0.69667
     311 <- 313       -0.11884

 Excited State   3:      Singlet-A      1.8696 eV  663.14 nm  f=0.3692  <S**2>=0.000
     310 -> 315       -0.17515
     312 -> 314        0.69212
     312 <- 314       -0.10392

 Excited State   4:      Singlet-A      2.1813 eV  568.40 nm  f=0.0000  <S**2>=0.000
     311 -> 314        0.70711

 Excited State   5:      Singlet-A      2.1901 eV  566.10 nm  f=0.1406  <S**2>=0.000
     309 -> 313        0.66503
     311 -> 316       -0.22002

 The electronic state is 1-A.
 Alpha  occ. eigenvalues --  -46.92343 -46.92322 -19.26403 -19.24919 -19.20423
 Alpha  occ. eigenvalues --  -19.19788 -19.19683 -19.19459 -19.19456 -19.18522
 Alpha  occ. eigenvalues --  -14.42051 -14.41926 -14.41716 -14.41078 -14.39881
 Alpha  occ. eigenvalues --  -14.39521 -14.39134 -14.39009 -10.36963 -10.36109
 Alpha  occ. eigenvalues --  -10.33635 -10.32809 -10.32549 -10.32527 -10.29550
 Alpha  occ. eigenvalues --  -10.29302 -10.29090 -10.29071 -10.28630 -10.28620
 Alpha  occ. eigenvalues --  -10.28536 -10.28450 -10.28431 -10.28430 -10.28385
 Alpha  occ. eigenvalues --  -10.28218 -10.28010 -10.27958 -10.27728 -10.27439
 Alpha  occ. eigenvalues --  -10.27145 -10.26976 -10.26924 -10.26805 -10.26483
 Alpha  occ. eigenvalues --  -10.26235 -10.26207 -10.26110 -10.26089 -10.25930
 Alpha  occ. eigenvalues --  -10.25925 -10.25912 -10.25897 -10.25895 -10.25878
 Alpha  occ. eigenvalues --  -10.25561 -10.25472 -10.25367 -10.25339 -10.25331
 Alpha  occ. eigenvalues --  -10.25167 -10.25126 -10.25099 -10.25009 -10.24959
 Alpha  occ. eigenvalues --  -10.24688 -10.24648 -10.24473 -10.24421 -10.24409
 Alpha  occ. eigenvalues --  -10.24408 -10.24404 -10.24257 -10.24248 -10.24056
 Alpha  occ. eigenvalues --  -10.23856 -10.23678 -10.23526 -10.23508 -10.23382
 Alpha  occ. eigenvalues --  -10.23153 -10.23148 -10.23070 -10.23017 -10.22834
 Alpha  occ. eigenvalues --  -10.22381  -3.14544  -3.14471  -1.87341  -1.87280
 Alpha  occ. eigenvalues --   -1.86935  -1.86845  -1.86770  -1.86708  -1.10209
 Alpha  occ. eigenvalues --   -1.09669  -1.05107  -1.04274  -1.03809  -1.03036
 Alpha  occ. eigenvalues --   -1.02273  -1.01766  -0.98885  -0.98852  -0.98173
 Alpha  occ. eigenvalues --   -0.98063  -0.97884  -0.97214  -0.96878  -0.96482
 Alpha  occ. eigenvalues --   -0.87516  -0.86587  -0.83520  -0.83479  -0.83085
 Alpha  occ. eigenvalues --   -0.82785  -0.82407  -0.82332  -0.81721  -0.81123
 Alpha  occ. eigenvalues --   -0.80997  -0.80444  -0.79804  -0.79730  -0.78819
 Alpha  occ. eigenvalues --   -0.78166  -0.78059  -0.77665  -0.77051  -0.76453
 Alpha  occ. eigenvalues --   -0.75854  -0.75338  -0.75229  -0.74972  -0.74416
 Alpha  occ. eigenvalues --   -0.74127  -0.72862  -0.72516  -0.71498  -0.71284
 Alpha  occ. eigenvalues --   -0.71058  -0.71001  -0.70831  -0.70150  -0.69339
 Alpha  occ. eigenvalues --   -0.69267  -0.67033  -0.66806  -0.66184  -0.65502
 Alpha  occ. eigenvalues --   -0.64252  -0.63640  -0.63539  -0.63332  -0.62845
 Alpha  occ. eigenvalues --   -0.62830  -0.61911  -0.61230  -0.60195  -0.59760
 Alpha  occ. eigenvalues --   -0.59675  -0.59298  -0.59104  -0.58748  -0.58732
 Alpha  occ. eigenvalues --   -0.58615  -0.57027  -0.56239  -0.55405  -0.54780
 Alpha  occ. eigenvalues --   -0.54132  -0.54063  -0.53608  -0.53377  -0.53218
 Alpha  occ. eigenvalues --   -0.52746  -0.52339  -0.52034  -0.51768  -0.51458
 Alpha  occ. eigenvalues --   -0.50659  -0.50488  -0.50289  -0.50066  -0.49495
 Alpha  occ. eigenvalues --   -0.49366  -0.49328  -0.48976  -0.48790  -0.48487
 Alpha  occ. eigenvalues --   -0.48385  -0.48011  -0.47702  -0.47601  -0.47308
 Alpha  occ. eigenvalues --   -0.47174  -0.47150  -0.46944  -0.46700  -0.46670
 Alpha  occ. eigenvalues --   -0.46505  -0.46159  -0.45911  -0.45796  -0.45651
 Alpha  occ. eigenvalues --   -0.45472  -0.45328  -0.45172  -0.44938  -0.44549
 Alpha  occ. eigenvalues --   -0.44466  -0.44143  -0.43940  -0.43920  -0.43870
 Alpha  occ. eigenvalues --   -0.43846  -0.43835  -0.43712  -0.43538  -0.43436
 Alpha  occ. eigenvalues --   -0.43217  -0.43207  -0.42924  -0.42837  -0.42829
 Alpha  occ. eigenvalues --   -0.42474  -0.42334  -0.42093  -0.42087  -0.41784
 Alpha  occ. eigenvalues --   -0.41411  -0.41345  -0.41132  -0.41072  -0.40981
 Alpha  occ. eigenvalues --   -0.40961  -0.40935  -0.40586  -0.40556  -0.40177
 Alpha  occ. eigenvalues --   -0.40076  -0.39964  -0.39751  -0.39527  -0.39435
 Alpha  occ. eigenvalues --   -0.39432  -0.39293  -0.39278  -0.38990  -0.38926
 Alpha  occ. eigenvalues --   -0.38861  -0.38803  -0.38696  -0.38210  -0.38032
 Alpha  occ. eigenvalues --   -0.37987  -0.37808  -0.37761  -0.37672  -0.37461
 Alpha  occ. eigenvalues --   -0.37449  -0.37283  -0.37252  -0.37064  -0.36896
 Alpha  occ. eigenvalues --   -0.36799  -0.36748  -0.36501  -0.36499  -0.36295
 Alpha  occ. eigenvalues --   -0.35963  -0.35572  -0.35525  -0.35430  -0.35234
 Alpha  occ. eigenvalues --   -0.35009  -0.34786  -0.34650  -0.34596  -0.34126
 Alpha  occ. eigenvalues --   -0.33850  -0.33656  -0.32810  -0.32633  -0.32601
 Alpha  occ. eigenvalues --   -0.32514  -0.32081  -0.32053  -0.31913  -0.31597
 Alpha  occ. eigenvalues --   -0.31368  -0.30875  -0.29981  -0.29204  -0.29065
 Alpha  occ. eigenvalues --   -0.28909  -0.28854  -0.28424  -0.27072  -0.26894
 Alpha  occ. eigenvalues --   -0.26291  -0.26202  -0.25974  -0.25815  -0.25612
 Alpha  occ. eigenvalues --   -0.25321  -0.25264  -0.24960  -0.21063  -0.21034
 Alpha  occ. eigenvalues --   -0.18990  -0.18481
 Alpha virt. eigenvalues --   -0.11633  -0.10740  -0.05272  -0.05024  -0.04278
 Alpha virt. eigenvalues --   -0.03972  -0.02389  -0.02318  -0.01275  -0.01166
 Alpha virt. eigenvalues --   -0.01027   0.00593   0.00820   0.01067   0.01113

 Mulliken charges:
               1
     1  Mg  12.000000
     2  C    6.000000
     3  C    6.000000
     4  C    6.000000
     5  C    6.000000
     6  N    7.000000
     7  C    6.000000
     8  C    6.000000
     9  C    6.000000
    10  C    6.000000
    11  C    6.000000
    12  C    6.000000
    13  C    6.000000
    14  H    1.000000
    15  N    7.000000
    16  C    6.000000
    17  C    6.000000
    18  C    6.000000
    19  C    6.000000
    20  C    6.000000
    21  C    6.000000
    22  O    8.000000
    23  C    6.000000
    24  N    7.000000
    25  C    6.000000
    26  C    6.000000
    27  C    6.000000
    28  C    6.000000
    29  C    6.000000
    30  C    6.000000
    31  C    6.000000
    32  N    7.000000
    33  C    6.000000
    34  C    6.000000
    35  C    6.000000
    36  C    6.000000
    37  C    6.000000
    38  C    6.000000
    39  O    8.000000
    40  C    6.000000
    41  C    6.000000
    42  O    8.000000
    43  O    8.000000
    44  C    6.000000
    45  H    1.000000
    46  H    1.000000
    47  H    1.000000
    48  H    1.000000
    49  H    1.000000
    50  H    1.000000
    51  H    1.000000
    52  H    1.000000
    53  H    1.000000
    54  H    1.000000
    55  H    1.000000
    56  H    1.000000
    57  H    1.000000
    58  H    1.000000
    59  H    1.000000
    60  H    1.000000
    61  H    1.000000
    62  H    1.000000
    63  H    1.000000
    64  H    1.000000
    65  H    1.000000
    66  H    1.000000
    67  H    1.000000
    68  H    1.000000
    69  H    1.000000
    70  H    1.000000
    71  H    1.000000
    72  H    1.000000
    73  H    1.000000
    74  H    1.000000
    75  H    1.000000
    76  H    1.000000
    77  H    1.000000
    78  H    1.000000
    79  H    1.000000
    80  Mg  12.000000
    81  C    6.000000
    82  C    6.000000
    83  C    6.000000
    84  C    6.000000
    85  N    7.000000
    86  C    6.000000
    87  C    6.000000
    88  C    6.000000
    89  C    6.000000
    90  C    6.000000
    91  C    6.000000
    92  C    6.000000
    93  H    1.000000
    94  N    7.000000
    95  C    6.000000
    96  C    6.000000
    97  C    6.000000
    98  C    6.000000
    99  C    6.000000
   100  C    6.000000
   101  O    8.000000
   102  C    6.000000
   103  N    7.000000
   104  C    6.000000
   105  C    6.000000
   106  C    6.000000
   107  C    6.000000
   108  C    6.000000
   109  C    6.000000
   110  C    6.000000
   111  N    7.000000
   112  C    6.000000
   113  C    6.000000
   114  C    6.000000
   115  C    6.000000
   116  C    6.000000
   117  C    6.000000
   118  O    8.000000
   119  C    6.000000
   120  C    6.000000
   121  O    8.000000
   122  O    8.000000
   123  C    6.000000
   124  H    1.000000
   125  H    1.000000
   126  H    1.000000
   127  H    1.000000
   128  H    1.000000
   129  H    1.000000
   130  H    1.000000
   131  H    1.000000
   132  H    1.000000
   133  H    1.000000
   134  H    1.000000
   135  H    1.000000
   136  H    1.000000
   137  H    1.000000
   138  H    1.000000
   139  H    1.000000
   140  H    1.000000
   141  H    1.000000
   142  H    1.000000
   143  H    1.000000
   144  H    1.000000
   145  H    1.000000
   146  H    1.000000
   147  H    1.000000
   148  H    1.000000
   149  H    1.000000
   150  H    1.000000
   151  H    1.000000
   152  H    1.000000
   153  H    1.000000
   154  H    1.000000
   155  H    1.000000
   156  H    1.000000
   157  H    1.000000
   158  H    1.000000
 Sum of Mulliken charges = 624.00000

 Dipole moment (field-independent basis, Debye):
    X=             -0.0000    Y=              0.0000    Z=             -0.0000  Tot=              0.0000
 Quadrupole moment (field-independent basis, Debye-Ang):
   XX=              0.0000   YY=              0.0000   ZZ=             -0.0000
   XY=             -0.0000   XZ=              0.0000   YZ=              0.0000

 Normal termination of Gaussian 16 at Thu Oct 14 12:14:33 2021.
