 Gaussian 16, Revision A.03,
 Gaussian 16:  ES64L-G16RevA.03 25-Dec-2016

 --------------------------------------------------------
 #p PBE1PBE/Def2SVP td=(nstates=5) density=(transition=1)
 --------------------------------------------------------

 --------------------------------
 TDDFT excited states in gaussian
 --------------------------------
 Symbolic Z-matrix:
 Charge =  0 Multiplicity = 1

                         Standard orientation:
 ---------------------------------------------------------------------
 Center     Atomic      Atomic             Coordinates (Angstroms)
 Number     Number       Type             X           Y           Z
 ---------------------------------------------------------------------
      1         12           0       28.778534    0.557987    0.570800
      2          6           0       28.906642   -2.446409   -1.169053
      3          6           0       26.752783    1.721671   -1.992761
      4          6           0       29.049587    3.643586    1.975025
      5          6           0       30.947352   -0.748241    2.925773
      6          7           0       27.975937   -0.260049   -1.387738
      7          6           0       28.122475   -1.542740   -1.893549
      8          6           0       27.458520   -1.748720   -3.311509
      9          6           0       27.065920   -0.256842   -3.642931
     10          6           0       27.306858    0.482168   -2.275210
     11          6           0       27.772871    0.517074   -4.759524
     12          6           0       26.299528   -2.759327   -3.233788
     13          6           0       26.532246   -4.118343   -3.839656
     14          1           0       25.336258   -4.773800   -4.552787
     15          7           0       27.878532    2.391067    0.212414
     16          6           0       27.038830    2.594642   -0.837888
     17          6           0       26.642640    4.013956   -0.754379
     18          6           0       27.349559    4.619216    0.296390
     19          6           0       28.115732    3.594863    0.892646
     20          6           0       25.568836    4.553273   -1.609638
     21          6           0       27.378225    6.051039    0.744721
     22          8           0       27.979217    6.443004    1.783366
     23          6           0       26.759952    7.123058    0.029893
     24          7           0       29.752670    1.303044    2.217251
     25          6           0       29.698253    2.601191    2.622713
     26          6           0       30.509202    2.880143    3.826540
     27          6           0       31.084118    1.464023    4.189721
     28          6           0       30.623268    0.662345    3.030951
     29          6           0       31.625318    3.964943    3.871531
     30          6           0       30.695383    0.914857    5.650454
     31          6           0       29.360475    0.170976    5.951784
     32          7           0       29.788004   -1.184417    0.862835
     33          6           0       30.602817   -1.592589    1.879306
     34          6           0       30.867930   -2.959990    1.764671
     35          6           0       30.266259   -3.300984    0.492471
     36          6           0       29.604380   -2.188363    0.012699
     37          6           0       31.605323   -3.861374    2.753201
     38          6           0       29.997684   -4.431729   -0.348820
     39          8           0       30.206365   -5.625022   -0.266051
     40          6           0       29.276787   -3.838955   -1.609991
     41          6           0       30.197350   -3.846657   -2.764185
     42          8           0       30.680750   -2.844952   -3.336169
     43          8           0       30.544029   -5.078961   -3.195815
     44          6           0       31.276912   -5.231598   -4.498843
     45          1           0       26.169281    2.101055   -2.833459
     46          1           0       29.206550    4.614109    2.450711
     47          1           0       31.487557   -1.279558    3.712751
     48          1           0       28.201631   -1.907408   -4.093687
     49          1           0       25.994273   -0.276888   -3.840859
     50          1           0       28.397894    1.302921   -4.334723
     51          1           0       26.996506    1.085880   -5.269078
     52          1           0       28.360648   -0.086948   -5.451600
     53          1           0       25.494227   -2.309011   -3.815320
     54          1           0       25.961730   -2.808390   -2.198614
     55          1           0       26.838223   -4.785777   -3.033615
     56          1           0       27.359211   -4.183125   -4.546925
     57          1           0       24.789278    4.861691   -0.914221
     58          1           0       25.122358    3.921785   -2.378825
     59          1           0       25.930162    5.438563   -2.132840
     60          1           0       27.019373    6.955677   -1.015141
     61          1           0       26.981674    8.080576    0.499397
     62          1           0       25.675593    7.012767    0.017061
     63          1           0       29.709518    3.169836    4.507594
     64          1           0       32.170816    1.488210    4.117497
     65          1           0       31.375328    4.781733    4.548686
     66          1           0       31.764878    4.427411    2.893832
     67          1           0       32.607508    3.565853    4.124517
     68          1           0       30.654639    1.835832    6.232432
     69          1           0       31.592745    0.344612    5.891057
     70          1           0       28.767502   -0.097767    5.077945
     71          1           0       28.738803    0.601536    6.737310
     72          1           0       29.688851   -0.747598    6.436316
     73          1           0       32.454402   -4.365089    2.290022
     74          1           0       30.916733   -4.652127    3.050503
     75          1           0       31.902168   -3.370439    3.680379
     76          1           0       28.509407   -4.553247   -1.908842
     77          1           0       31.107630   -6.301945   -4.617163
     78          1           0       32.332427   -4.963146   -4.469796
     79          1           0       30.791682   -4.627519   -5.266111
     80         12           0      -29.640869   -0.229929   -0.071039
     81          6           0      -26.327336    0.414928   -0.906546
     82          6           0      -28.534113   -2.964286    1.751615
     83          6           0      -32.646310   -0.639304    1.242333
     84          6           0      -30.559868    2.787115   -1.496315
     85          7           0      -27.666328   -1.071656    0.506008
     86          6           0      -26.459447   -0.727212   -0.067309
     87          6           0      -25.352080   -1.672325    0.294362
     88          6           0      -26.167838   -2.934069    0.821461
     89          6           0      -27.530647   -2.309842    1.090440
     90          6           0      -26.143007   -4.342385    0.057836
     91          6           0      -24.247728   -1.084816    1.289979
     92          6           0      -24.708988   -0.038567    2.347827
     93          1           0      -24.095777   -0.225888    3.714752
     94          7           0      -30.464888   -1.540805    1.403452
     95          6           0      -29.832103   -2.622612    2.028348
     96          6           0      -30.698611   -3.262786    2.979654
     97          6           0      -31.932706   -2.578365    2.871674
     98          6           0      -31.745044   -1.514769    1.840412
     99          6           0      -30.284551   -4.581790    3.634037
    100          6           0      -33.168425   -2.992286    3.702817
    101          8           0      -33.112164   -3.873083    4.566989
    102          6           0      -34.428632   -2.313912    3.363963
    103          7           0      -31.291429    1.014593   -0.055334
    104          6           0      -32.499539    0.462166    0.335531
    105          6           0      -33.712441    1.346242   -0.029142
    106          6           0      -32.926265    2.545254   -0.701811
    107          6           0      -31.520521    2.136998   -0.716695
    108          6           0      -34.792021    0.789725   -0.902776
    109          6           0      -33.070055    3.927391    0.115166
    110          6           0      -33.380053    5.074919   -0.810341
    111          7           0      -28.711706    1.251951   -1.203713
    112          6           0      -29.221970    2.429885   -1.717135
    113          6           0      -28.150143    3.186250   -2.404092
    114          6           0      -26.973587    2.413591   -2.108260
    115          6           0      -27.387387    1.285815   -1.389797
    116          6           0      -28.154724    4.543946   -2.979844
    117          6           0      -25.500192    2.320951   -2.187579
    118          8           0      -24.705246    3.115702   -2.633470
    119          6           0      -25.037273    1.019191   -1.457535
    120          6           0      -24.255211    0.178595   -2.364887
    121          8           0      -23.082799   -0.190020   -2.290125
    122          8           0      -25.005170    0.063009   -3.564645
    123          6           0      -24.409936   -0.804145   -4.603899
    124          1           0      -28.183955   -3.941085    2.093282
    125          1           0      -33.708689   -0.781217    1.450731
    126          1           0      -30.966607    3.678478   -1.977253
    127          1           0      -24.776218   -1.935576   -0.592802
    128          1           0      -25.684636   -3.087761    1.786669
    129          1           0      -25.460804   -4.410912   -0.789329
    130          1           0      -27.097902   -4.615695   -0.390948
    131          1           0      -25.719422   -5.099885    0.717857
    132          1           0      -23.393277   -0.703445    0.731866
    133          1           0      -23.827483   -1.944652    1.811630
    134          1           0      -25.796147   -0.029205    2.431682
    135          1           0      -24.417164    0.961466    2.028273
    136          1           0      -30.693349   -4.724110    4.634901
    137          1           0      -29.207664   -4.574789    3.800416
    138          1           0      -30.659740   -5.367079    2.977370
    139          1           0      -34.757417   -2.664153    2.385983
    140          1           0      -34.284881   -1.233409    3.394539
    141          1           0      -35.134480   -2.635166    4.129857
    142          1           0      -34.090405    1.776698    0.898487
    143          1           0      -33.254099    2.484302   -1.739535
    144          1           0      -35.410011    1.641341   -1.187747
    145          1           0      -35.429365    0.174465   -0.267650
    146          1           0      -34.360886    0.236204   -1.737788
    147          1           0      -32.136667    4.057496    0.662699
    148          1           0      -33.773874    3.940921    0.948328
    149          1           0      -32.504862    5.723474   -0.841054
    150          1           0      -34.101032    5.771455   -0.381116
    151          1           0      -33.518704    4.703406   -1.825446
    152          1           0      -29.107398    5.074174   -2.940054
    153          1           0      -27.928339    4.418180   -4.038063
    154          1           0      -27.506180    5.057068   -2.270060
    155          1           0      -24.431579    1.375998   -0.624843
    156          1           0      -25.270979   -1.391113   -4.925595
    157          1           0      -23.599569   -1.493139   -4.365632
    158          1           0      -24.242884   -0.135234   -5.448349
 ---------------------------------------------------------------------

 SCF Done:  E(RPBE1PBE) =  -4067.38307165     A.U. after   17 cycles

 Excitation energies and oscillator strengths:

 Excited State   1:      Singlet-A      1.8654 eV  664.65 nm  f=0.3557  <S**2>=0.000
     310 -> 316       -0.17012
     312 -> 314        0.69137
     312 <- 314       -0.10901
 This state for optimization and/or second-order correction.
 Total Energy, E(TD-HF/TD-DFT) =  -4067.31451884
 Copying the excited state density for this state as the 1-particle RhoCI density.

 Excited State   2:      Singlet-A      1.8711 eV  662.62 nm  f=0.3707  <S**2>=0.000
     309 -> 315        0.17699
     311 -> 313        0.68961
     311 <- 313       -0.10394

 Excited State   3:      Singlet-A      1.9838 eV  624.99 nm  f=0.0000  <S**2>=0.000
     312 -> 313        0.70711

 Excited State   4:      Singlet-A      2.0639 eV  600.74 nm  f=0.0000  <S**2>=0.000
     311 -> 314        0.70711

 Excited State   5:      Singlet-A      2.2140 eV  560.01 nm  f=0.0899  <S**2>=0.000
     309 -> 313        0.64346
     311 -> 315       -0.27381

 The electronic state is 1-A.
 Alpha  occ. eigenvalues --  -46.92502 -46.90917 -19.25023 -19.24655 -19.20766
 Alpha  occ. eigenvalues --  -19.19180 -19.19114 -19.18489 -19.18484 -19.18152
 Alpha  occ. eigenvalues --  -14.41758 -14.41689 -14.41449 -14.41385 -14.39250
 Alpha  occ. eigenvalues --  -14.39168 -14.38893 -14.38039 -10.36745 -10.35509
 Alpha  occ. eigenvalues --  -10.32358 -10.32178 -10.31571 -10.31335 -10.29336
 Alpha  occ. eigenvalues --  -10.29203 -10.28969 -10.28720 -10.28562 -10.28533
 Alpha  occ. eigenvalues --  -10.28272 -10.28258 -10.28235 -10.28124 -10.27960
 Alpha  occ. eigenvalues --  -10.27907 -10.27771 -10.27662 -10.26931 -10.26724
 Alpha  occ. eigenvalues --  -10.26474 -10.26363 -10.26351 -10.26299 -10.26266
 Alpha  occ. eigenvalues --  -10.26042 -10.25990 -10.25959 -10.25948 -10.25938
 Alpha  occ. eigenvalues --  -10.25928 -10.25883 -10.25741 -10.25616 -10.25575
 Alpha  occ. eigenvalues --  -10.25436 -10.25292 -10.25231 -10.25090 -10.24956
 Alpha  occ. eigenvalues --  -10.24936 -10.24898 -10.24858 -10.24813 -10.24768
 Alpha  occ. eigenvalues --  -10.24607 -10.24551 -10.24460 -10.24429 -10.24368
 Alpha  occ. eigenvalues --  -10.24333 -10.24295 -10.24247 -10.23752 -10.23701
 Alpha  occ. eigenvalues --  -10.23629 -10.23477 -10.23443 -10.23397 -10.23350
 Alpha  occ. eigenvalues --  -10.23279 -10.23225 -10.23216 -10.23137 -10.22883
 Alpha  occ. eigenvalues --  -10.22395  -3.14608  -3.13209  -1.87432  -1.86998
 Alpha  occ. eigenvalues --   -1.86823  -1.86062  -1.85588  -1.85437  -1.09854
 Alpha  occ. eigenvalues --   -1.09548  -1.05193  -1.04305  -1.04033  -1.02586
 Alpha  occ. eigenvalues --   -1.01731  -0.99857  -0.99695  -0.99509  -0.98743
 Alpha  occ. eigenvalues --   -0.98365  -0.97851  -0.97845  -0.96971  -0.96854
 Alpha  occ. eigenvalues --   -0.87466  -0.86831  -0.83962  -0.83525  -0.83251
 Alpha  occ. eigenvalues --   -0.82712  -0.82592  -0.82287  -0.81958  -0.81816
 Alpha  occ. eigenvalues --   -0.81308  -0.81256  -0.80441  -0.80439  -0.79044
 Alpha  occ. eigenvalues --   -0.78772  -0.78608  -0.77917  -0.76959  -0.76956
 Alpha  occ. eigenvalues --   -0.76690  -0.76585  -0.75282  -0.75199  -0.74855
 Alpha  occ. eigenvalues --   -0.74506  -0.72864  -0.72696  -0.71808  -0.71788
 Alpha  occ. eigenvalues --   -0.71119  -0.71102  -0.70518  -0.70493  -0.70103
 Alpha  occ. eigenvalues --   -0.69629  -0.67538  -0.67121  -0.66587  -0.65758
 Alpha  occ. eigenvalues --   -0.64473  -0.63755  -0.63672  -0.63105  -0.62591
 Alpha  occ. eigenvalues --   -0.62418  -0.61485  -0.61254  -0.60872  -0.59656
 Alpha  occ. eigenvalues --   -0.59480  -0.59376  -0.59194  -0.59083  -0.58890
 Alpha  occ. eigenvalues --   -0.58555  -0.57081  -0.56055  -0.54802  -0.54475
 Alpha  occ. eigenvalues --   -0.54157  -0.53988  -0.53699  -0.53549  -0.53245
 Alpha  occ. eigenvalues --   -0.52901  -0.52230  -0.52122  -0.51818  -0.51781
 Alpha  occ. eigenvalues --   -0.50898  -0.50753  -0.50369  -0.50096  -0.49912
 Alpha  occ. eigenvalues --   -0.49647  -0.49446  -0.49121  -0.48903  -0.48388
 Alpha  occ. eigenvalues --   -0.48379  -0.47812  -0.47614  -0.47266  -0.47242
 Alpha  occ. eigenvalues --   -0.47080  -0.47033  -0.46998  -0.46728  -0.46570
 Alpha  occ. eigenvalues --   -0.46498  -0.46489  -0.46266  -0.45727  -0.45642
 Alpha  occ. eigenvalues --   -0.45396  -0.45388  -0.45067  -0.44941  -0.44793
 Alpha  occ. eigenvalues --   -0.44775  -0.44327  -0.44306  -0.44216  -0.44183
 Alpha  occ. eigenvalues --   -0.43980  -0.43888  -0.43583  -0.43494  -0.43423
 Alpha  occ. eigenvalues --   -0.43193  -0.43023  -0.42949  -0.42796  -0.42791
 Alpha  occ. eigenvalues --   -0.42583  -0.42411  -0.42398  -0.41904  -0.41874
 Alpha  occ. eigenvalues --   -0.41653  -0.41412  -0.41251  -0.41161  -0.40985
 Alpha  occ. eigenvalues --   -0.40970  -0.40933  -0.40758  -0.40469  -0.40409
 Alpha  occ. eigenvalues --   -0.40157  -0.40156  -0.40054  -0.39901  -0.39896
 Alpha  occ. eigenvalues --   -0.39812  -0.39713  -0.39566  -0.39522  -0.39417
 Alpha  occ. eigenvalues --   -0.39024  -0.38765  -0.38741  -0.38557  -0.38523
 Alpha  occ. eigenvalues --   -0.38283  -0.38161  -0.37959  -0.37842  -0.37745
 Alpha  occ. eigenvalues --   -0.37694  -0.37647  -0.37336  -0.37330  -0.37006
 Alpha  occ. eigenvalues --   -0.36786  -0.36606  -0.36528  -0.36428  -0.36233
 Alpha  occ. eigenvalues --   -0.36102  -0.35977  -0.35617  -0.35338  -0.35154
 Alpha  occ. eigenvalues --   -0.34874  -0.34786  -0.34582  -0.34064  -0.33802
 Alpha  occ. eigenvalues --   -0.33523  -0.33204  -0.32970  -0.32815  -0.32448
 Alpha  occ. eigenvalues --   -0.31961  -0.31895  -0.31609  -0.31571  -0.31454
 Alpha  occ. eigenvalues --   -0.30572  -0.30501  -0.30312  -0.29717  -0.29511
 Alpha  occ. eigenvalues --   -0.28896  -0.28762  -0.27547  -0.26921  -0.26643
 Alpha  occ. eigenvalues --   -0.25894  -0.25757  -0.25615  -0.25538  -0.25350
 Alpha  occ. eigenvalues --   -0.25187  -0.24999  -0.24870  -0.21009  -0.20592
 Alpha  occ. eigenvalues --   -0.18876  -0.18687
 Alpha virt. eigenvalues --   -0.11170  -0.11065  -0.05721  -0.04860  -0.03540
 Alpha virt. eigenvalues --   -0.03494  -0.02011  -0.01964  -0.01122  -0.00512
 Alpha virt. eigenvalues --    0.00634   0.00790   0.00859   0.01458   0.01947

 Mulliken charges:
               1
     1  Mg  12.000070
     2  C    6.017842
     3  C    5.986382
     4  C    5.982584
     5  C    5.996433
     6  N    7.004830
     7  C    5.973982
     8  C    6.011537
     9  C    5.994393
    10  C    6.025407
    11  C    5.998271
    12  C    6.003771
    13  C    6.001914
    14  H    0.993565
    15  N    6.995798
    16  C    6.039816
    17  C    6.029666
    18  C    6.006008
    19  C    6.032627
    20  C    5.994354
    21  C    6.011567
    22  O    8.024761
    23  C    5.995861
    24  N    6.991503
    25  C    6.037872
    26  C    5.985701
    27  C    6.012789
    28  C    5.967303
    29  C    6.001048
    30  C    6.003857
    31  C    6.001432
    32  N    7.003381
    33  C    5.975559
    34  C    5.971637
    35  C    5.995369
    36  C    5.973630
    37  C    6.001878
    38  C    5.985972
    39  O    7.972337
    40  C    5.995347
    41  C    5.999042
    42  O    7.989554
    43  O    8.001494
    44  C    6.001915
    45  H    1.009644
    46  H    1.008006
    47  H    0.987235
    48  H    0.996361
    49  H    1.000676
    50  H    0.996308
    51  H    0.999147
    52  H    1.011723
    53  H    0.991343
    54  H    0.999600
    55  H    1.005198
    56  H    1.000396
    57  H    1.020289
    58  H    1.019599
    59  H    1.021134
    60  H    1.003408
    61  H    1.013154
    62  H    1.006414
    63  H    0.999831
    64  H    0.999496
    65  H    0.999787
    66  H    0.997172
    67  H    1.009913
    68  H    0.988092
    69  H    1.001474
    70  H    1.000761
    71  H    0.991696
    72  H    1.001607
    73  H    0.982605
    74  H    0.983336
    75  H    0.984363
    76  H    0.991724
    77  H    0.997112
    78  H    0.997290
    79  H    0.994046
    80  Mg  11.999958
    81  C    6.000662
    82  C    5.999671
    83  C    5.999029
    84  C    6.000255
    85  N    7.000142
    86  C    5.999010
    87  C    6.000341
    88  C    5.999640
    89  C    6.000982
    90  C    5.999871
    91  C    6.000069
    92  C    6.000137
    93  H    0.999762
    94  N    6.999872
    95  C    6.001170
    96  C    6.000528
    97  C    6.000393
    98  C    6.001192
    99  C    5.999904
   100  C    6.000424
   101  O    8.000601
   102  C    5.999849
   103  N    6.999927
   104  C    6.001264
   105  C    5.999507
   106  C    6.000334
   107  C    5.999015
   108  C    5.999927
   109  C    6.000135
   110  C    6.000004
   111  N    6.999996
   112  C    5.999005
   113  C    5.999103
   114  C    5.999882
   115  C    5.999155
   116  C    6.000104
   117  C    5.999444
   118  O    7.999167
   119  C    5.999968
   120  C    5.999770
   121  O    7.999707
   122  O    8.000181
   123  C    6.000066
   124  H    1.000382
   125  H    1.000214
   126  H    0.999656
   127  H    1.000008
   128  H    1.000156
   129  H    1.000411
   130  H    1.000002
   131  H    1.000103
   132  H    1.000111
   133  H    0.999758
   134  H    0.999790
   135  H    1.000190
   136  H    1.000468
   137  H    1.000447
   138  H    1.000547
   139  H    1.000287
   140  H    1.000299
   141  H    1.000394
   142  H    1.000055
   143  H    0.999973
   144  H    1.000266
   145  H    0.999851
   146  H    1.000136
   147  H    1.000000
   148  H    0.999630
   149  H    1.000101
   150  H    0.999836
   151  H    0.999987
   152  H    0.999452
   153  H    0.999459
   154  H    0.999503
   155  H    0.999778
   156  H    0.999865
   157  H    0.999805
   158  H    0.999960
 Sum of Mulliken charges = 624.00000

 Dipole moment (field-independent basis, Debye):
    X=             -4.4934    Y=              8.7955    Z=             -1.7348  Tot=             10.0280
 Quadrupole moment (field-independent basis, Debye-Ang):
   XX=           -243.8229   YY=             11.2538   ZZ=             -5.2183
   XY=            263.1853   XZ=            -62.1547   YZ=              1.0631

 Normal termination of Gaussian 16 at Thu Oct 14 04:28:16 2021.
