 Gaussian 16, Revision A.03,
 Gaussian 16:  ES64L-G16RevA.03 25-Dec-2016

 --------------------------------------------------------
 #p PBE1PBE/Def2SVP td=(nstates=5) density=(transition=1)
 --------------------------------------------------------

 --------------------------------
 TDDFT excited states in gaussian
 --------------------------------
 Symbolic Z-matrix:
 Charge =  0 Multiplicity = 1

                         Standard orientation:
 ---------------------------------------------------------------------
 Center     Atomic      Atomic             Coordinates (Angstroms)
 Number     Number       Type             X           Y           Z
 ---------------------------------------------------------------------
      1         12           0        8.587480    0.485809    0.426278
      2          6           0        7.375166   -0.942314   -2.430403
      3          6           0        7.565783    3.628049   -0.894741
      4          6           0        9.405557    1.887265    3.384755
      5          6           0        8.666574   -2.656839    1.927824
      6          7           0        7.195069    1.216710   -1.378661
      7          6           0        7.064750    0.444887   -2.494020
      8          6           0        6.373864    1.226578   -3.576879
      9          6           0        6.405712    2.730494   -3.060382
     10          6           0        7.113013    2.581827   -1.676252
     11          6           0        6.721871    3.771009   -4.071764
     12          6           0        4.954124    0.735697   -4.132537
     13          6           0        4.028414    0.029746   -3.186671
     14          1           0        2.583191    0.506357   -3.148415
     15          7           0        8.714938    2.492842    1.038673
     16          6           0        8.292276    3.605614    0.380000
     17          6           0        8.503128    4.798463    1.145688
     18          6           0        9.165842    4.306468    2.385872
     19          6           0        9.124887    2.829736    2.309536
     20          6           0        8.196286    6.174016    0.788368
     21          6           0        9.769253    5.110490    3.528587
     22          8           0        9.616998    6.278930    3.585746
     23          6           0       10.501045    4.559123    4.720769
     24          7           0        8.844343   -0.258820    2.369844
     25          6           0        9.351299    0.510685    3.345143
     26          6           0        9.430885   -0.309479    4.737258
     27          6           0        9.555938   -1.790802    4.129391
     28          6           0        8.943481   -1.552761    2.769681
     29          6           0       10.585874    0.068133    5.668974
     30          6           0        8.923233   -2.863049    5.034713
     31          6           0        9.680085   -4.154044    5.368391
     32          7           0        8.015156   -1.418960   -0.086179
     33          6           0        8.130948   -2.629949    0.584919
     34          6           0        7.818836   -3.720829   -0.254219
     35          6           0        7.558250   -3.150619   -1.489337
     36          6           0        7.688040   -1.723177   -1.351944
     37          6           0        7.848696   -5.179107    0.084923
     38          6           0        7.263607   -3.325791   -2.850359
     39          8           0        7.066110   -4.387776   -3.437266
     40          6           0        6.959490   -1.939239   -3.485846
     41          6           0        7.825017   -1.936558   -4.737311
     42          8           0        7.398846   -1.683051   -5.883996
     43          8           0        9.128603   -2.113762   -4.337498
     44          6           0       10.270196   -1.920398   -5.264780
     45          1           0        7.118344    4.538119   -1.299587
     46          1           0        9.469316    2.334710    4.378707
     47          1           0        8.762851   -3.643137    2.385737
     48          1           0        6.956594    1.131030   -4.493797
     49          1           0        5.387622    2.957708   -2.745529
     50          1           0        7.485604    4.476379   -3.744465
     51          1           0        5.826087    4.259798   -4.454885
     52          1           0        7.181128    3.299032   -4.940390
     53          1           0        5.014927    0.027528   -4.958997
     54          1           0        4.354185    1.604016   -4.406713
     55          1           0        4.435447   -0.139875   -2.190405
     56          1           0        3.857800   -0.965128   -3.599350
     57          1           0        8.279540    6.280927   -0.292727
     58          1           0        8.838873    6.912334    1.266542
     59          1           0        7.165417    6.353270    1.095903
     60          1           0       10.926904    3.709673    4.186213
     61          1           0        9.831823    4.226738    5.513730
     62          1           0       11.259920    5.194646    5.177485
     63          1           0        8.444554   -0.211965    5.191862
     64          1           0       10.547108   -2.175464    3.890417
     65          1           0       11.317904   -0.737492    5.606152
     66          1           0       10.204166    0.362912    6.646040
     67          1           0       11.115329    0.966389    5.352699
     68          1           0        7.980652   -3.146468    4.565641
     69          1           0        8.594813   -2.372236    5.950993
     70          1           0        9.746451   -4.465939    6.410815
     71          1           0       10.667272   -4.200080    4.906700
     72          1           0        9.157313   -4.882722    4.749666
     73          1           0        8.150512   -5.831905   -0.734495
     74          1           0        6.853483   -5.475241    0.417330
     75          1           0        8.564457   -5.424326    0.870648
     76          1           0        5.891268   -1.999691   -3.690454
     77          1           0       11.123022   -1.440513   -4.784994
     78          1           0        9.930582   -1.299359   -6.093837
     79          1           0       10.728514   -2.770882   -5.767930
     80         12           0       -8.882722    0.164539   -0.291340
     81          6           0       -6.531741   -2.471181   -0.215554
     82          6           0       -6.626329    2.174176   -1.612133
     83          6           0      -10.924662    2.778271    0.528246
     84          6           0      -10.860079   -1.857775    2.090992
     85          7           0       -6.785942   -0.150198   -0.786152
     86          6           0       -6.129489   -1.322951   -0.900188
     87          6           0       -4.846163   -1.105070   -1.725521
     88          6           0       -4.891456    0.320011   -2.175450
     89          6           0       -6.163338    0.866904   -1.459293
     90          6           0       -3.517307    1.078011   -1.964661
     91          6           0       -4.518979   -2.113400   -2.877295
     92          6           0       -3.819857   -1.663684   -4.231176
     93          1           0       -2.678457   -2.527330   -4.787718
     94          7           0       -8.872839    2.163117   -0.745919
     95          6           0       -7.808015    2.818636   -1.321686
     96          6           0       -8.195504    4.186000   -1.522341
     97          6           0       -9.462254    4.444686   -0.867431
     98          6           0       -9.777601    3.122499   -0.283055
     99          6           0       -7.230568    5.092239   -2.173014
    100          6           0      -10.336823    5.722038   -0.823414
    101          8           0      -11.336985    5.739446   -0.184765
    102          6           0      -10.075714    6.849235   -1.768616
    103          7           0      -10.618432    0.402915    1.173990
    104          6           0      -11.297247    1.571881    1.150724
    105          6           0      -12.563119    1.533845    2.065384
    106          6           0      -12.584772    0.049967    2.544072
    107          6           0      -11.286091   -0.534549    1.935322
    108          6           0      -12.564773    2.504215    3.216564
    109          6           0      -13.825803   -0.831784    2.165455
    110          6           0      -13.936729   -1.377304    0.781915
    111          7           0       -8.840542   -1.749241    0.768243
    112          6           0       -9.706123   -2.395120    1.603761
    113          6           0       -9.228218   -3.735048    1.843055
    114          6           0       -7.984472   -3.848304    1.167801
    115          6           0       -7.775543   -2.590229    0.567121
    116          6           0       -9.793490   -4.752763    2.769822
    117          6           0       -6.856208   -4.691633    0.893541
    118          8           0       -6.582509   -5.851454    1.180201
    119          6           0       -5.883850   -3.858288   -0.056415
    120          6           0       -4.440543   -3.865440    0.418275
    121          8           0       -4.069616   -3.361571    1.446900
    122          8           0       -3.651038   -4.491745   -0.532983
    123          6           0       -2.242172   -4.579841   -0.147377
    124          1           0       -6.024262    2.848385   -2.225473
    125          1           0      -11.554694    3.652851    0.701701
    126          1           0      -11.494183   -2.496467    2.709254
    127          1           0       -4.120417   -1.305092   -0.937228
    128          1           0       -5.014178    0.316060   -3.258862
    129          1           0       -2.754559    0.363955   -1.654542
    130          1           0       -3.707341    1.925922   -1.306666
    131          1           0       -3.112010    1.432564   -2.912539
    132          1           0       -5.466397   -2.567132   -3.169238
    133          1           0       -3.922584   -2.954617   -2.523101
    134          1           0       -3.456637   -0.657016   -4.023350
    135          1           0       -4.579205   -1.573161   -5.007991
    136          1           0       -7.352221    6.053529   -1.674299
    137          1           0       -7.553794    5.211958   -3.206403
    138          1           0       -6.164047    4.869842   -2.211104
    139          1           0       -9.405359    7.483400   -1.189951
    140          1           0      -11.028293    7.271011   -2.090689
    141          1           0       -9.494704    6.586446   -2.652899
    142          1           0      -13.483141    1.636996    1.489690
    143          1           0      -12.422281   -0.178963    3.596833
    144          1           0      -11.758526    3.233173    3.125040
    145          1           0      -12.399706    2.009059    4.173838
    146          1           0      -13.534275    3.000226    3.177527
    147          1           0      -14.742480   -0.271903    2.351070
    148          1           0      -13.917666   -1.611353    2.922056
    149          1           0      -13.346230   -0.767628    0.097753
    150          1           0      -14.895642   -1.410530    0.264247
    151          1           0      -13.621160   -2.417699    0.866205
    152          1           0       -9.844283   -4.443980    3.813539
    153          1           0       -9.015672   -5.509957    2.871709
    154          1           0      -10.747065   -5.141982    2.411955
    155          1           0       -5.961720   -4.325720   -1.038224
    156          1           0       -1.978922   -3.875862   -0.936208
    157          1           0       -1.986046   -5.614260   -0.375235
    158          1           0       -2.055756   -4.258157    0.877482
 ---------------------------------------------------------------------

 SCF Done:  E(RPBE1PBE) =  -4067.31241269     A.U. after   16 cycles

 Excitation energies and oscillator strengths:

 Excited State   1:      Singlet-A      1.5573 eV  796.13 nm  f=0.0000  <S**2>=0.000
     312 -> 313        0.70708
 This state for optimization and/or second-order correction.
 Total Energy, E(TD-HF/TD-DFT) =  -4067.25518158
 Copying the excited state density for this state as the 1-particle RhoCI density.

 Excited State   2:      Singlet-A      1.7941 eV  691.06 nm  f=0.3234  <S**2>=0.000
     309 -> 315       -0.16521
     311 -> 313        0.69443
     311 <- 313       -0.11730

 Excited State   3:      Singlet-A      1.8611 eV  666.19 nm  f=0.3943  <S**2>=0.000
     310 -> 316       -0.17887
     312 -> 314        0.68979
     312 <- 314       -0.10745

 Excited State   4:      Singlet-A      2.0832 eV  595.16 nm  f=0.0000  <S**2>=0.000
     311 -> 314        0.70710

 Excited State   5:      Singlet-A      2.1171 eV  585.65 nm  f=0.0000  <S**2>=0.000
     310 -> 313        0.70707

 The electronic state is 1-A.
 Alpha  occ. eigenvalues --  -46.93420 -46.93313 -19.26856 -19.25316 -19.20603
 Alpha  occ. eigenvalues --  -19.20140 -19.19628 -19.18824 -19.18597 -19.17670
 Alpha  occ. eigenvalues --  -14.42176 -14.41668 -14.41587 -14.41172 -14.39897
 Alpha  occ. eigenvalues --  -14.39292 -14.39058 -14.38435 -10.37534 -10.36018
 Alpha  occ. eigenvalues --  -10.32709 -10.31888 -10.31337 -10.30964 -10.30021
 Alpha  occ. eigenvalues --  -10.29743 -10.29256 -10.29198 -10.28979 -10.28836
 Alpha  occ. eigenvalues --  -10.28788 -10.28718 -10.28475 -10.28348 -10.28331
 Alpha  occ. eigenvalues --  -10.28299 -10.28251 -10.28123 -10.26976 -10.26950
 Alpha  occ. eigenvalues --  -10.26937 -10.26799 -10.26710 -10.26365 -10.26307
 Alpha  occ. eigenvalues --  -10.26281 -10.26189 -10.26147 -10.26057 -10.25982
 Alpha  occ. eigenvalues --  -10.25976 -10.25933 -10.25845 -10.25711 -10.25622
 Alpha  occ. eigenvalues --  -10.25516 -10.25393 -10.25333 -10.25330 -10.25219
 Alpha  occ. eigenvalues --  -10.25202 -10.25174 -10.25070 -10.25017 -10.24813
 Alpha  occ. eigenvalues --  -10.24486 -10.24400 -10.24336 -10.24265 -10.24255
 Alpha  occ. eigenvalues --  -10.24096 -10.23903 -10.23893 -10.23853 -10.23759
 Alpha  occ. eigenvalues --  -10.23729 -10.23718 -10.23688 -10.23636 -10.23050
 Alpha  occ. eigenvalues --  -10.22788 -10.22777 -10.22661 -10.22599 -10.22508
 Alpha  occ. eigenvalues --  -10.22314  -3.15472  -3.15207  -1.88268  -1.88017
 Alpha  occ. eigenvalues --   -1.87882  -1.87669  -1.87588  -1.87419  -1.10950
 Alpha  occ. eigenvalues --   -1.10417  -1.07523  -1.06434  -1.03993  -1.03909
 Alpha  occ. eigenvalues --   -1.03273  -1.02079  -0.99813  -0.99006  -0.98739
 Alpha  occ. eigenvalues --   -0.97709  -0.97706  -0.97051  -0.96991  -0.96402
 Alpha  occ. eigenvalues --   -0.88020  -0.85895  -0.84140  -0.83437  -0.83117
 Alpha  occ. eigenvalues --   -0.83083  -0.82824  -0.82474  -0.82251  -0.81655
 Alpha  occ. eigenvalues --   -0.81616  -0.81348  -0.80434  -0.80377  -0.78962
 Alpha  occ. eigenvalues --   -0.78268  -0.78198  -0.77857  -0.77480  -0.76596
 Alpha  occ. eigenvalues --   -0.76494  -0.76134  -0.75381  -0.75056  -0.74943
 Alpha  occ. eigenvalues --   -0.74663  -0.72848  -0.72512  -0.72194  -0.71489
 Alpha  occ. eigenvalues --   -0.71367  -0.71287  -0.71026  -0.70096  -0.69951
 Alpha  occ. eigenvalues --   -0.68945  -0.68138  -0.66725  -0.66289  -0.65785
 Alpha  occ. eigenvalues --   -0.64391  -0.64003  -0.63907  -0.63562  -0.62855
 Alpha  occ. eigenvalues --   -0.62613  -0.61249  -0.61246  -0.60699  -0.60169
 Alpha  occ. eigenvalues --   -0.59403  -0.59325  -0.58958  -0.58707  -0.58546
 Alpha  occ. eigenvalues --   -0.58401  -0.58193  -0.56145  -0.54913  -0.54459
 Alpha  occ. eigenvalues --   -0.54077  -0.53999  -0.53585  -0.53299  -0.52850
 Alpha  occ. eigenvalues --   -0.52692  -0.52456  -0.52078  -0.51928  -0.51868
 Alpha  occ. eigenvalues --   -0.51212  -0.50512  -0.50439  -0.50332  -0.49958
 Alpha  occ. eigenvalues --   -0.49808  -0.49767  -0.49521  -0.49066  -0.49036
 Alpha  occ. eigenvalues --   -0.48591  -0.48549  -0.48087  -0.48040  -0.47769
 Alpha  occ. eigenvalues --   -0.47682  -0.47327  -0.47163  -0.46883  -0.46552
 Alpha  occ. eigenvalues --   -0.46483  -0.46434  -0.46280  -0.46077  -0.45731
 Alpha  occ. eigenvalues --   -0.45639  -0.45417  -0.45416  -0.45298  -0.45259
 Alpha  occ. eigenvalues --   -0.45054  -0.44773  -0.44699  -0.44550  -0.44409
 Alpha  occ. eigenvalues --   -0.44215  -0.44030  -0.43907  -0.43802  -0.43714
 Alpha  occ. eigenvalues --   -0.43547  -0.43296  -0.43136  -0.43009  -0.42851
 Alpha  occ. eigenvalues --   -0.42576  -0.42382  -0.42243  -0.42091  -0.42013
 Alpha  occ. eigenvalues --   -0.41900  -0.41825  -0.41764  -0.41757  -0.41389
 Alpha  occ. eigenvalues --   -0.41257  -0.40985  -0.40678  -0.40403  -0.40361
 Alpha  occ. eigenvalues --   -0.40227  -0.40210  -0.40198  -0.40100  -0.39872
 Alpha  occ. eigenvalues --   -0.39643  -0.39269  -0.39242  -0.39050  -0.38965
 Alpha  occ. eigenvalues --   -0.38844  -0.38758  -0.38425  -0.38400  -0.38310
 Alpha  occ. eigenvalues --   -0.38023  -0.38017  -0.37707  -0.37626  -0.37603
 Alpha  occ. eigenvalues --   -0.37496  -0.37400  -0.37196  -0.37122  -0.36959
 Alpha  occ. eigenvalues --   -0.36854  -0.36830  -0.36630  -0.36616  -0.36471
 Alpha  occ. eigenvalues --   -0.36292  -0.36247  -0.35665  -0.35528  -0.35401
 Alpha  occ. eigenvalues --   -0.35254  -0.34936  -0.34062  -0.33990  -0.33837
 Alpha  occ. eigenvalues --   -0.33751  -0.33122  -0.32959  -0.32719  -0.32413
 Alpha  occ. eigenvalues --   -0.32303  -0.31922  -0.31893  -0.31313  -0.30768
 Alpha  occ. eigenvalues --   -0.30752  -0.30674  -0.29886  -0.29429  -0.29055
 Alpha  occ. eigenvalues --   -0.28733  -0.28664  -0.28593  -0.27233  -0.26469
 Alpha  occ. eigenvalues --   -0.26403  -0.26373  -0.25510  -0.25355  -0.25319
 Alpha  occ. eigenvalues --   -0.25004  -0.24945  -0.23798  -0.21481  -0.20682
 Alpha  occ. eigenvalues --   -0.19427  -0.18610
 Alpha virt. eigenvalues --   -0.12124  -0.11009  -0.05550  -0.05014  -0.03963
 Alpha virt. eigenvalues --   -0.03700  -0.01955  -0.01870  -0.01854  -0.01576
 Alpha virt. eigenvalues --   -0.00144   0.00476   0.00525   0.01084   0.01594

 Mulliken charges:
               1
     1  Mg  12.000000
     2  C    6.000000
     3  C    6.000000
     4  C    6.000000
     5  C    6.000000
     6  N    7.000002
     7  C    5.999999
     8  C    5.999999
     9  C    6.000000
    10  C    6.000000
    11  C    6.000000
    12  C    6.000000
    13  C    5.999998
    14  H    0.999999
    15  N    7.000000
    16  C    6.000000
    17  C    6.000000
    18  C    6.000000
    19  C    6.000000
    20  C    6.000000
    21  C    6.000000
    22  O    8.000000
    23  C    6.000000
    24  N    7.000000
    25  C    6.000000
    26  C    6.000000
    27  C    6.000000
    28  C    5.999999
    29  C    6.000000
    30  C    6.000000
    31  C    6.000000
    32  N    7.000000
    33  C    6.000000
    34  C    5.999999
    35  C    6.000001
    36  C    6.000000
    37  C    6.000000
    38  C    6.000000
    39  O    7.999999
    40  C    6.000000
    41  C    6.000000
    42  O    8.000000
    43  O    8.000000
    44  C    6.000000
    45  H    1.000000
    46  H    1.000000
    47  H    1.000000
    48  H    1.000000
    49  H    1.000000
    50  H    1.000000
    51  H    1.000000
    52  H    1.000000
    53  H    1.000000
    54  H    1.000000
    55  H    1.000000
    56  H    1.000001
    57  H    1.000000
    58  H    1.000000
    59  H    1.000000
    60  H    1.000000
    61  H    1.000000
    62  H    1.000000
    63  H    1.000000
    64  H    1.000000
    65  H    1.000000
    66  H    1.000000
    67  H    1.000000
    68  H    1.000000
    69  H    1.000000
    70  H    1.000000
    71  H    1.000000
    72  H    1.000000
    73  H    1.000000
    74  H    1.000000
    75  H    1.000000
    76  H    1.000000
    77  H    1.000000
    78  H    1.000000
    79  H    1.000000
    80  Mg  12.000000
    81  C    6.000000
    82  C    6.000001
    83  C    6.000000
    84  C    6.000000
    85  N    7.000000
    86  C    6.000001
    87  C    6.000000
    88  C    5.999999
    89  C    6.000001
    90  C    6.000004
    91  C    6.000000
    92  C    6.000000
    93  H    1.000000
    94  N    7.000000
    95  C    6.000000
    96  C    6.000000
    97  C    6.000000
    98  C    6.000000
    99  C    6.000000
   100  C    6.000000
   101  O    8.000000
   102  C    6.000000
   103  N    7.000000
   104  C    6.000001
   105  C    6.000000
   106  C    6.000000
   107  C    6.000001
   108  C    6.000000
   109  C    6.000000
   110  C    6.000000
   111  N    7.000000
   112  C    6.000001
   113  C    6.000001
   114  C    6.000000
   115  C    6.000001
   116  C    6.000000
   117  C    6.000000
   118  O    8.000001
   119  C    6.000000
   120  C    6.000000
   121  O    8.000000
   122  O    8.000000
   123  C    6.000000
   124  H    1.000000
   125  H    1.000000
   126  H    1.000000
   127  H    1.000001
   128  H    1.000000
   129  H    0.999996
   130  H    1.000000
   131  H    0.999998
   132  H    1.000000
   133  H    1.000000
   134  H    1.000000
   135  H    1.000000
   136  H    1.000000
   137  H    1.000000
   138  H    1.000000
   139  H    1.000000
   140  H    1.000000
   141  H    1.000000
   142  H    1.000000
   143  H    1.000000
   144  H    1.000000
   145  H    1.000000
   146  H    1.000000
   147  H    1.000000
   148  H    1.000000
   149  H    1.000000
   150  H    1.000000
   151  H    1.000000
   152  H    1.000000
   153  H    1.000000
   154  H    1.000000
   155  H    1.000000
   156  H    1.000000
   157  H    1.000000
   158  H    1.000000
 Sum of Mulliken charges = 624.00000

 Dipole moment (field-independent basis, Debye):
    X=             -0.0004    Y=              0.0000    Z=              0.0001  Tot=              0.0004
 Quadrupole moment (field-independent basis, Debye-Ang):
   XX=              0.0018   YY=              0.0003   ZZ=             -0.0003
   XY=              0.0018   XZ=             -0.0001   YZ=             -0.0001

 Normal termination of Gaussian 16 at Thu Oct 14 04:55:37 2021.
