 Gaussian 16, Revision A.03,
 Gaussian 16:  ES64L-G16RevA.03 25-Dec-2016

 --------------------------------------------------------
 #p PBE1PBE/Def2SVP td=(nstates=5) density=(transition=1)
 --------------------------------------------------------

 --------------------------------
 TDDFT excited states in gaussian
 --------------------------------
 Symbolic Z-matrix:
 Charge =  0 Multiplicity = 1

                         Standard orientation:
 ---------------------------------------------------------------------
 Center     Atomic      Atomic             Coordinates (Angstroms)
 Number     Number       Type             X           Y           Z
 ---------------------------------------------------------------------
      1         12           0      -16.753482    0.695502    0.075670
      2          6           0      -16.073169   -2.458650   -1.234303
      3          6           0      -14.156316    1.994725   -1.768672
      4          6           0      -17.364344    3.623421    1.642989
      5          6           0      -19.154107   -0.840229    2.231647
      6          7           0      -15.251507   -0.182324   -1.230082
      7          6           0      -15.165144   -1.471513   -1.656650
      8          6           0      -14.075611   -1.636574   -2.724056
      9          6           0      -13.412447   -0.188632   -2.727553
     10          6           0      -14.373872    0.604093   -1.835851
     11          6           0      -11.999574   -0.203804   -2.156653
     12          6           0      -14.581169   -1.923043   -4.182820
     13          6           0      -13.662103   -2.692980   -5.095199
     14          1           0      -12.251086   -2.845223   -4.739414
     15          7           0      -15.950077    2.533205   -0.115912
     16          6           0      -14.857975    2.864914   -0.942508
     17          6           0      -14.736009    4.298280   -0.891251
     18          6           0      -15.671077    4.821650    0.037197
     19          6           0      -16.388667    3.641561    0.579180
     20          6           0      -13.605213    5.057176   -1.552137
     21          6           0      -15.981826    6.205706    0.427463
     22          8           0      -16.673375    6.489138    1.382340
     23          6           0      -15.282980    7.412649   -0.297391
     24          7           0      -18.212818    1.396713    1.626595
     25          6           0      -18.218408    2.613495    2.082794
     26          6           0      -19.262989    2.788784    3.225888
     27          6           0      -19.892068    1.415905    3.378960
     28          6           0      -19.028984    0.538801    2.402129
     29          6           0      -18.573016    3.430231    4.520376
     30          6           0      -21.408888    1.408789    3.094192
     31          6           0      -22.374320    1.524391    4.332526
     32          7           0      -17.656495   -1.105675    0.280966
     33          6           0      -18.616416   -1.601262    1.197990
     34          6           0      -18.896609   -2.965703    0.959025
     35          6           0      -17.825704   -3.344728    0.042684
     36          6           0      -17.159037   -2.142294   -0.329000
     37          6           0      -19.795525   -3.852630    1.801009
     38          6           0      -17.279636   -4.496968   -0.574041
     39          8           0      -17.608666   -5.676342   -0.551995
     40          6           0      -16.081373   -3.898788   -1.567674
     41          6           0      -14.853055   -4.685458   -1.215603
     42          8           0      -14.349018   -4.728399   -0.088416
     43          8           0      -14.393238   -5.498766   -2.293545
     44          6           0      -13.176181   -6.323024   -2.013128
     45          1           0      -13.317774    2.337358   -2.379694
     46          1           0      -17.368855    4.547950    2.223470
     47          1           0      -19.912008   -1.350630    2.828994
     48          1           0      -13.393000   -2.397159   -2.344386
     49          1           0      -13.328801    0.237654   -3.727160
     50          1           0      -11.608516   -1.219178   -2.097840
     51          1           0      -11.922727    0.324961   -1.206209
     52          1           0      -11.249915    0.218373   -2.825929
     53          1           0      -14.831222   -0.964190   -4.635546
     54          1           0      -15.553871   -2.405079   -4.082466
     55          1           0      -13.618328   -2.143177   -6.035101
     56          1           0      -14.064110   -3.695721   -5.240341
     57          1           0      -12.922385    5.517740   -0.838265
     58          1           0      -14.043876    5.796134   -2.223978
     59          1           0      -12.926024    4.466918   -2.167068
     60          1           0      -14.302982    7.510690    0.170332
     61          1           0      -15.783503    8.345828   -0.038659
     62          1           0      -15.146105    7.203738   -1.357693
     63          1           0      -19.955649    3.520881    2.810309
     64          1           0      -19.664653    0.972178    4.347010
     65          1           0      -18.718162    2.789053    5.389706
     66          1           0      -19.030497    4.367112    4.838897
     67          1           0      -17.514715    3.487509    4.262463
     68          1           0      -21.614170    0.463611    2.590365
     69          1           0      -21.593851    2.210763    2.379385
     70          1           0      -22.524358    0.519046    4.727642
     71          1           0      -23.327798    2.039166    4.212730
     72          1           0      -21.719720    2.027923    5.043100
     73          1           0      -20.785317   -3.665426    1.385457
     74          1           0      -19.780765   -3.554544    2.848687
     75          1           0      -19.476660   -4.888212    1.926108
     76          1           0      -16.393963   -4.020944   -2.605460
     77          1           0      -13.359780   -7.055621   -1.228018
     78          1           0      -12.253022   -5.810036   -1.742149
     79          1           0      -13.104535   -6.846216   -2.966666
     80         12           0       17.024323    0.374834   -0.223942
     81          6           0       15.475854   -2.541140    0.857017
     82          6           0       14.116471    0.894773   -2.245231
     83          6           0       18.126222    3.382514   -0.962161
     84          6           0       19.385332   -0.013029    2.351503
     85          7           0       14.994382   -0.649132   -0.534004
     86          6           0       14.673583   -1.887794   -0.025495
     87          6           0       13.278101   -2.305488   -0.497123
     88          6           0       13.036019   -1.322526   -1.675855
     89          6           0       14.079458   -0.255930   -1.471125
     90          6           0       13.114101   -1.880299   -3.151174
     91          6           0       12.213884   -2.209907    0.608462
     92          6           0       10.882056   -2.759376    0.265724
     93          1           0        9.945041   -3.171844    1.464460
     94          7           0       16.232325    1.964777   -1.439632
     95          6           0       15.052149    1.970006   -2.199408
     96          6           0       14.967841    3.231411   -2.881209
     97          6           0       16.070242    4.035468   -2.409702
     98          6           0       16.896393    3.103045   -1.567419
     99          6           0       13.771067    3.621252   -3.792061
    100          6           0       16.275085    5.491946   -2.838309
    101          8           0       15.601734    6.006883   -3.715491
    102          6           0       17.327399    6.294614   -2.173591
    103          7           0       18.681565    1.410467    0.446037
    104          6           0       18.934980    2.623728   -0.056211
    105          6           0       20.140367    3.284682    0.727330
    106          6           0       20.547527    2.250231    1.845960
    107          6           0       19.410363    1.121300    1.573356
    108          6           0       21.330876    3.822554   -0.109351
    109          6           0       20.397957    2.888138    3.243709
    110          6           0       21.350814    2.344356    4.315184
    111          7           0       17.429331   -0.973740    1.333895
    112          6           0       18.473457   -1.080455    2.209418
    113          6           0       18.365339   -2.368145    2.905578
    114          6           0       17.281099   -2.985188    2.341611
    115          6           0       16.698284   -2.108853    1.454475
    116          6           0       19.362686   -2.929801    3.924005
    117          6           0       16.470399   -4.164403    2.395016
    118          8           0       16.568263   -5.185753    3.029561
    119          6           0       15.269129   -3.930162    1.419248
    120          6           0       15.377087   -4.934866    0.325922
    121          8           0       16.348146   -5.192374   -0.329962
    122          8           0       14.097063   -5.457537    0.072382
    123          6           0       14.011592   -6.389056   -1.016154
    124          1           0       13.239645    0.915933   -2.895044
    125          1           0       18.622394    4.342234   -1.123789
    126          1           0       20.144829   -0.199734    3.113744
    127          1           0       13.393593   -3.305105   -0.913890
    128          1           0       12.100087   -0.765682   -1.646962
    129          1           0       12.184760   -1.541163   -3.608297
    130          1           0       13.498731   -2.890415   -3.294516
    131          1           0       13.882071   -1.295771   -3.657566
    132          1           0       11.932678   -1.199240    0.905636
    133          1           0       12.578830   -2.692913    1.514961
    134          1           0       11.057779   -3.624516   -0.373615
    135          1           0       10.357103   -2.041218   -0.363935
    136          1           0       13.288724    4.303538   -3.091383
    137          1           0       13.022004    2.846107   -3.955052
    138          1           0       13.886008    4.091879   -4.768657
    139          1           0       17.157729    6.138229   -1.108301
    140          1           0       17.141929    7.347495   -2.386674
    141          1           0       18.252698    5.859409   -2.551908
    142          1           0       19.724018    4.176469    1.196657
    143          1           0       21.534715    1.804362    1.728689
    144          1           0       21.277112    4.911692   -0.108600
    145          1           0       21.301875    3.355044   -1.093015
    146          1           0       22.268003    3.605258    0.403128
    147          1           0       19.359465    2.708345    3.520591
    148          1           0       20.458112    3.976661    3.244729
    149          1           0       21.873777    3.240464    4.651010
    150          1           0       22.009084    1.545197    3.974182
    151          1           0       20.785582    1.974093    5.170560
    152          1           0       18.937411   -3.390837    4.814843
    153          1           0       19.962683   -2.049308    4.155083
    154          1           0       20.062178   -3.539165    3.351522
    155          1           0       14.364415   -4.079089    2.008790
    156          1           0       13.833944   -7.367140   -0.568965
    157          1           0       14.841983   -6.470992   -1.717876
    158          1           0       13.161019   -6.091736   -1.628930
 ---------------------------------------------------------------------

 SCF Done:  E(RPBE1PBE) =  -4067.40903354     A.U. after   16 cycles

 Excitation energies and oscillator strengths:

 Excited State   1:      Singlet-A      1.8458 eV  671.69 nm  f=0.3516  <S**2>=0.000
     310 -> 316        0.17462
     312 -> 313        0.69223
     312 <- 313       -0.10445
 This state for optimization and/or second-order correction.
 Total Energy, E(TD-HF/TD-DFT) =  -4067.34119985
 Copying the excited state density for this state as the 1-particle RhoCI density.

 Excited State   2:      Singlet-A      1.9035 eV  651.35 nm  f=0.3877  <S**2>=0.000
     309 -> 315       -0.17015
     311 -> 314        0.69339
     311 <- 314       -0.10648

 Excited State   3:      Singlet-A      1.9647 eV  631.06 nm  f=0.0000  <S**2>=0.000
     312 -> 314        0.70710

 Excited State   4:      Singlet-A      2.0022 eV  619.24 nm  f=0.0000  <S**2>=0.000
     311 -> 313        0.70710

 Excited State   5:      Singlet-A      2.2119 eV  560.54 nm  f=0.1394  <S**2>=0.000
     310 -> 313        0.66067
     312 -> 316       -0.23960

 The electronic state is 1-A.
 Alpha  occ. eigenvalues --  -46.93070 -46.91411 -19.25697 -19.24919 -19.20771
 Alpha  occ. eigenvalues --  -19.19781 -19.19183 -19.18981 -19.18887 -19.18745
 Alpha  occ. eigenvalues --  -14.42252 -14.42149 -14.41821 -14.41214 -14.39763
 Alpha  occ. eigenvalues --  -14.39743 -14.39222 -14.38927 -10.36601 -10.36202
 Alpha  occ. eigenvalues --  -10.32301 -10.31840 -10.31820 -10.31514 -10.29922
 Alpha  occ. eigenvalues --  -10.29097 -10.29095 -10.29015 -10.28959 -10.28814
 Alpha  occ. eigenvalues --  -10.28784 -10.28640 -10.28566 -10.28521 -10.28499
 Alpha  occ. eigenvalues --  -10.28482 -10.28400 -10.28330 -10.27329 -10.27121
 Alpha  occ. eigenvalues --  -10.26932 -10.26902 -10.26865 -10.26360 -10.26179
 Alpha  occ. eigenvalues --  -10.26121 -10.26105 -10.26019 -10.26009 -10.25983
 Alpha  occ. eigenvalues --  -10.25941 -10.25863 -10.25798 -10.25782 -10.25641
 Alpha  occ. eigenvalues --  -10.25504 -10.25499 -10.25497 -10.25453 -10.25418
 Alpha  occ. eigenvalues --  -10.25288 -10.25272 -10.25264 -10.25212 -10.25149
 Alpha  occ. eigenvalues --  -10.24899 -10.24709 -10.24617 -10.24512 -10.24270
 Alpha  occ. eigenvalues --  -10.24110 -10.24023 -10.23993 -10.23954 -10.23941
 Alpha  occ. eigenvalues --  -10.23780 -10.23743 -10.23603 -10.23475 -10.23391
 Alpha  occ. eigenvalues --  -10.23314 -10.23282 -10.23247 -10.23145 -10.22781
 Alpha  occ. eigenvalues --  -10.21961  -3.15075  -3.13683  -1.87921  -1.87453
 Alpha  occ. eigenvalues --   -1.87283  -1.86538  -1.86050  -1.85928  -1.11449
 Alpha  occ. eigenvalues --   -1.08279  -1.05574  -1.05307  -1.04702  -1.03753
 Alpha  occ. eigenvalues --   -1.03748  -1.00755  -0.99811  -0.99323  -0.98750
 Alpha  occ. eigenvalues --   -0.98469  -0.98325  -0.98174  -0.97486  -0.96859
 Alpha  occ. eigenvalues --   -0.87788  -0.86629  -0.83690  -0.83583  -0.83511
 Alpha  occ. eigenvalues --   -0.83250  -0.83140  -0.82663  -0.82481  -0.82040
 Alpha  occ. eigenvalues --   -0.81757  -0.80904  -0.80755  -0.80226  -0.79451
 Alpha  occ. eigenvalues --   -0.78564  -0.78382  -0.77392  -0.77367  -0.76800
 Alpha  occ. eigenvalues --   -0.76484  -0.75737  -0.75713  -0.75262  -0.74610
 Alpha  occ. eigenvalues --   -0.74311  -0.72857  -0.72127  -0.71737  -0.71670
 Alpha  occ. eigenvalues --   -0.71306  -0.71202  -0.70575  -0.70223  -0.69867
 Alpha  occ. eigenvalues --   -0.69425  -0.67816  -0.67664  -0.66519  -0.66067
 Alpha  occ. eigenvalues --   -0.63845  -0.63810  -0.63452  -0.63386  -0.62605
 Alpha  occ. eigenvalues --   -0.62340  -0.61678  -0.61090  -0.60529  -0.60204
 Alpha  occ. eigenvalues --   -0.60150  -0.59742  -0.59493  -0.59459  -0.59253
 Alpha  occ. eigenvalues --   -0.59151  -0.57342  -0.56083  -0.54808  -0.54740
 Alpha  occ. eigenvalues --   -0.54581  -0.54283  -0.53954  -0.53902  -0.53368
 Alpha  occ. eigenvalues --   -0.53251  -0.53145  -0.52434  -0.52275  -0.51893
 Alpha  occ. eigenvalues --   -0.51139  -0.50835  -0.50443  -0.49971  -0.49553
 Alpha  occ. eigenvalues --   -0.49515  -0.49229  -0.48998  -0.48636  -0.48634
 Alpha  occ. eigenvalues --   -0.48185  -0.47866  -0.47859  -0.47737  -0.47562
 Alpha  occ. eigenvalues --   -0.47389  -0.47364  -0.47065  -0.46851  -0.46764
 Alpha  occ. eigenvalues --   -0.46678  -0.46596  -0.46344  -0.46231  -0.46167
 Alpha  occ. eigenvalues --   -0.45777  -0.45496  -0.45358  -0.45300  -0.45010
 Alpha  occ. eigenvalues --   -0.44908  -0.44681  -0.44553  -0.44458  -0.44205
 Alpha  occ. eigenvalues --   -0.43997  -0.43893  -0.43853  -0.43792  -0.43648
 Alpha  occ. eigenvalues --   -0.43392  -0.43179  -0.43045  -0.42909  -0.42875
 Alpha  occ. eigenvalues --   -0.42805  -0.42385  -0.42277  -0.42257  -0.42062
 Alpha  occ. eigenvalues --   -0.41951  -0.41913  -0.41797  -0.41796  -0.41675
 Alpha  occ. eigenvalues --   -0.41580  -0.41164  -0.41138  -0.40906  -0.40601
 Alpha  occ. eigenvalues --   -0.40508  -0.40159  -0.40001  -0.39898  -0.39867
 Alpha  occ. eigenvalues --   -0.39520  -0.39403  -0.39296  -0.39074  -0.38912
 Alpha  occ. eigenvalues --   -0.38841  -0.38741  -0.38684  -0.38427  -0.38289
 Alpha  occ. eigenvalues --   -0.38226  -0.38057  -0.37952  -0.37830  -0.37789
 Alpha  occ. eigenvalues --   -0.37669  -0.37579  -0.37290  -0.37198  -0.37046
 Alpha  occ. eigenvalues --   -0.36866  -0.36864  -0.36755  -0.36718  -0.36507
 Alpha  occ. eigenvalues --   -0.36430  -0.36215  -0.35735  -0.35501  -0.35260
 Alpha  occ. eigenvalues --   -0.35109  -0.34779  -0.34740  -0.34691  -0.34440
 Alpha  occ. eigenvalues --   -0.33769  -0.33619  -0.33080  -0.32823  -0.32719
 Alpha  occ. eigenvalues --   -0.32308  -0.32065  -0.31994  -0.31544  -0.31261
 Alpha  occ. eigenvalues --   -0.31172  -0.30801  -0.30181  -0.29732  -0.29602
 Alpha  occ. eigenvalues --   -0.29287  -0.29205  -0.28595  -0.27430  -0.27018
 Alpha  occ. eigenvalues --   -0.26060  -0.26053  -0.25840  -0.25728  -0.25633
 Alpha  occ. eigenvalues --   -0.25515  -0.25160  -0.25104  -0.21591  -0.21127
 Alpha  occ. eigenvalues --   -0.19308  -0.19159
 Alpha virt. eigenvalues --   -0.11555  -0.11545  -0.05513  -0.05254  -0.03998
 Alpha virt. eigenvalues --   -0.03353  -0.02056  -0.01757  -0.00769  -0.00018
 Alpha virt. eigenvalues --    0.00254   0.00639   0.01120   0.01302   0.01789

 Mulliken charges:
               1
     1  Mg  11.999318
     2  C    6.027672
     3  C    5.998845
     4  C    5.979798
     5  C    5.998557
     6  N    7.015893
     7  C    5.964968
     8  C    6.011725
     9  C    5.987917
    10  C    6.025925
    11  C    5.995952
    12  C    6.002170
    13  C    6.000321
    14  H    0.995825
    15  N    6.991136
    16  C    6.034180
    17  C    6.020413
    18  C    6.017375
    19  C    6.027590
    20  C    5.995680
    21  C    6.009473
    22  O    8.030434
    23  C    5.998056
    24  N    6.992619
    25  C    6.027194
    26  C    5.998355
    27  C    6.003827
    28  C    5.976659
    29  C    5.997528
    30  C    6.003894
    31  C    5.998777
    32  N    7.000184
    33  C    5.968666
    34  C    5.974210
    35  C    5.993798
    36  C    5.971554
    37  C    6.000116
    38  C    5.986046
    39  O    7.969139
    40  C    5.992122
    41  C    5.995713
    42  O    7.996586
    43  O    7.997785
    44  C    6.001478
    45  H    1.013598
    46  H    1.002110
    47  H    0.987970
    48  H    1.002476
    49  H    1.002773
    50  H    1.014423
    51  H    0.997968
    52  H    1.003305
    53  H    0.990496
    54  H    1.007313
    55  H    0.996788
    56  H    1.004140
    57  H    1.017833
    58  H    1.016380
    59  H    1.015847
    60  H    1.008219
    61  H    1.013694
    62  H    1.004631
    63  H    0.996235
    64  H    1.000212
    65  H    1.007461
    66  H    0.999128
    67  H    0.994219
    68  H    1.005578
    69  H    0.990114
    70  H    1.001820
    71  H    0.995248
    72  H    0.994277
    73  H    0.985284
    74  H    0.983780
    75  H    0.987222
    76  H    0.994241
    77  H    0.999617
    78  H    0.993927
    79  H    0.996202
    80  Mg  12.000041
    81  C    5.999645
    82  C    6.000141
    83  C    6.000418
    84  C    5.999765
    85  N    6.999913
    86  C    6.000484
    87  C    5.999891
    88  C    6.000104
    89  C    5.999567
    90  C    6.000047
    91  C    5.999993
    92  C    5.999992
    93  H    1.000014
    94  N    7.000132
    95  C    5.999336
    96  C    5.999768
    97  C    5.999765
    98  C    5.999434
    99  C    6.000079
   100  C    5.999783
   101  O    7.999597
   102  C    6.000043
   103  N    6.999996
   104  C    5.999441
   105  C    6.000133
   106  C    5.999889
   107  C    6.000482
   108  C    6.000017
   109  C    5.999939
   110  C    5.999970
   111  N    6.999994
   112  C    6.000578
   113  C    6.000447
   114  C    6.000025
   115  C    6.000503
   116  C    5.999992
   117  C    6.000275
   118  O    8.000497
   119  C    6.000048
   120  C    6.000071
   121  O    8.000085
   122  O    8.000036
   123  C    5.999923
   124  H    0.999722
   125  H    0.999873
   126  H    1.000201
   127  H    1.000041
   128  H    0.999890
   129  H    0.999867
   130  H    0.999866
   131  H    1.000065
   132  H    1.000022
   133  H    0.999930
   134  H    1.000076
   135  H    0.999984
   136  H    0.999651
   137  H    0.999688
   138  H    0.999709
   139  H    0.999853
   140  H    0.999751
   141  H    0.999930
   142  H    0.999980
   143  H    1.000083
   144  H    1.000001
   145  H    1.000039
   146  H    0.999919
   147  H    0.999978
   148  H    1.000138
   149  H    1.000097
   150  H    1.000019
   151  H    0.999982
   152  H    1.000306
   153  H    1.000249
   154  H    1.000350
   155  H    1.000143
   156  H    1.000133
   157  H    1.000086
   158  H    1.000085
 Sum of Mulliken charges = 624.00000

 Dipole moment (field-independent basis, Debye):
    X=              4.5137    Y=              8.7867    Z=             -1.6944  Tot=             10.0225
 Quadrupole moment (field-independent basis, Debye-Ang):
   XX=           -148.3668   YY=             12.4025   ZZ=             -1.5649
   XY=           -146.6156   XZ=             33.5094   YZ=             -1.3074

 Normal termination of Gaussian 16 at Fri Oct 15 11:46:21 2021.
