 Gaussian 16, Revision A.03,
 Gaussian 16:  ES64L-G16RevA.03 25-Dec-2016

 --------------------------------------------------------
 #p PBE1PBE/Def2SVP td=(nstates=5) density=(transition=1)
 --------------------------------------------------------

 --------------------------------
 TDDFT excited states in gaussian
 --------------------------------
 Symbolic Z-matrix:
 Charge =  0 Multiplicity = 1

                         Standard orientation:
 ---------------------------------------------------------------------
 Center     Atomic      Atomic             Coordinates (Angstroms)
 Number     Number       Type             X           Y           Z
 ---------------------------------------------------------------------
      1         12           0       29.222407    0.662074   -0.444259
      2          6           0       28.742115   -2.691214    0.173048
      3          6           0       26.175913    1.286760    0.967454
      4          6           0       30.263357    3.752403    0.083946
      5          6           0       32.345193   -0.157680   -1.824003
      6          7           0       27.887819   -0.581375    0.873986
      7          6           0       27.766420   -1.929774    0.768654
      8          6           0       26.514563   -2.451647    1.409684
      9          6           0       25.589243   -1.202883    1.244094
     10          6           0       26.591213   -0.100257    0.935280
     11          6           0       24.474439   -1.407148    0.178497
     12          6           0       26.733468   -2.821935    2.961750
     13          6           0       25.900666   -4.080036    3.491010
     14          1           0       25.000433   -3.605593    4.604798
     15          7           0       28.252241    2.333787    0.232055
     16          6           0       27.055666    2.428607    0.852356
     17          6           0       26.792549    3.803959    1.256542
     18          6           0       27.963068    4.537563    0.973808
     19          6           0       28.895917    3.524319    0.405472
     20          6           0       25.455790    4.199795    1.929342
     21          6           0       28.167775    5.955365    1.429681
     22          8           0       27.273544    6.532571    1.991311
     23          6           0       29.483195    6.742947    1.278088
     24          7           0       31.021115    1.746009   -0.928514
     25          6           0       31.186377    2.949091   -0.598218
     26          6           0       32.561505    3.447645   -0.848762
     27          6           0       33.267252    2.189064   -1.490514
     28          6           0       32.186075    1.200075   -1.421936
     29          6           0       32.555527    4.766288   -1.693725
     30          6           0       34.562862    1.741928   -0.667631
     31          6           0       35.604554    0.823381   -1.400073
     32          7           0       30.325580   -1.032425   -0.857857
     33          6           0       31.529352   -1.206800   -1.516215
     34          6           0       31.784505   -2.602428   -1.742222
     35          6           0       30.658297   -3.248594   -1.122175
     36          6           0       29.885945   -2.270351   -0.526257
     37          6           0       32.944923   -3.219469   -2.454291
     38          6           0       30.059250   -4.517158   -0.888617
     39          8           0       30.356191   -5.688566   -1.156351
     40          6           0       28.900786   -4.227946    0.122491
     41          6           0       27.717956   -5.005023   -0.351055
     42          8           0       27.411099   -6.138207    0.045105
     43          8           0       27.062571   -4.302605   -1.324394
     44          6           0       25.914922   -5.114644   -1.817711
     45          1           0       25.170861    1.588818    1.270507
     46          1           0       30.597864    4.763039    0.324903
     47          1           0       33.365222   -0.405872   -2.127177
     48          1           0       26.200031   -3.259018    0.749588
     49          1           0       25.052447   -1.032983    2.177559
     50          1           0       23.500457   -1.370819    0.665638
     51          1           0       24.581185   -2.422458   -0.204810
     52          1           0       24.632752   -0.667786   -0.605979
     53          1           0       26.620469   -2.004163    3.673334
     54          1           0       27.777201   -3.074811    3.145441
     55          1           0       26.656616   -4.730054    3.931851
     56          1           0       25.367969   -4.714064    2.782156
     57          1           0       25.553416    4.638124    2.922469
     58          1           0       24.726624    3.390411    1.979822
     59          1           0       24.970275    4.912942    1.263995
     60          1           0       29.761021    6.921161    0.239779
     61          1           0       30.325194    6.296243    1.807451
     62          1           0       29.326927    7.647973    1.865912
     63          1           0       32.950142    3.617961    0.155169
     64          1           0       33.520268    2.220009   -2.550019
     65          1           0       33.057042    5.525935   -1.094526
     66          1           0       31.544179    5.077241   -1.956228
     67          1           0       33.229649    4.750407   -2.549977
     68          1           0       34.265413    1.215192    0.239353
     69          1           0       35.043194    2.671851   -0.366825
     70          1           0       36.635996    1.144430   -1.542917
     71          1           0       35.288807    0.629969   -2.424342
     72          1           0       35.674218   -0.141189   -0.897202
     73          1           0       33.608947   -2.539767   -2.987951
     74          1           0       32.402489   -3.892493   -3.117075
     75          1           0       33.377025   -3.797167   -1.637089
     76          1           0       29.133755   -4.483119    1.156829
     77          1           0       26.292524   -5.969076   -2.378469
     78          1           0       25.340920   -4.606146   -2.592373
     79          1           0       25.299189   -5.371243   -0.955409
     80         12           0      -29.795023   -0.067457   -0.428289
     81          6           0      -26.649877    0.215097    1.047437
     82          6           0      -30.014689   -3.297908    0.755144
     83          6           0      -32.774251   -0.078788   -1.803925
     84          6           0      -29.884111    3.568426   -0.662712
     85          7           0      -28.360765   -1.418191    0.761268
     86          6           0      -27.143478   -1.087485    1.287074
     87          6           0      -26.522742   -2.255666    1.967352
     88          6           0      -27.636450   -3.375781    1.906191
     89          6           0      -28.789993   -2.688640    1.076134
     90          6           0      -27.137901   -4.759544    1.418855
     91          6           0      -26.093146   -1.951613    3.423179
     92          6           0      -24.636222   -2.350010    3.652325
     93          1           0      -24.328116   -3.287092    4.858954
     94          7           0      -31.194795   -1.515556   -0.538231
     95          6           0      -31.111195   -2.812658   -0.034186
     96          6           0      -32.330497   -3.478697   -0.473653
     97          6           0      -33.157125   -2.556644   -1.269032
     98          6           0      -32.348565   -1.297196   -1.305037
     99          6           0      -32.712062   -4.795056   -0.011650
    100          6           0      -34.522065   -2.897517   -1.703761
    101          8           0      -35.051863   -3.971770   -1.510822
    102          6           0      -35.454450   -1.930662   -2.346191
    103          7           0      -31.086138    1.481533   -1.058855
    104          6           0      -32.154976    1.166636   -1.859157
    105          6           0      -32.858765    2.429394   -2.309428
    106          6           0      -32.205527    3.508391   -1.529513
    107          6           0      -31.035199    2.848102   -0.991063
    108          6           0      -32.926494    2.638488   -3.877711
    109          6           0      -33.055930    3.984809   -0.302221
    110          6           0      -32.889508    5.374044    0.110244
    111          7           0      -28.535464    1.606456    0.047198
    112          6           0      -28.662370    2.986513   -0.158320
    113          6           0      -27.393822    3.608288    0.058605
    114          6           0      -26.585952    2.598043    0.567014
    115          6           0      -27.346600    1.374794    0.582184
    116          6           0      -27.125595    5.048761   -0.177799
    117          6           0      -25.315982    2.319083    1.109189
    118          8           0      -24.369946    3.051343    1.295845
    119          6           0      -25.279236    0.799119    1.383717
    120          6           0      -24.150207    0.205775    0.649758
    121          8           0      -24.177523   -0.182107   -0.530412
    122          8           0      -23.009471    0.289324    1.414750
    123          6           0      -21.771582   -0.318803    0.954771
    124          1           0      -29.988451   -4.330847    1.106857
    125          1           0      -33.765059    0.075143   -2.238628
    126          1           0      -29.945330    4.652781   -0.776410
    127          1           0      -25.794466   -2.627232    1.245933
    128          1           0      -28.058055   -3.624213    2.879683
    129          1           0      -26.060038   -4.681690    1.566222
    130          1           0      -27.444982   -5.065471    0.418694
    131          1           0      -27.511102   -5.540944    2.080399
    132          1           0      -26.618570   -2.541662    4.173868
    133          1           0      -26.262738   -0.885473    3.572699
    134          1           0      -24.234089   -1.378401    3.938940
    135          1           0      -24.239905   -2.687857    2.695916
    136          1           0      -31.911220   -5.173477    0.623966
    137          1           0      -32.808482   -5.562324   -0.780417
    138          1           0      -33.614263   -4.716281    0.595940
    139          1           0      -34.779400   -1.512173   -3.092721
    140          1           0      -35.741673   -1.181271   -1.608144
    141          1           0      -36.299089   -2.442266   -2.808162
    142          1           0      -33.888113    2.258663   -1.996318
    143          1           0      -31.791815    4.355099   -2.077358
    144          1           0      -32.609616    1.734163   -4.397551
    145          1           0      -32.450878    3.550024   -4.241321
    146          1           0      -33.945826    2.685759   -4.259888
    147          1           0      -32.860952    3.326559    0.544503
    148          1           0      -34.120598    3.870860   -0.505571
    149          1           0      -33.573650    5.993535   -0.470670
    150          1           0      -31.856893    5.712443    0.018669
    151          1           0      -33.316070    5.514488    1.103956
    152          1           0      -27.640014    5.403982   -1.070609
    153          1           0      -26.065878    5.299596   -0.227195
    154          1           0      -27.637391    5.541412    0.648972
    155          1           0      -24.999021    0.560272    2.409733
    156          1           0      -21.227584    0.143673    0.131128
    157          1           0      -21.944974   -1.371409    0.731959
    158          1           0      -21.093415   -0.200996    1.799126
 ---------------------------------------------------------------------

 SCF Done:  E(RPBE1PBE) =  -4067.33810663     A.U. after   17 cycles

 Excitation energies and oscillator strengths:

 Excited State   1:      Singlet-A      1.7987 eV  689.31 nm  f=0.3461  <S**2>=0.000
     310 -> 316        0.16142
     312 -> 314        0.69480
     312 <- 314       -0.10914
 This state for optimization and/or second-order correction.
 Total Energy, E(TD-HF/TD-DFT) =  -4067.27200672
 Copying the excited state density for this state as the 1-particle RhoCI density.

 Excited State   2:      Singlet-A      1.8373 eV  674.81 nm  f=0.3550  <S**2>=0.000
     309 -> 315       -0.18250
     311 -> 313        0.68986
     311 <- 313       -0.10421

 Excited State   3:      Singlet-A      1.8814 eV  659.02 nm  f=0.0000  <S**2>=0.000
     312 -> 313        0.70711

 Excited State   4:      Singlet-A      2.0894 eV  593.39 nm  f=0.0000  <S**2>=0.000
     311 -> 314        0.70711

 Excited State   5:      Singlet-A      2.1967 eV  564.42 nm  f=0.0975  <S**2>=0.000
     309 -> 313        0.64572
     311 -> 315        0.27294

 The electronic state is 1-A.
 Alpha  occ. eigenvalues --  -46.92576 -46.92317 -19.26291 -19.25514 -19.19576
 Alpha  occ. eigenvalues --  -19.19435 -19.19406 -19.18625 -19.18457 -19.17586
 Alpha  occ. eigenvalues --  -14.41829 -14.41500 -14.41458 -14.41448 -14.39917
 Alpha  occ. eigenvalues --  -14.39732 -14.38851 -14.38438 -10.36085 -10.35826
 Alpha  occ. eigenvalues --  -10.32603 -10.31476 -10.31350 -10.30801 -10.29758
 Alpha  occ. eigenvalues --  -10.29323 -10.29318 -10.29179 -10.29006 -10.29003
 Alpha  occ. eigenvalues --  -10.28882 -10.28717 -10.28704 -10.28300 -10.28244
 Alpha  occ. eigenvalues --  -10.28182 -10.28102 -10.27874 -10.27694 -10.26831
 Alpha  occ. eigenvalues --  -10.26617 -10.26509 -10.26492 -10.26397 -10.26349
 Alpha  occ. eigenvalues --  -10.26195 -10.26153 -10.26148 -10.26139 -10.26136
 Alpha  occ. eigenvalues --  -10.26088 -10.26023 -10.25917 -10.25746 -10.25678
 Alpha  occ. eigenvalues --  -10.25651 -10.25447 -10.25410 -10.25346 -10.25329
 Alpha  occ. eigenvalues --  -10.25215 -10.25134 -10.25130 -10.25074 -10.25046
 Alpha  occ. eigenvalues --  -10.24926 -10.24783 -10.24758 -10.24616 -10.24612
 Alpha  occ. eigenvalues --  -10.24416 -10.24340 -10.24286 -10.24099 -10.23939
 Alpha  occ. eigenvalues --  -10.23908 -10.23827 -10.23756 -10.23755 -10.23692
 Alpha  occ. eigenvalues --  -10.23611 -10.22984 -10.22546 -10.22510 -10.22471
 Alpha  occ. eigenvalues --  -10.22251  -3.14729  -3.14389  -1.87555  -1.87233
 Alpha  occ. eigenvalues --   -1.87117  -1.86943  -1.86772  -1.86602  -1.10809
 Alpha  occ. eigenvalues --   -1.10200  -1.06406  -1.04846  -1.04568  -1.03113
 Alpha  occ. eigenvalues --   -1.01670  -1.01492  -1.01367  -0.99590  -0.99064
 Alpha  occ. eigenvalues --   -0.98528  -0.98468  -0.97688  -0.97629  -0.96166
 Alpha  occ. eigenvalues --   -0.87064  -0.87021  -0.85109  -0.84091  -0.83852
 Alpha  occ. eigenvalues --   -0.83378  -0.82928  -0.82519  -0.82051  -0.81633
 Alpha  occ. eigenvalues --   -0.81603  -0.81193  -0.80792  -0.80551  -0.79526
 Alpha  occ. eigenvalues --   -0.78864  -0.78507  -0.78191  -0.77738  -0.76799
 Alpha  occ. eigenvalues --   -0.76531  -0.75864  -0.75733  -0.75167  -0.75155
 Alpha  occ. eigenvalues --   -0.74696  -0.73013  -0.72818  -0.72284  -0.71954
 Alpha  occ. eigenvalues --   -0.71411  -0.71096  -0.70621  -0.70347  -0.69780
 Alpha  occ. eigenvalues --   -0.69739  -0.67868  -0.67210  -0.66618  -0.66488
 Alpha  occ. eigenvalues --   -0.64894  -0.63800  -0.63638  -0.63474  -0.62580
 Alpha  occ. eigenvalues --   -0.62347  -0.62030  -0.61864  -0.61340  -0.60932
 Alpha  occ. eigenvalues --   -0.60412  -0.59809  -0.59787  -0.59431  -0.59274
 Alpha  occ. eigenvalues --   -0.59048  -0.57067  -0.56614  -0.55297  -0.54926
 Alpha  occ. eigenvalues --   -0.54214  -0.54075  -0.54009  -0.53730  -0.53635
 Alpha  occ. eigenvalues --   -0.53383  -0.52575  -0.52538  -0.51851  -0.51434
 Alpha  occ. eigenvalues --   -0.51280  -0.50989  -0.50773  -0.50389  -0.50294
 Alpha  occ. eigenvalues --   -0.50039  -0.49736  -0.49534  -0.49020  -0.48822
 Alpha  occ. eigenvalues --   -0.48821  -0.48271  -0.47903  -0.47539  -0.47462
 Alpha  occ. eigenvalues --   -0.47147  -0.47093  -0.46795  -0.46765  -0.46484
 Alpha  occ. eigenvalues --   -0.46453  -0.46335  -0.46285  -0.46276  -0.45968
 Alpha  occ. eigenvalues --   -0.45921  -0.45815  -0.45780  -0.45365  -0.45012
 Alpha  occ. eigenvalues --   -0.44798  -0.44759  -0.44649  -0.44503  -0.44193
 Alpha  occ. eigenvalues --   -0.44131  -0.44102  -0.43875  -0.43773  -0.43638
 Alpha  occ. eigenvalues --   -0.43482  -0.43310  -0.43223  -0.43102  -0.42963
 Alpha  occ. eigenvalues --   -0.42426  -0.42365  -0.42298  -0.42015  -0.41836
 Alpha  occ. eigenvalues --   -0.41722  -0.41579  -0.41495  -0.41426  -0.41273
 Alpha  occ. eigenvalues --   -0.41040  -0.41025  -0.41019  -0.40882  -0.40656
 Alpha  occ. eigenvalues --   -0.40526  -0.40498  -0.40082  -0.40058  -0.39779
 Alpha  occ. eigenvalues --   -0.39748  -0.39474  -0.39327  -0.39242  -0.39211
 Alpha  occ. eigenvalues --   -0.39117  -0.38914  -0.38874  -0.38703  -0.38518
 Alpha  occ. eigenvalues --   -0.38317  -0.38217  -0.38091  -0.38032  -0.37888
 Alpha  occ. eigenvalues --   -0.37810  -0.37558  -0.37455  -0.37413  -0.37040
 Alpha  occ. eigenvalues --   -0.36957  -0.36900  -0.36799  -0.36609  -0.36360
 Alpha  occ. eigenvalues --   -0.36240  -0.36145  -0.36120  -0.36054  -0.35745
 Alpha  occ. eigenvalues --   -0.35584  -0.35148  -0.34972  -0.34599  -0.34082
 Alpha  occ. eigenvalues --   -0.33622  -0.33520  -0.33239  -0.32677  -0.32669
 Alpha  occ. eigenvalues --   -0.32312  -0.32019  -0.31911  -0.31804  -0.31499
 Alpha  occ. eigenvalues --   -0.31394  -0.31239  -0.30195  -0.29527  -0.29080
 Alpha  occ. eigenvalues --   -0.28920  -0.28379  -0.28223  -0.27028  -0.26840
 Alpha  occ. eigenvalues --   -0.26282  -0.26100  -0.25693  -0.25484  -0.25338
 Alpha  occ. eigenvalues --   -0.25050  -0.24743  -0.24324  -0.21259  -0.21035
 Alpha  occ. eigenvalues --   -0.19220  -0.18748
 Alpha virt. eigenvalues --   -0.11612  -0.11317  -0.05965  -0.05329  -0.03989
 Alpha virt. eigenvalues --   -0.03944  -0.02269  -0.02045  -0.00801  -0.00186
 Alpha virt. eigenvalues --   -0.00048   0.00247   0.00746   0.01197   0.01225

 Mulliken charges:
               1
     1  Mg  12.000625
     2  C    6.012677
     3  C    5.992527
     4  C    5.984576
     5  C    6.003416
     6  N    7.008552
     7  C    5.966173
     8  C    6.010229
     9  C    5.986143
    10  C    6.032113
    11  C    5.997006
    12  C    5.998925
    13  C    6.002201
    14  H    0.991136
    15  N    6.995246
    16  C    6.035644
    17  C    6.022021
    18  C    6.013561
    19  C    6.029540
    20  C    5.996170
    21  C    6.008964
    22  O    8.019193
    23  C    5.998297
    24  N    7.000473
    25  C    6.029094
    26  C    5.991817
    27  C    6.010159
    28  C    5.965630
    29  C    5.997347
    30  C    6.006337
    31  C    6.001345
    32  N    6.999652
    33  C    5.973219
    34  C    5.968376
    35  C    6.000267
    36  C    5.975391
    37  C    5.999161
    38  C    5.984114
    39  O    7.971223
    40  C    6.001289
    41  C    5.996003
    42  O    7.993251
    43  O    8.000879
    44  C    6.000837
    45  H    1.010235
    46  H    1.006291
    47  H    0.991695
    48  H    1.002874
    49  H    1.005159
    50  H    1.003428
    51  H    1.015020
    52  H    0.999577
    53  H    0.989371
    54  H    1.004989
    55  H    1.002083
    56  H    1.000465
    57  H    1.017312
    58  H    1.017233
    59  H    1.016945
    60  H    1.010611
    61  H    1.011044
    62  H    1.010777
    63  H    0.997977
    64  H    0.998340
    65  H    0.999970
    66  H    0.994118
    67  H    1.008758
    68  H    0.997184
    69  H    0.988115
    70  H    0.994246
    71  H    1.001522
    72  H    1.003519
    73  H    0.982789
    74  H    0.984958
    75  H    0.982953
    76  H    0.991734
    77  H    1.000063
    78  H    0.993710
    79  H    0.994136
    80  Mg  11.999998
    81  C    6.000038
    82  C    5.999978
    83  C    6.000016
    84  C    6.000029
    85  N    6.999962
    86  C    5.999933
    87  C    6.000049
    88  C    5.999961
    89  C    6.000065
    90  C    5.999980
    91  C    6.000010
    92  C    5.999998
    93  H    0.999960
    94  N    7.000025
    95  C    6.000214
    96  C    6.000082
    97  C    6.000037
    98  C    6.000109
    99  C    5.999947
   100  C    6.000030
   101  O    8.000167
   102  C    6.000012
   103  N    7.000036
   104  C    6.000062
   105  C    5.999961
   106  C    6.000051
   107  C    5.999856
   108  C    5.999975
   109  C    6.000030
   110  C    6.000004
   111  N    6.999999
   112  C    5.999801
   113  C    5.999902
   114  C    5.999988
   115  C    5.999889
   116  C    6.000013
   117  C    5.999909
   118  O    7.999798
   119  C    5.999977
   120  C    5.999947
   121  O    7.999992
   122  O    7.999982
   123  C    6.000018
   124  H    1.000065
   125  H    1.000069
   126  H    0.999962
   127  H    0.999970
   128  H    1.000018
   129  H    1.000045
   130  H    1.000006
   131  H    1.000021
   132  H    0.999973
   133  H    1.000028
   134  H    1.000009
   135  H    1.000001
   136  H    1.000092
   137  H    1.000126
   138  H    1.000111
   139  H    1.000017
   140  H    1.000042
   141  H    1.000070
   142  H    1.000020
   143  H    1.000002
   144  H    0.999999
   145  H    1.000057
   146  H    1.000024
   147  H    0.999977
   148  H    0.999948
   149  H    0.999977
   150  H    1.000017
   151  H    0.999980
   152  H    0.999908
   153  H    0.999904
   154  H    0.999897
   155  H    0.999942
   156  H    0.999978
   157  H    0.999984
   158  H    0.999968
 Sum of Mulliken charges = 624.00000

 Dipole moment (field-independent basis, Debye):
    X=             -5.0654    Y=              8.1984    Z=              2.9359  Tot=             10.0743
 Quadrupole moment (field-independent basis, Debye-Ang):
   XX=           -292.6401   YY=              8.6810   ZZ=             -2.1024
   XY=            238.3094   XZ=             88.3688   YZ=              1.9010

 Normal termination of Gaussian 16 at Fri Oct 15 08:15:01 2021.
