 Gaussian 16, Revision A.03,
 Gaussian 16:  ES64L-G16RevA.03 25-Dec-2016

 --------------------------------------------------------
 #p PBE1PBE/Def2SVP td=(nstates=5) density=(transition=1)
 --------------------------------------------------------

 --------------------------------
 TDDFT excited states in gaussian
 --------------------------------
 Symbolic Z-matrix:
 Charge =  0 Multiplicity = 1

                         Standard orientation:
 ---------------------------------------------------------------------
 Center     Atomic      Atomic             Coordinates (Angstroms)
 Number     Number       Type             X           Y           Z
 ---------------------------------------------------------------------
      1         12           0      -21.718266    0.122014   -0.656912
      2          6           0      -18.225290   -0.352767    0.362561
      3          6           0      -22.043367   -3.272920   -0.066642
      4          6           0      -24.860858    0.636676   -0.486314
      5          6           0      -20.944910    3.630905   -0.693952
      6          7           0      -20.222710   -1.615431    0.237166
      7          6           0      -18.883223   -1.577250    0.557441
      8          6           0      -18.446350   -2.972753    1.135785
      9          6           0      -19.578998   -3.930990    0.728236
     10          6           0      -20.677471   -2.895730    0.274951
     11          6           0      -19.311825   -4.966380   -0.442009
     12          6           0      -18.130368   -2.948051    2.670527
     13          6           0      -16.950881   -3.778935    3.127969
     14          1           0      -17.276568   -5.148945    3.801440
     15          7           0      -23.239993   -1.126803   -0.451712
     16          6           0      -23.216492   -2.489446   -0.328509
     17          6           0      -24.607660   -3.013031   -0.249114
     18          6           0      -25.424780   -1.856804   -0.347675
     19          6           0      -24.512051   -0.717051   -0.390429
     20          6           0      -25.039570   -4.470927   -0.021720
     21          6           0      -26.942021   -1.743988   -0.173366
     22          8           0      -27.570015   -2.789754   -0.031573
     23          6           0      -27.669931   -0.536999   -0.196094
     24          7           0      -22.741775    1.950655   -0.329172
     25          6           0      -24.096312    1.833007   -0.569794
     26          6           0      -24.697720    3.286134   -0.696442
     27          6           0      -23.460347    4.220695   -0.445578
     28          6           0      -22.302504    3.205278   -0.598002
     29          6           0      -25.443905    3.593029   -2.023864
     30          6           0      -23.391672    5.054398    0.897013
     31          6           0      -24.212957    6.352454    0.985324
     32          7           0      -19.984466    1.458520   -0.313964
     33          6           0      -19.827360    2.817599   -0.498887
     34          6           0      -18.444622    3.217734   -0.400198
     35          6           0      -17.767337    1.983579   -0.073812
     36          6           0      -18.716009    0.907729    0.036651
     37          6           0      -17.966365    4.631336   -0.526597
     38          6           0      -16.520599    1.457452    0.262555
     39          8           0      -15.456569    2.007467    0.512527
     40          6           0      -16.753840   -0.022108    0.684708
     41          6           0      -15.830087   -0.819991   -0.205705
     42          8           0      -15.062155   -1.688264    0.216162
     43          8           0      -16.013918   -0.622520   -1.633370
     44          6           0      -15.364409   -1.663314   -2.428612
     45          1           0      -22.158621   -4.353018    0.040926
     46          1           0      -25.898097    0.949004   -0.624272
     47          1           0      -20.855008    4.711690   -0.820853
     48          1           0      -17.609145   -3.343995    0.542989
     49          1           0      -20.006988   -4.442557    1.590333
     50          1           0      -19.213446   -5.928105    0.061043
     51          1           0      -18.360444   -4.767348   -0.934474
     52          1           0      -20.052916   -4.975739   -1.241190
     53          1           0      -18.907572   -3.379330    3.301961
     54          1           0      -17.907589   -1.931309    2.994823
     55          1           0      -16.331672   -3.133055    3.750506
     56          1           0      -16.360270   -4.022839    2.244338
     57          1           0      -25.904542   -4.700656   -0.644502
     58          1           0      -25.228721   -4.521338    1.050496
     59          1           0      -24.259648   -5.163361   -0.335582
     60          1           0      -27.607872   -0.125619   -1.204079
     61          1           0      -27.390694    0.181535    0.574576
     62          1           0      -28.653984   -0.888256    0.116209
     63          1           0      -25.425149    3.528348    0.077611
     64          1           0      -23.311644    4.912910   -1.273974
     65          1           0      -24.930825    4.458069   -2.444276
     66          1           0      -26.475074    3.850220   -1.783710
     67          1           0      -25.340432    2.667709   -2.591909
     68          1           0      -22.332068    5.295762    0.987282
     69          1           0      -23.773923    4.473516    1.736653
     70          1           0      -24.612293    6.405392   -0.027915
     71          1           0      -23.564451    7.224880    1.077269
     72          1           0      -25.015470    6.383831    1.721871
     73          1           0      -18.515872    5.188019    0.231376
     74          1           0      -18.257501    5.106955   -1.462976
     75          1           0      -16.926122    4.756267   -0.225714
     76          1           0      -16.403916   -0.114885    1.712655
     77          1           0      -16.022246   -1.562142   -3.292644
     78          1           0      -15.287863   -2.606981   -1.888530
     79          1           0      -14.396960   -1.259175   -2.726886
     80         12           0       20.904497    0.786289   -0.494826
     81          6           0       20.514523   -2.823810   -0.211897
     82          6           0       17.796251    1.084140    0.933344
     83          6           0       21.787061    3.816789    0.609512
     84          6           0       23.900567    0.298095   -2.021774
     85          7           0       19.420704   -0.745791    0.452855
     86          6           0       19.450262   -2.184853    0.374389
     87          6           0       18.102029   -2.746369    0.834545
     88          6           0       17.148364   -1.515368    0.832190
     89          6           0       18.131886   -0.268540    0.722649
     90          6           0       16.105847   -1.513024   -0.383886
     91          6           0       18.099777   -3.607724    2.063540
     92          6           0       19.336237   -3.533327    2.990212
     93          1           0       19.529038   -4.264897    4.331139
     94          7           0       19.861886    2.327142    0.515184
     95          6           0       18.590613    2.233912    1.037060
     96          6           0       18.210389    3.577138    1.575472
     97          6           0       19.406099    4.290883    1.571326
     98          6           0       20.458028    3.499012    0.938110
     99          6           0       16.836428    3.836458    2.083555
    100          6           0       19.582423    5.716094    2.171623
    101          8           0       18.634669    6.206933    2.758925
    102          6           0       20.872492    6.466123    2.211736
    103          7           0       22.693193    1.790492   -0.579466
    104          6           0       22.723712    3.118085   -0.154070
    105          6           0       24.040053    3.789042   -0.546434
    106          6           0       24.611525    2.811193   -1.636157
    107          6           0       23.688917    1.604943   -1.447244
    108          6           0       24.002236    5.255321   -1.048716
    109          6           0       26.131923    2.469191   -1.524401
    110          6           0       27.081253    3.139886   -2.619510
    111          7           0       21.995300   -0.893107   -1.108473
    112          6           0       23.193131   -0.914136   -1.807992
    113          6           0       23.471086   -2.266628   -2.224731
    114          6           0       22.489802   -3.001279   -1.545364
    115          6           0       21.610599   -2.093787   -0.904475
    116          6           0       24.704153   -2.669219   -3.052068
    117          6           0       21.958226   -4.309465   -1.314530
    118          8           0       22.407741   -5.364517   -1.805663
    119          6           0       20.559580   -4.280815   -0.552872
    120          6           0       20.731489   -5.231723    0.563530
    121          8           0       21.675519   -5.273541    1.359498
    122          8           0       19.593527   -5.965920    0.622447
    123          6           0       19.604572   -7.132386    1.559955
    124          1           0       16.815419    1.176941    1.403307
    125          1           0       22.055754    4.813998    0.964978
    126          1           0       24.805955    0.185248   -2.621152
    127          1           0       17.898769   -3.353508   -0.047628
    128          1           0       16.667317   -1.347738    1.795989
    129          1           0       15.146606   -1.651875    0.113212
    130          1           0       16.370730   -2.300460   -1.089902
    131          1           0       16.161520   -0.512074   -0.813266
    132          1           0       17.877426   -4.618257    1.721264
    133          1           0       17.206973   -3.236869    2.568111
    134          1           0       19.461601   -2.469648    3.195076
    135          1           0       20.217023   -3.882056    2.450669
    136          1           0       16.935598    3.954262    3.162229
    137          1           0       16.209620    2.986534    1.815355
    138          1           0       16.423245    4.709661    1.577465
    139          1           0       21.685874    6.060075    2.811893
    140          1           0       20.775922    7.443048    2.684527
    141          1           0       21.067886    6.577589    1.145293
    142          1           0       24.522649    3.713310    0.428660
    143          1           0       24.359659    3.285758   -2.584811
    144          1           0       24.280765    5.983771   -0.286540
    145          1           0       22.982236    5.518168   -1.327103
    146          1           0       24.629975    5.310805   -1.938749
    147          1           0       26.352742    1.401447   -1.530974
    148          1           0       26.397018    2.788721   -0.516492
    149          1           0       27.923176    3.470799   -2.011946
    150          1           0       26.641484    3.979212   -3.158457
    151          1           0       27.270026    2.379931   -3.376917
    152          1           0       24.573135   -3.545611   -3.687174
    153          1           0       25.408691   -2.912855   -2.257591
    154          1           0       24.937661   -1.893678   -3.781198
    155          1           0       19.767676   -4.568192   -1.246101
    156          1           0       18.636670   -7.633334    1.520995
    157          1           0       19.767005   -6.810221    2.588685
    158          1           0       20.415969   -7.736453    1.156389
 ---------------------------------------------------------------------

 SCF Done:  E(RPBE1PBE) =  -4067.29133229     A.U. after   16 cycles

 Excitation energies and oscillator strengths:

 Excited State   1:      Singlet-A      1.8048 eV  686.97 nm  f=0.3460  <S**2>=0.000
     310 -> 316        0.15294
     312 -> 314        0.69764
     312 <- 314       -0.11782
 This state for optimization and/or second-order correction.
 Total Energy, E(TD-HF/TD-DFT) =  -4067.22500748
 Copying the excited state density for this state as the 1-particle RhoCI density.

 Excited State   2:      Singlet-A      1.8399 eV  673.86 nm  f=0.0000  <S**2>=0.000
     312 -> 313        0.70710

 Excited State   3:      Singlet-A      1.8703 eV  662.91 nm  f=0.3414  <S**2>=0.000
     309 -> 315       -0.19149
     311 -> 313        0.68644

 Excited State   4:      Singlet-A      2.1089 eV  587.90 nm  f=0.0000  <S**2>=0.000
     311 -> 314        0.70711

 Excited State   5:      Singlet-A      2.2322 eV  555.44 nm  f=0.0727  <S**2>=0.000
     307 -> 313       -0.10211
     309 -> 313        0.63202
     311 -> 315        0.29400

 The electronic state is 1-A.
 Alpha  occ. eigenvalues --  -46.94152 -46.92645 -19.26029 -19.24395 -19.20349
 Alpha  occ. eigenvalues --  -19.19705 -19.19045 -19.18944 -19.18197 -19.17566
 Alpha  occ. eigenvalues --  -14.42094 -14.41930 -14.41651 -14.41113 -14.40339
 Alpha  occ. eigenvalues --  -14.39223 -14.38925 -14.38462 -10.36476 -10.36189
 Alpha  occ. eigenvalues --  -10.32452 -10.31986 -10.30924 -10.30719 -10.29941
 Alpha  occ. eigenvalues --  -10.29573 -10.29480 -10.29424 -10.29333 -10.29225
 Alpha  occ. eigenvalues --  -10.29089 -10.28977 -10.28882 -10.28801 -10.28353
 Alpha  occ. eigenvalues --  -10.28246 -10.28136 -10.28020 -10.27260 -10.27164
 Alpha  occ. eigenvalues --  -10.27145 -10.27070 -10.26693 -10.26676 -10.26663
 Alpha  occ. eigenvalues --  -10.26442 -10.26407 -10.26351 -10.26210 -10.26179
 Alpha  occ. eigenvalues --  -10.26178 -10.26136 -10.26018 -10.25982 -10.25979
 Alpha  occ. eigenvalues --  -10.25833 -10.25791 -10.25576 -10.25532 -10.25425
 Alpha  occ. eigenvalues --  -10.25084 -10.25067 -10.25063 -10.25035 -10.24914
 Alpha  occ. eigenvalues --  -10.24864 -10.24800 -10.24704 -10.24668 -10.24539
 Alpha  occ. eigenvalues --  -10.24448 -10.24424 -10.24347 -10.24285 -10.24113
 Alpha  occ. eigenvalues --  -10.23969 -10.23947 -10.23873 -10.23766 -10.23611
 Alpha  occ. eigenvalues --  -10.23523 -10.23496 -10.23466 -10.23316 -10.23097
 Alpha  occ. eigenvalues --  -10.21983  -3.16144  -3.14714  -1.88926  -1.88570
 Alpha  occ. eigenvalues --   -1.88331  -1.87525  -1.87111  -1.86917  -1.10859
 Alpha  occ. eigenvalues --   -1.08686  -1.05203  -1.05119  -1.03813  -1.02336
 Alpha  occ. eigenvalues --   -1.01583  -1.01199  -0.99646  -0.99580  -0.98740
 Alpha  occ. eigenvalues --   -0.98020  -0.97911  -0.97232  -0.95856  -0.94829
 Alpha  occ. eigenvalues --   -0.87330  -0.86365  -0.83616  -0.83268  -0.83215
 Alpha  occ. eigenvalues --   -0.83186  -0.82848  -0.82788  -0.81286  -0.81137
 Alpha  occ. eigenvalues --   -0.81054  -0.80865  -0.80473  -0.80364  -0.79250
 Alpha  occ. eigenvalues --   -0.78560  -0.78135  -0.78041  -0.77943  -0.76851
 Alpha  occ. eigenvalues --   -0.76728  -0.76556  -0.75547  -0.75308  -0.74493
 Alpha  occ. eigenvalues --   -0.74252  -0.72531  -0.72247  -0.72046  -0.71684
 Alpha  occ. eigenvalues --   -0.71333  -0.70810  -0.70316  -0.70154  -0.69627
 Alpha  occ. eigenvalues --   -0.69497  -0.67506  -0.67356  -0.66399  -0.66047
 Alpha  occ. eigenvalues --   -0.63995  -0.63519  -0.63291  -0.63058  -0.62172
 Alpha  occ. eigenvalues --   -0.62122  -0.61397  -0.61285  -0.60529  -0.60028
 Alpha  occ. eigenvalues --   -0.59852  -0.59761  -0.59490  -0.59224  -0.58623
 Alpha  occ. eigenvalues --   -0.58094  -0.56722  -0.56421  -0.54899  -0.54444
 Alpha  occ. eigenvalues --   -0.54070  -0.53792  -0.53724  -0.53646  -0.53530
 Alpha  occ. eigenvalues --   -0.52482  -0.52002  -0.51868  -0.51769  -0.51562
 Alpha  occ. eigenvalues --   -0.51323  -0.51234  -0.50689  -0.50291  -0.49701
 Alpha  occ. eigenvalues --   -0.49372  -0.49145  -0.48750  -0.48748  -0.48442
 Alpha  occ. eigenvalues --   -0.48316  -0.48274  -0.48134  -0.47868  -0.47733
 Alpha  occ. eigenvalues --   -0.47485  -0.47420  -0.47134  -0.47101  -0.46936
 Alpha  occ. eigenvalues --   -0.46616  -0.46443  -0.46427  -0.45928  -0.45885
 Alpha  occ. eigenvalues --   -0.45767  -0.45610  -0.45465  -0.45289  -0.45257
 Alpha  occ. eigenvalues --   -0.44561  -0.44531  -0.44512  -0.44301  -0.44074
 Alpha  occ. eigenvalues --   -0.43948  -0.43888  -0.43639  -0.43607  -0.43318
 Alpha  occ. eigenvalues --   -0.43314  -0.43052  -0.42955  -0.42865  -0.42771
 Alpha  occ. eigenvalues --   -0.42649  -0.42431  -0.42423  -0.42240  -0.41885
 Alpha  occ. eigenvalues --   -0.41831  -0.41525  -0.41478  -0.41332  -0.41202
 Alpha  occ. eigenvalues --   -0.41155  -0.40963  -0.40927  -0.40621  -0.40454
 Alpha  occ. eigenvalues --   -0.40186  -0.40175  -0.39900  -0.39764  -0.39668
 Alpha  occ. eigenvalues --   -0.39511  -0.39290  -0.39273  -0.39165  -0.38953
 Alpha  occ. eigenvalues --   -0.38781  -0.38744  -0.38691  -0.38497  -0.38311
 Alpha  occ. eigenvalues --   -0.38193  -0.38066  -0.37628  -0.37531  -0.37426
 Alpha  occ. eigenvalues --   -0.37376  -0.37331  -0.37163  -0.37037  -0.37004
 Alpha  occ. eigenvalues --   -0.36861  -0.36754  -0.36754  -0.36628  -0.36383
 Alpha  occ. eigenvalues --   -0.36183  -0.35925  -0.35712  -0.35199  -0.35079
 Alpha  occ. eigenvalues --   -0.34866  -0.34857  -0.34291  -0.34277  -0.34002
 Alpha  occ. eigenvalues --   -0.33819  -0.33346  -0.32897  -0.32575  -0.32376
 Alpha  occ. eigenvalues --   -0.32180  -0.32118  -0.31551  -0.31366  -0.31352
 Alpha  occ. eigenvalues --   -0.30829  -0.30276  -0.29687  -0.29242  -0.29237
 Alpha  occ. eigenvalues --   -0.29010  -0.28429  -0.28267  -0.27126  -0.27058
 Alpha  occ. eigenvalues --   -0.26671  -0.26091  -0.25796  -0.25364  -0.25240
 Alpha  occ. eigenvalues --   -0.25183  -0.24452  -0.24259  -0.21398  -0.21229
 Alpha  occ. eigenvalues --   -0.19126  -0.18420
 Alpha virt. eigenvalues --   -0.11348  -0.11060  -0.06127  -0.05264  -0.04392
 Alpha virt. eigenvalues --   -0.03088  -0.02435  -0.02168  -0.01975  -0.01360
 Alpha virt. eigenvalues --    0.00077   0.00121   0.00197   0.01058   0.01362

 Mulliken charges:
               1
     1  Mg  12.000009
     2  C    5.999852
     3  C    5.999955
     4  C    6.000284
     5  C    5.999952
     6  N    6.999933
     7  C    6.000262
     8  C    5.999982
     9  C    6.000032
    10  C    5.999801
    11  C    6.000072
    12  C    5.999984
    13  C    5.999993
    14  H    1.000019
    15  N    7.000021
    16  C    5.999755
    17  C    5.999768
    18  C    5.999958
    19  C    5.999675
    20  C    6.000035
    21  C    5.999881
    22  O    7.999797
    23  C    6.000047
    24  N    6.999974
    25  C    5.999647
    26  C    6.000112
    27  C    5.999958
    28  C    6.000242
    29  C    5.999994
    30  C    5.999978
    31  C    6.000007
    32  N    6.999988
    33  C    6.000205
    34  C    6.000330
    35  C    5.999967
    36  C    6.000314
    37  C    5.999944
    38  C    6.000182
    39  O    8.000378
    40  C    5.999958
    41  C    6.000041
    42  O    8.000118
    43  O    7.999965
    44  C    5.999980
    45  H    0.999869
    46  H    0.999895
    47  H    1.000090
    48  H    0.999997
    49  H    0.999978
    50  H    0.999919
    51  H    0.999897
    52  H    0.999990
    53  H    1.000046
    54  H    0.999970
    55  H    1.000040
    56  H    1.000002
    57  H    0.999836
    58  H    0.999839
    59  H    0.999850
    60  H    0.999917
    61  H    0.999926
    62  H    0.999868
    63  H    0.999949
    64  H    0.999977
    65  H    0.999921
    66  H    0.999966
    67  H    1.000010
    68  H    0.999977
    69  H    1.000069
    70  H    1.000014
    71  H    1.000023
    72  H    1.000023
    73  H    1.000190
    74  H    1.000181
    75  H    1.000193
    76  H    1.000114
    77  H    0.999999
    78  H    1.000036
    79  H    1.000079
    80  Mg  11.999718
    81  C    5.972596
    82  C    5.991140
    83  C    6.031126
    84  C    6.007829
    85  N    6.976390
    86  C    6.025713
    87  C    5.996454
    88  C    6.002161
    89  C    5.988035
    90  C    6.002015
    91  C    5.998644
    92  C    5.994119
    93  H    1.001976
    94  N    7.008207
    95  C    5.968277
    96  C    5.973099
    97  C    5.997999
    98  C    5.954828
    99  C    6.004508
   100  C    5.988141
   101  O    7.984139
   102  C    6.001783
   103  N    7.008570
   104  C    5.960664
   105  C    6.010178
   106  C    5.988577
   107  C    6.031894
   108  C    5.999929
   109  C    5.993537
   110  C    6.001984
   111  N    7.000359
   112  C    6.030561
   113  C    6.023981
   114  C    6.001271
   115  C    6.035677
   116  C    6.001269
   117  C    6.016183
   118  O    8.032233
   119  C    6.007005
   120  C    6.003890
   121  O    8.001112
   122  O    8.002256
   123  C    6.000103
   124  H    0.986714
   125  H    0.994882
   126  H    1.015719
   127  H    0.995126
   128  H    1.000782
   129  H    0.994998
   130  H    0.986091
   131  H    1.002787
   132  H    0.997200
   133  H    1.007779
   134  H    1.009911
   135  H    0.993161
   136  H    0.982563
   137  H    0.985734
   138  H    0.982029
   139  H    0.989722
   140  H    0.989080
   141  H    0.992477
   142  H    0.999517
   143  H    1.006653
   144  H    1.002830
   145  H    1.004888
   146  H    0.991229
   147  H    0.994582
   148  H    1.008892
   149  H    1.004830
   150  H    1.005615
   151  H    0.997482
   152  H    1.014879
   153  H    1.015496
   154  H    1.013015
   155  H    1.005760
   156  H    1.004561
   157  H    1.004047
   158  H    0.998836
 Sum of Mulliken charges = 624.00000

 Dipole moment (field-independent basis, Debye):
    X=              6.1180    Y=             -6.8084    Z=             -4.1636  Tot=             10.0558
 Quadrupole moment (field-independent basis, Debye-Ang):
   XX=            247.9607   YY=             -6.2474   ZZ=              2.8011
   XY=           -140.5644   XZ=            -90.4661   YZ=             -3.9460

 Normal termination of Gaussian 16 at Fri Oct 15 06:44:46 2021.
