 Gaussian 16, Revision A.03,
 Gaussian 16:  ES64L-G16RevA.03 25-Dec-2016

 --------------------------------------------------------
 #p PBE1PBE/Def2SVP td=(nstates=5) density=(transition=1)
 --------------------------------------------------------

 --------------------------------
 TDDFT excited states in gaussian
 --------------------------------
 Symbolic Z-matrix:
 Charge =  0 Multiplicity = 1

                         Standard orientation:
 ---------------------------------------------------------------------
 Center     Atomic      Atomic             Coordinates (Angstroms)
 Number     Number       Type             X           Y           Z
 ---------------------------------------------------------------------
      1         12           0      -17.910024   -0.724465    0.287175
      2          6           0      -17.443691    2.427074   -1.236164
      3          6           0      -17.507651    0.711975    3.361731
      4          6           0      -17.680177   -3.761056    1.550653
      5          6           0      -17.821944   -2.161216   -2.955331
      6          7           0      -17.632779    1.375661    0.957641
      7          6           0      -17.491123    2.429500    0.178201
      8          6           0      -17.667942    3.675838    1.026597
      9          6           0      -17.249090    3.192084    2.468235
     10          6           0      -17.461085    1.643440    2.281312
     11          6           0      -15.801398    3.689127    2.843582
     12          6           0      -19.137865    4.167341    1.061467
     13          6           0      -19.346817    5.690714    1.473268
     14          1           0      -18.170988    6.597787    1.845829
     15          7           0      -17.841920   -1.412300    2.172626
     16          6           0      -17.750003   -0.673418    3.379995
     17          6           0      -17.817084   -1.626598    4.512275
     18          6           0      -17.783634   -2.958967    3.964095
     19          6           0      -17.768793   -2.801712    2.493502
     20          6           0      -17.899450   -1.213430    5.939378
     21          6           0      -17.798770   -4.391951    4.625343
     22          8           0      -17.859239   -5.451095    3.986138
     23          6           0      -17.589574   -4.492448    6.108540
     24          7           0      -17.653631   -2.712951   -0.589670
     25          6           0      -17.639820   -3.796285    0.140638
     26          6           0      -17.590849   -5.087395   -0.627315
     27          6           0      -17.627909   -4.585445   -2.113578
     28          6           0      -17.804726   -3.048482   -1.899953
     29          6           0      -16.426378   -5.974218   -0.176692
     30          6           0      -18.763139   -5.159108   -2.952212
     31          6           0      -18.420350   -5.539648   -4.437101
     32          7           0      -17.754006   -0.064498   -1.774078
     33          6           0      -17.778417   -0.782200   -2.985962
     34          6           0      -17.839976    0.144569   -4.063396
     35          6           0      -17.535612    1.412529   -3.473110
     36          6           0      -17.544211    1.242918   -2.111775
     37          6           0      -18.197692   -0.185615   -5.484122
     38          6           0      -17.380041    2.878471   -3.632022
     39          8           0      -17.360448    3.556341   -4.638286
     40          6           0      -17.061975    3.495687   -2.187839
     41          6           0      -17.582785    4.891758   -2.083727
     42          8           0      -18.723686    5.237605   -2.175388
     43          8           0      -16.533542    5.821029   -1.955682
     44          6           0      -16.766743    7.164511   -2.526751
     45          1           0      -17.198189    1.060577    4.349668
     46          1           0      -17.750395   -4.803842    1.865152
     47          1           0      -17.874026   -2.632424   -3.939126
     48          1           0      -17.086356    4.421295    0.484342
     49          1           0      -17.936432    3.560633    3.230446
     50          1           0      -15.371737    4.256745    2.018851
     51          1           0      -15.218121    2.768637    2.868793
     52          1           0      -15.752496    4.330790    3.723431
     53          1           0      -19.611797    3.535598    1.813838
     54          1           0      -19.567942    3.957062    0.082289
     55          1           0      -20.049146    5.651293    2.307294
     56          1           0      -19.894677    6.128261    0.638346
     57          1           0      -18.085801   -0.167383    6.179924
     58          1           0      -16.974887   -1.410555    6.481266
     59          1           0      -18.745440   -1.784207    6.323093
     60          1           0      -18.505398   -4.408080    6.693366
     61          1           0      -16.894740   -3.662397    6.242094
     62          1           0      -17.075731   -5.439029    6.273759
     63          1           0      -18.541569   -5.543899   -0.352238
     64          1           0      -16.709259   -4.774644   -2.667542
     65          1           0      -15.594771   -5.422299    0.262471
     66          1           0      -16.050385   -6.433882   -1.089862
     67          1           0      -16.730870   -6.736973    0.540299
     68          1           0      -19.600763   -4.464005   -3.007258
     69          1           0      -19.173284   -5.952360   -2.327385
     70          1           0      -17.420882   -5.205044   -4.714433
     71          1           0      -19.149222   -4.988514   -5.030955
     72          1           0      -18.494813   -6.583567   -4.743484
     73          1           0      -17.573945   -1.043580   -5.735457
     74          1           0      -17.993209    0.610037   -6.200753
     75          1           0      -19.235049   -0.517428   -5.538014
     76          1           0      -15.989694    3.676154   -2.119119
     77          1           0      -16.763362    7.880236   -1.704529
     78          1           0      -17.697954    7.218986   -3.091721
     79          1           0      -15.920090    7.342134   -3.189822
     80         12           0       18.087753   -0.444017    0.071087
     81          6           0       15.722095    1.956008    0.534381
     82          6           0       20.599904    1.893850    0.316784
     83          6           0       20.316606   -2.907262   -0.581142
     84          6           0       15.478618   -2.716912   -0.648717
     85          7           0       18.134202    1.733617    0.170765
     86          6           0       17.072810    2.418709    0.673901
     87          6           0       17.430831    3.769452    1.194317
     88          6           0       19.009434    3.778813    0.849426
     89          6           0       19.294597    2.379304    0.412851
     90          6           0       19.387411    4.839834   -0.280795
     91          6           0       17.157809    3.804618    2.770091
     92          6           0       16.943008    5.175859    3.414426
     93          1           0       17.273329    6.525540    2.729772
     94          7           0       20.173513   -0.570039   -0.019037
     95          6           0       21.032223    0.535969    0.089824
     96          6           0       22.379597    0.041874   -0.074957
     97          6           0       22.314149   -1.347498   -0.304571
     98          6           0       20.889817   -1.647515   -0.254693
     99          6           0       23.599185    0.981851    0.069480
    100          6           0       23.535967   -2.350234   -0.648522
    101          8           0       23.398754   -3.579249   -0.694995
    102          6           0       24.963947   -1.900025   -0.909131
    103          7           0       17.884490   -2.579587   -0.474814
    104          6           0       18.985600   -3.330081   -0.717512
    105          6           0       18.619014   -4.669039   -1.355429
    106          6           0       17.010631   -4.740314   -1.064730
    107          6           0       16.731853   -3.302876   -0.598178
    108          6           0       19.100764   -4.885992   -2.862568
    109          6           0       16.541626   -5.690265    0.150669
    110          6           0       15.416757   -6.686754   -0.061063
    111          7           0       16.000772   -0.482335   -0.005614
    112          6           0       15.090698   -1.423769   -0.311037
    113          6           0       13.711346   -0.879749   -0.108442
    114          6           0       13.966576    0.455547    0.284379
    115          6           0       15.367435    0.645571    0.198134
    116          6           0       12.378093   -1.530288   -0.221539
    117          6           0       13.269322    1.627829    0.660459
    118          8           0       12.044129    1.835265    0.778129
    119          6           0       14.376549    2.663776    0.837598
    120          6           0       14.154110    3.747510   -0.092037
    121          8           0       14.024731    3.743522   -1.276253
    122          8           0       14.228275    4.919338    0.655070
    123          6           0       14.107059    6.288763    0.023122
    124          1           0       21.444268    2.523485    0.603623
    125          1           0       21.036107   -3.671083   -0.884524
    126          1           0       14.640239   -3.295777   -1.040235
    127          1           0       16.967270    4.674333    0.801876
    128          1           0       19.606181    4.013030    1.730959
    129          1           0       20.349274    5.338320   -0.162914
    130          1           0       18.554248    5.529660   -0.414379
    131          1           0       19.466238    4.277521   -1.211790
    132          1           0       17.960015    3.318531    3.325669
    133          1           0       16.258298    3.205500    2.913908
    134          1           0       17.479832    5.138585    4.363181
    135          1           0       15.899627    5.255199    3.717268
    136          1           0       23.347056    2.003710    0.352607
    137          1           0       24.125233    0.955290   -0.884235
    138          1           0       24.259676    0.534123    0.812398
    139          1           0       25.316584   -1.545186    0.058583
    140          1           0       25.012060   -0.964642   -1.467024
    141          1           0       25.504738   -2.657453   -1.476168
    142          1           0       19.080889   -5.455624   -0.757532
    143          1           0       16.466302   -5.047967   -1.957781
    144          1           0       18.256831   -5.085317   -3.523404
    145          1           0       19.821292   -5.701640   -2.911143
    146          1           0       19.550431   -3.974441   -3.256959
    147          1           0       16.323493   -5.117407    1.051856
    148          1           0       17.424880   -6.255842    0.445929
    149          1           0       14.659166   -6.459402    0.688107
    150          1           0       15.748153   -7.722926    0.001007
    151          1           0       14.940340   -6.502270   -1.024938
    152          1           0       12.405237   -2.600056   -0.428153
    153          1           0       11.793669   -1.081794   -1.025328
    154          1           0       11.844167   -1.380560    0.716653
    155          1           0       14.404099    3.068547    1.849700
    156          1           0       14.015667    6.200345   -1.059652
    157          1           0       15.018927    6.858202    0.207855
    158          1           0       13.218205    6.734668    0.469369
 ---------------------------------------------------------------------

 SCF Done:  E(RPBE1PBE) =  -4067.36451354     A.U. after   16 cycles

 Excitation energies and oscillator strengths:

 Excited State   1:      Singlet-A      1.8894 eV  656.21 nm  f=0.3601  <S**2>=0.000
     310 -> 315       -0.18729
     311 -> 314        0.68566
 This state for optimization and/or second-order correction.
 Total Energy, E(TD-HF/TD-DFT) =  -4067.29507932
 Copying the excited state density for this state as the 1-particle RhoCI density.

 Excited State   2:      Singlet-A      1.8923 eV  655.19 nm  f=0.3859  <S**2>=0.000
     309 -> 316        0.18626
     312 -> 313        0.68964
     312 <- 313       -0.10199

 Excited State   3:      Singlet-A      2.0162 eV  614.93 nm  f=0.0000  <S**2>=0.000
     312 -> 314        0.70711

 Excited State   4:      Singlet-A      2.0347 eV  609.36 nm  f=0.0000  <S**2>=0.000
     311 -> 313        0.70710

 Excited State   5:      Singlet-A      2.1349 eV  580.74 nm  f=0.0931  <S**2>=0.000
     310 -> 314        0.65948
     311 -> 315        0.23131

 The electronic state is 1-A.
 Alpha  occ. eigenvalues --  -46.92779 -46.91894 -19.24327 -19.24023 -19.20155
 Alpha  occ. eigenvalues --  -19.19840 -19.19722 -19.19500 -19.18947 -19.18872
 Alpha  occ. eigenvalues --  -14.42004 -14.41438 -14.41147 -14.41095 -14.39268
 Alpha  occ. eigenvalues --  -14.39233 -14.38957 -14.37872 -10.35652 -10.35579
 Alpha  occ. eigenvalues --  -10.33586 -10.33500 -10.32240 -10.31521 -10.29612
 Alpha  occ. eigenvalues --  -10.29403 -10.29097 -10.28762 -10.28448 -10.28344
 Alpha  occ. eigenvalues --  -10.28161 -10.28137 -10.28005 -10.27999 -10.27959
 Alpha  occ. eigenvalues --  -10.27811 -10.27736 -10.27722 -10.27610 -10.27498
 Alpha  occ. eigenvalues --  -10.26515 -10.26463 -10.26389 -10.26328 -10.26233
 Alpha  occ. eigenvalues --  -10.26137 -10.26126 -10.26051 -10.26003 -10.25906
 Alpha  occ. eigenvalues --  -10.25897 -10.25836 -10.25816 -10.25743 -10.25680
 Alpha  occ. eigenvalues --  -10.25543 -10.25498 -10.25493 -10.25403 -10.25389
 Alpha  occ. eigenvalues --  -10.25349 -10.25140 -10.25087 -10.25081 -10.25064
 Alpha  occ. eigenvalues --  -10.24905 -10.24545 -10.24014 -10.23976 -10.23902
 Alpha  occ. eigenvalues --  -10.23872 -10.23789 -10.23767 -10.23699 -10.23629
 Alpha  occ. eigenvalues --  -10.23590 -10.23566 -10.23541 -10.23437 -10.23358
 Alpha  occ. eigenvalues --  -10.23289 -10.23211 -10.22835 -10.22784 -10.22542
 Alpha  occ. eigenvalues --  -10.22376  -3.14772  -3.13938  -1.87633  -1.87128
 Alpha  occ. eigenvalues --   -1.87005  -1.86791  -1.86311  -1.86158  -1.10316
 Alpha  occ. eigenvalues --   -1.10026  -1.04840  -1.04560  -1.04325  -1.02966
 Alpha  occ. eigenvalues --   -1.01989  -1.01921  -1.00200  -0.99665  -0.99104
 Alpha  occ. eigenvalues --   -0.99087  -0.98299  -0.97284  -0.96639  -0.95253
 Alpha  occ. eigenvalues --   -0.87815  -0.86325  -0.83534  -0.83062  -0.82952
 Alpha  occ. eigenvalues --   -0.82510  -0.81957  -0.81843  -0.81575  -0.81450
 Alpha  occ. eigenvalues --   -0.81339  -0.81192  -0.80528  -0.80030  -0.78651
 Alpha  occ. eigenvalues --   -0.78150  -0.78083  -0.77742  -0.76758  -0.76627
 Alpha  occ. eigenvalues --   -0.75893  -0.75822  -0.75452  -0.75026  -0.74671
 Alpha  occ. eigenvalues --   -0.74187  -0.72757  -0.72689  -0.71807  -0.71479
 Alpha  occ. eigenvalues --   -0.71383  -0.70768  -0.70479  -0.69736  -0.69556
 Alpha  occ. eigenvalues --   -0.69383  -0.67030  -0.66982  -0.66449  -0.66119
 Alpha  occ. eigenvalues --   -0.64178  -0.63722  -0.63008  -0.62960  -0.62621
 Alpha  occ. eigenvalues --   -0.61732  -0.60936  -0.60440  -0.60389  -0.59718
 Alpha  occ. eigenvalues --   -0.59667  -0.59559  -0.59072  -0.59024  -0.58808
 Alpha  occ. eigenvalues --   -0.58028  -0.56325  -0.55701  -0.55074  -0.54484
 Alpha  occ. eigenvalues --   -0.54458  -0.53797  -0.53726  -0.53382  -0.53074
 Alpha  occ. eigenvalues --   -0.52889  -0.52640  -0.52315  -0.52175  -0.51469
 Alpha  occ. eigenvalues --   -0.50892  -0.50663  -0.50152  -0.50014  -0.49801
 Alpha  occ. eigenvalues --   -0.49711  -0.48742  -0.48656  -0.48334  -0.47744
 Alpha  occ. eigenvalues --   -0.47708  -0.47694  -0.47634  -0.47500  -0.47350
 Alpha  occ. eigenvalues --   -0.47345  -0.46748  -0.46720  -0.46633  -0.46591
 Alpha  occ. eigenvalues --   -0.46286  -0.46239  -0.46153  -0.45986  -0.45906
 Alpha  occ. eigenvalues --   -0.45689  -0.45380  -0.45323  -0.45122  -0.45016
 Alpha  occ. eigenvalues --   -0.44814  -0.44487  -0.44462  -0.44198  -0.44052
 Alpha  occ. eigenvalues --   -0.43993  -0.43719  -0.43686  -0.43543  -0.42943
 Alpha  occ. eigenvalues --   -0.42941  -0.42920  -0.42790  -0.42642  -0.42603
 Alpha  occ. eigenvalues --   -0.42439  -0.42308  -0.42133  -0.41951  -0.41922
 Alpha  occ. eigenvalues --   -0.41731  -0.41618  -0.41290  -0.41168  -0.41043
 Alpha  occ. eigenvalues --   -0.41014  -0.40952  -0.40881  -0.40869  -0.40358
 Alpha  occ. eigenvalues --   -0.40354  -0.40273  -0.39892  -0.39827  -0.39723
 Alpha  occ. eigenvalues --   -0.39436  -0.39153  -0.39100  -0.39029  -0.38780
 Alpha  occ. eigenvalues --   -0.38751  -0.38626  -0.38537  -0.38500  -0.38075
 Alpha  occ. eigenvalues --   -0.38001  -0.37932  -0.37516  -0.37490  -0.37366
 Alpha  occ. eigenvalues --   -0.37140  -0.36950  -0.36828  -0.36651  -0.36542
 Alpha  occ. eigenvalues --   -0.36474  -0.36414  -0.36256  -0.36160  -0.36002
 Alpha  occ. eigenvalues --   -0.35984  -0.35903  -0.35821  -0.35670  -0.35089
 Alpha  occ. eigenvalues --   -0.35085  -0.34873  -0.34688  -0.34342  -0.33933
 Alpha  occ. eigenvalues --   -0.33627  -0.33408  -0.32801  -0.32719  -0.32561
 Alpha  occ. eigenvalues --   -0.32496  -0.31836  -0.31593  -0.31428  -0.31034
 Alpha  occ. eigenvalues --   -0.30788  -0.30372  -0.29424  -0.29357  -0.29340
 Alpha  occ. eigenvalues --   -0.28994  -0.28675  -0.28405  -0.26811  -0.26625
 Alpha  occ. eigenvalues --   -0.26333  -0.26110  -0.25999  -0.25734  -0.25683
 Alpha  occ. eigenvalues --   -0.25480  -0.25315  -0.24222  -0.20794  -0.20548
 Alpha  occ. eigenvalues --   -0.18853  -0.18778
 Alpha virt. eigenvalues --   -0.11002  -0.10999  -0.05466  -0.05191  -0.04202
 Alpha virt. eigenvalues --   -0.04153  -0.02126  -0.01721  -0.00093   0.00020
 Alpha virt. eigenvalues --    0.00291   0.00773   0.01349   0.01366   0.01606

 Mulliken charges:
               1
     1  Mg  11.996209
     2  C    6.014935
     3  C    5.983714
     4  C    5.993580
     5  C    6.013189
     6  N    7.003474
     7  C    5.970576
     8  C    6.004230
     9  C    5.989527
    10  C    6.032935
    11  C    6.000516
    12  C    6.003384
    13  C    6.000012
    14  H    0.996193
    15  N    6.995303
    16  C    6.035907
    17  C    6.021340
    18  C    6.017636
    19  C    6.018535
    20  C    5.995526
    21  C    6.014838
    22  O    8.027384
    23  C    5.997378
    24  N    7.004179
    25  C    6.025838
    26  C    5.994488
    27  C    6.008866
    28  C    5.967315
    29  C    5.994854
    30  C    6.005480
    31  C    6.000019
    32  N    6.999781
    33  C    5.967733
    34  C    5.970161
    35  C    5.995552
    36  C    5.976439
    37  C    5.999612
    38  C    5.985657
    39  O    7.972601
    40  C    5.997023
    41  C    5.994487
    42  O    7.995006
    43  O    7.997578
    44  C    6.001280
    45  H    1.004854
    46  H    1.007235
    47  H    0.992723
    48  H    1.005425
    49  H    1.001564
    50  H    1.011235
    51  H    0.997941
    52  H    1.002104
    53  H    0.987726
    54  H    1.006707
    55  H    0.995300
    56  H    1.002514
    57  H    1.017616
    58  H    1.018971
    59  H    1.014770
    60  H    1.010289
    61  H    1.002109
    62  H    1.013194
    63  H    0.996956
    64  H    0.996795
    65  H    0.998812
    66  H    1.011120
    67  H    0.996968
    68  H    1.000592
    69  H    0.989183
    70  H    1.001700
    71  H    1.002723
    72  H    0.994678
    73  H    0.983641
    74  H    0.986493
    75  H    0.981096
    76  H    0.995475
    77  H    0.994091
    78  H    0.999306
    79  H    0.997826
    80  Mg  12.000008
    81  C    6.000176
    82  C    5.999766
    83  C    5.999883
    84  C    6.000059
    85  N    6.999996
    86  C    5.999700
    87  C    6.000164
    88  C    5.999867
    89  C    6.000355
    90  C    5.999991
    91  C    6.000063
    92  C    5.999995
    93  H    1.000012
    94  N    6.999953
    95  C    6.000417
    96  C    6.000053
    97  C    6.000205
    98  C    6.000173
    99  C    5.999964
   100  C    6.000128
   101  O    8.000204
   102  C    5.999995
   103  N    6.999940
   104  C    6.000228
   105  C    5.999922
   106  C    6.000087
   107  C    5.999781
   108  C    5.999979
   109  C    6.000062
   110  C    6.000001
   111  N    7.000055
   112  C    5.999733
   113  C    5.999648
   114  C    6.000081
   115  C    5.999754
   116  C    6.000066
   117  C    5.999894
   118  O    7.999744
   119  C    5.999987
   120  C    5.999985
   121  O    8.000040
   122  O    7.999940
   123  C    5.999999
   124  H    1.000094
   125  H    1.000034
   126  H    0.999940
   127  H    0.999993
   128  H    0.999994
   129  H    1.000007
   130  H    1.000145
   131  H    1.000040
   132  H    0.999874
   133  H    1.000023
   134  H    0.999923
   135  H    1.000003
   136  H    1.000137
   137  H    1.000155
   138  H    1.000104
   139  H    1.000032
   140  H    1.000070
   141  H    1.000108
   142  H    0.999974
   143  H    1.000013
   144  H    1.000119
   145  H    0.999993
   146  H    0.999999
   147  H    0.999959
   148  H    0.999874
   149  H    0.999957
   150  H    0.999932
   151  H    1.000047
   152  H    0.999837
   153  H    0.999915
   154  H    0.999780
   155  H    0.999893
   156  H    1.000045
   157  H    0.999941
   158  H    0.999989
 Sum of Mulliken charges = 624.00000

 Dipole moment (field-independent basis, Debye):
    X=              0.2491    Y=             -3.7654    Z=              9.2891  Tot=             10.0264
 Quadrupole moment (field-independent basis, Debye-Ang):
   XX=             -2.9776   YY=              3.5680   ZZ=              5.4014
   XY=             66.2708   XZ=           -165.2813   YZ=             -9.5469

 Normal termination of Gaussian 16 at Thu Oct 14 07:24:58 2021.
