 Gaussian 16, Revision A.03,
 Gaussian 16:  ES64L-G16RevA.03 25-Dec-2016

 --------------------------------------------------------
 #p PBE1PBE/Def2SVP td=(nstates=5) density=(transition=1)
 --------------------------------------------------------

 --------------------------------
 TDDFT excited states in gaussian
 --------------------------------
 Symbolic Z-matrix:
 Charge =  0 Multiplicity = 1

                         Standard orientation:
 ---------------------------------------------------------------------
 Center     Atomic      Atomic             Coordinates (Angstroms)
 Number     Number       Type             X           Y           Z
 ---------------------------------------------------------------------
      1         12           0      -26.439738   -0.806674    0.121023
      2          6           0      -27.245349    2.673716   -0.274475
      3          6           0      -23.961285   -0.285798   -2.360275
      4          6           0      -25.582720   -4.189924    0.245333
      5          6           0      -29.052843   -1.268288    2.150531
      6          7           0      -25.849992    1.037956   -1.331537
      7          6           0      -26.244693    2.321344   -1.188600
      8          6           0      -25.552182    3.218581   -2.276524
      9          6           0      -24.688171    2.142256   -3.025961
     10          6           0      -24.758764    0.871383   -2.148558
     11          6           0      -25.167190    1.915478   -4.502335
     12          6           0      -24.708948    4.347748   -1.684740
     13          6           0      -24.847823    5.685510   -2.334130
     14          1           0      -24.104445    6.883322   -1.725415
     15          7           0      -24.888923   -2.019545   -0.720443
     16          6           0      -24.005265   -1.604382   -1.711111
     17          6           0      -23.118735   -2.710116   -2.015094
     18          6           0      -23.473468   -3.797360   -1.233791
     19          6           0      -24.756237   -3.389916   -0.567549
     20          6           0      -22.092702   -2.707245   -3.111614
     21          6           0      -22.880157   -5.263409   -1.155725
     22          8           0      -23.244360   -6.169312   -0.446635
     23          6           0      -21.608863   -5.569903   -1.917380
     24          7           0      -27.246873   -2.491542    0.901935
     25          6           0      -26.783240   -3.780896    0.870313
     26          6           0      -27.792909   -4.780275    1.481592
     27          6           0      -28.766349   -3.830132    2.300745
     28          6           0      -28.298730   -2.422669    1.766858
     29          6           0      -28.480888   -5.685905    0.410575
     30          6           0      -28.644962   -3.959181    3.849692
     31          6           0      -27.333001   -3.464323    4.454409
     32          7           0      -27.879756    0.359771    0.801240
     33          6           0      -28.914611    0.059674    1.730385
     34          6           0      -29.727381    1.244996    1.994278
     35          6           0      -29.078655    2.270088    1.282632
     36          6           0      -27.970621    1.715847    0.588657
     37          6           0      -30.893978    1.310888    2.866473
     38          6           0      -29.178126    3.699461    1.005686
     39          8           0      -29.952256    4.525550    1.459317
     40          6           0      -28.035999    4.023196   -0.100340
     41          6           0      -27.314127    5.172307    0.607571
     42          8           0      -26.568048    5.120597    1.601965
     43          8           0      -27.655539    6.309888    0.027795
     44          6           0      -26.869118    7.570527    0.344425
     45          1           0      -23.153705   -0.095871   -3.069914
     46          1           0      -25.393985   -5.261832    0.343302
     47          1           0      -29.842139   -1.474541    2.876019
     48          1           0      -26.383218    3.685206   -2.804359
     49          1           0      -23.632814    2.417263   -3.048221
     50          1           0      -24.409203    2.042284   -5.275300
     51          1           0      -26.097001    2.427226   -4.751384
     52          1           0      -25.422397    0.890407   -4.771974
     53          1           0      -23.726661    4.105259   -2.090604
     54          1           0      -24.699296    4.351204   -0.594229
     55          1           0      -25.839572    6.085430   -2.551445
     56          1           0      -24.389613    5.529010   -3.310744
     57          1           0      -21.967817   -1.711486   -3.536241
     58          1           0      -22.296787   -3.387266   -3.940133
     59          1           0      -21.079220   -2.971557   -2.809350
     60          1           0      -20.774889   -4.942395   -1.603212
     61          1           0      -21.933649   -5.419667   -2.947013
     62          1           0      -21.501354   -6.647593   -1.794251
     63          1           0      -27.163142   -5.462195    2.054061
     64          1           0      -29.799774   -3.757637    1.961086
     65          1           0      -28.171227   -6.728628    0.480367
     66          1           0      -28.440378   -5.371986   -0.631868
     67          1           0      -29.528731   -5.570013    0.688105
     68          1           0      -29.016522   -4.946579    4.124075
     69          1           0      -29.401389   -3.307982    4.287379
     70          1           0      -26.561335   -3.171339    3.743445
     71          1           0      -26.938356   -4.307914    5.020176
     72          1           0      -27.393715   -2.538621    5.025520
     73          1           0      -31.370715    2.289501    2.926039
     74          1           0      -30.528253    1.008559    3.847690
     75          1           0      -31.601452    0.554226    2.524336
     76          1           0      -28.448179    4.480783   -0.999668
     77          1           0      -27.102087    8.270942   -0.457903
     78          1           0      -25.790893    7.421321    0.295968
     79          1           0      -27.075353    7.974079    1.336426
     80         12           0       27.069759    0.586410    0.127955
     81          6           0       23.919895   -0.347445   -0.998684
     82          6           0       25.828060    0.498995    3.445952
     83          6           0       30.190531    0.338372    1.295607
     84          6           0       28.279178   -0.041063   -3.123544
     85          7           0       25.111763   -0.237091    1.147853
     86          6           0       23.948308   -0.294236    0.418853
     87          6           0       22.754593   -0.473917    1.303349
     88          6           0       23.313813    0.051099    2.704781
     89          6           0       24.865857    0.094681    2.474478
     90          6           0       22.734158    1.467416    3.209480
     91          6           0       22.205309   -1.989948    1.217455
     92          6           0       20.801644   -2.143408    1.521410
     93          1           0       20.520326   -3.160163    2.647987
     94          7           0       27.920627    0.620388    2.064645
     95          6           0       27.235550    0.590799    3.311567
     96          6           0       28.236316    0.672021    4.362072
     97          6           0       29.524365    0.649625    3.774015
     98          6           0       29.252130    0.619291    2.297640
     99          6           0       27.875816    0.599863    5.799063
    100          6           0       30.881140    0.612298    4.594446
    101          8           0       30.789562    0.622961    5.821022
    102          6           0       32.231562    0.874035    3.936475
    103          7           0       28.904630    0.104443   -0.805629
    104          6           0       30.050178    0.199751   -0.084175
    105          6           0       31.393642   -0.192442   -0.963220
    106          6           0       30.783728   -0.098654   -2.443356
    107          6           0       29.250018    0.017695   -2.174340
    108          6           0       32.624757    0.778342   -0.806504
    109          6           0       31.110395   -1.318662   -3.306661
    110          6           0       31.875008   -1.163143   -4.643080
    111          7           0       26.246901    0.226012   -1.731307
    112          6           0       26.852674    0.036178   -2.939361
    113          6           0       25.845739   -0.062526   -3.959745
    114          6           0       24.646935   -0.275997   -3.180526
    115          6           0       24.992440   -0.126046   -1.826616
    116          6           0       26.080119   -0.232485   -5.432983
    117          6           0       23.250243   -0.643382   -3.285908
    118          8           0       22.544264   -0.708255   -4.245998
    119          6           0       22.637767   -0.661281   -1.831319
    120          6           0       21.570841    0.423741   -1.566311
    121          8           0       21.709932    1.602058   -1.814880
    122          8           0       20.389085   -0.181668   -1.091451
    123          6           0       19.240189    0.662455   -0.959309
    124          1           0       25.369972    0.526363    4.436051
    125          1           0       31.182164    0.018705    1.622088
    126          1           0       28.697591   -0.208670   -4.117675
    127          1           0       21.983813    0.274948    1.118222
    128          1           0       23.088915   -0.703022    3.459848
    129          1           0       22.254107    1.253385    4.164300
    130          1           0       22.032712    1.913960    2.505408
    131          1           0       23.599997    2.111564    3.365472
    132          1           0       22.788873   -2.509832    1.977056
    133          1           0       22.557058   -2.280644    0.227203
    134          1           0       20.328566   -2.472548    0.597003
    135          1           0       20.388798   -1.196706    1.869748
    136          1           0       26.805680    0.737638    5.952729
    137          1           0       28.330351    1.431235    6.338456
    138          1           0       28.140708   -0.367781    6.225853
    139          1           0       32.531260    0.102875    3.226132
    140          1           0       32.969325    0.969413    4.733838
    141          1           0       32.167004    1.843817    3.442932
    142          1           0       31.572767   -1.231907   -0.689765
    143          1           0       31.001445    0.829608   -2.972038
    144          1           0       33.442676    0.256982   -0.310069
    145          1           0       32.334704    1.637094   -0.199913
    146          1           0       32.912549    1.080201   -1.814131
    147          1           0       30.227037   -1.930543   -3.487950
    148          1           0       31.670742   -2.101289   -2.795438
    149          1           0       31.321978   -1.348217   -5.564355
    150          1           0       32.646617   -1.932835   -4.613490
    151          1           0       32.307854   -0.166511   -4.737507
    152          1           0       25.150061    0.034923   -5.935176
    153          1           0       26.092170   -1.264158   -5.783150
    154          1           0       26.969730    0.264353   -5.819181
    155          1           0       22.155353   -1.638021   -1.785031
    156          1           0       18.706121    0.135478   -0.167968
    157          1           0       18.576776    0.587874   -1.820770
    158          1           0       19.534614    1.695615   -0.779328
 ---------------------------------------------------------------------

 SCF Done:  E(RPBE1PBE) =  -4067.33241182     A.U. after   16 cycles

 Excitation energies and oscillator strengths:

 Excited State   1:      Singlet-A      1.8203 eV  681.13 nm  f=0.3568  <S**2>=0.000
     310 -> 315       -0.17694
     312 -> 314        0.69219
     312 <- 314       -0.10907
 This state for optimization and/or second-order correction.
 Total Energy, E(TD-HF/TD-DFT) =  -4067.26551783
 Copying the excited state density for this state as the 1-particle RhoCI density.

 Excited State   2:      Singlet-A      1.8324 eV  676.64 nm  f=0.3829  <S**2>=0.000
     309 -> 316        0.16906
     311 -> 313        0.69521
     311 <- 313       -0.11104

 Excited State   3:      Singlet-A      1.9324 eV  641.62 nm  f=0.0000  <S**2>=0.000
     312 -> 313        0.70711

 Excited State   4:      Singlet-A      2.0160 eV  615.00 nm  f=0.0000  <S**2>=0.000
     311 -> 314        0.70711

 Excited State   5:      Singlet-A      2.2320 eV  555.49 nm  f=0.0925  <S**2>=0.000
     310 -> 314        0.63930
     312 -> 315        0.29194

 The electronic state is 1-A.
 Alpha  occ. eigenvalues --  -46.93197 -46.91704 -19.25831 -19.25570 -19.20979
 Alpha  occ. eigenvalues --  -19.19745 -19.19645 -19.19621 -19.18640 -19.18264
 Alpha  occ. eigenvalues --  -14.41954 -14.41715 -14.41660 -14.41105 -14.39753
 Alpha  occ. eigenvalues --  -14.39723 -14.39407 -14.38841 -10.37157 -10.35506
 Alpha  occ. eigenvalues --  -10.33406 -10.32677 -10.32599 -10.31314 -10.29419
 Alpha  occ. eigenvalues --  -10.29403 -10.29227 -10.29193 -10.29079 -10.28976
 Alpha  occ. eigenvalues --  -10.28812 -10.28712 -10.28672 -10.28551 -10.28472
 Alpha  occ. eigenvalues --  -10.28424 -10.28414 -10.28280 -10.27825 -10.27669
 Alpha  occ. eigenvalues --  -10.27669 -10.27106 -10.26660 -10.26563 -10.26543
 Alpha  occ. eigenvalues --  -10.26405 -10.26293 -10.26262 -10.26248 -10.26228
 Alpha  occ. eigenvalues --  -10.26206 -10.26193 -10.26043 -10.25979 -10.25977
 Alpha  occ. eigenvalues --  -10.25940 -10.25873 -10.25836 -10.25692 -10.25644
 Alpha  occ. eigenvalues --  -10.25603 -10.25498 -10.25348 -10.25164 -10.24910
 Alpha  occ. eigenvalues --  -10.24483 -10.24307 -10.24257 -10.24238 -10.24218
 Alpha  occ. eigenvalues --  -10.24205 -10.24142 -10.24139 -10.24132 -10.23919
 Alpha  occ. eigenvalues --  -10.23686 -10.23648 -10.23564 -10.23461 -10.23352
 Alpha  occ. eigenvalues --  -10.23347 -10.23205 -10.22953 -10.22812 -10.22708
 Alpha  occ. eigenvalues --  -10.22625  -3.15197  -3.13971  -1.87984  -1.87625
 Alpha  occ. eigenvalues --   -1.87385  -1.86798  -1.86363  -1.86200  -1.10872
 Alpha  occ. eigenvalues --   -1.10728  -1.06136  -1.05726  -1.04871  -1.04816
 Alpha  occ. eigenvalues --   -1.03604  -1.00091  -0.99824  -0.98378  -0.97729
 Alpha  occ. eigenvalues --   -0.97407  -0.96950  -0.96854  -0.96367  -0.96185
 Alpha  occ. eigenvalues --   -0.86697  -0.85207  -0.83531  -0.83475  -0.83010
 Alpha  occ. eigenvalues --   -0.82615  -0.82433  -0.82277  -0.81699  -0.81228
 Alpha  occ. eigenvalues --   -0.81190  -0.80813  -0.80746  -0.80090  -0.78379
 Alpha  occ. eigenvalues --   -0.78319  -0.77851  -0.77682  -0.76917  -0.76626
 Alpha  occ. eigenvalues --   -0.76374  -0.75645  -0.75495  -0.75321  -0.74637
 Alpha  occ. eigenvalues --   -0.74487  -0.72413  -0.72231  -0.71602  -0.71588
 Alpha  occ. eigenvalues --   -0.71237  -0.71030  -0.70498  -0.70265  -0.69472
 Alpha  occ. eigenvalues --   -0.69281  -0.67159  -0.67045  -0.66075  -0.65790
 Alpha  occ. eigenvalues --   -0.64398  -0.63623  -0.63153  -0.62943  -0.61955
 Alpha  occ. eigenvalues --   -0.61868  -0.60845  -0.60645  -0.60323  -0.59878
 Alpha  occ. eigenvalues --   -0.59612  -0.59350  -0.59127  -0.58887  -0.58710
 Alpha  occ. eigenvalues --   -0.58641  -0.57434  -0.56388  -0.54236  -0.54101
 Alpha  occ. eigenvalues --   -0.54084  -0.53913  -0.53557  -0.53472  -0.53076
 Alpha  occ. eigenvalues --   -0.52638  -0.52380  -0.52049  -0.51954  -0.50851
 Alpha  occ. eigenvalues --   -0.50634  -0.50266  -0.49986  -0.49968  -0.49624
 Alpha  occ. eigenvalues --   -0.49576  -0.49272  -0.49143  -0.48620  -0.48495
 Alpha  occ. eigenvalues --   -0.47867  -0.47799  -0.47725  -0.47520  -0.47351
 Alpha  occ. eigenvalues --   -0.47251  -0.47146  -0.46960  -0.46950  -0.46630
 Alpha  occ. eigenvalues --   -0.46599  -0.46314  -0.46198  -0.46191  -0.45665
 Alpha  occ. eigenvalues --   -0.45563  -0.45481  -0.45452  -0.44782  -0.44707
 Alpha  occ. eigenvalues --   -0.44500  -0.44378  -0.44289  -0.44195  -0.44188
 Alpha  occ. eigenvalues --   -0.43907  -0.43868  -0.43843  -0.43835  -0.43552
 Alpha  occ. eigenvalues --   -0.43429  -0.43209  -0.43140  -0.43063  -0.42734
 Alpha  occ. eigenvalues --   -0.42700  -0.42539  -0.42230  -0.42143  -0.42068
 Alpha  occ. eigenvalues --   -0.41686  -0.41576  -0.41491  -0.41341  -0.41150
 Alpha  occ. eigenvalues --   -0.41053  -0.40907  -0.40882  -0.40629  -0.40559
 Alpha  occ. eigenvalues --   -0.40410  -0.40288  -0.39973  -0.39893  -0.39752
 Alpha  occ. eigenvalues --   -0.39692  -0.39568  -0.39350  -0.39214  -0.38992
 Alpha  occ. eigenvalues --   -0.38845  -0.38809  -0.38683  -0.38459  -0.38407
 Alpha  occ. eigenvalues --   -0.38240  -0.38236  -0.37929  -0.37929  -0.37865
 Alpha  occ. eigenvalues --   -0.37761  -0.37573  -0.37476  -0.37325  -0.37218
 Alpha  occ. eigenvalues --   -0.37059  -0.36962  -0.36722  -0.36389  -0.36223
 Alpha  occ. eigenvalues --   -0.35974  -0.35893  -0.35723  -0.35351  -0.35258
 Alpha  occ. eigenvalues --   -0.35133  -0.34789  -0.34535  -0.34016  -0.33621
 Alpha  occ. eigenvalues --   -0.33556  -0.33160  -0.33049  -0.32762  -0.32521
 Alpha  occ. eigenvalues --   -0.32089  -0.31715  -0.31650  -0.31264  -0.31073
 Alpha  occ. eigenvalues --   -0.30699  -0.30653  -0.29786  -0.29421  -0.29102
 Alpha  occ. eigenvalues --   -0.28890  -0.28664  -0.27622  -0.26909  -0.26903
 Alpha  occ. eigenvalues --   -0.26202  -0.26073  -0.25836  -0.25674  -0.25600
 Alpha  occ. eigenvalues --   -0.25515  -0.25110  -0.24977  -0.21213  -0.21034
 Alpha  occ. eigenvalues --   -0.18808  -0.18631
 Alpha virt. eigenvalues --   -0.11283  -0.11150  -0.05490  -0.05166  -0.03779
 Alpha virt. eigenvalues --   -0.03587  -0.02329  -0.02050  -0.01456  -0.00135
 Alpha virt. eigenvalues --    0.00372   0.00609   0.00868   0.01366   0.01661

 Mulliken charges:
               1
     1  Mg  11.999789
     2  C    6.016815
     3  C    5.985454
     4  C    5.979124
     5  C    6.000823
     6  N    7.009063
     7  C    5.974054
     8  C    6.004621
     9  C    5.994265
    10  C    6.029799
    11  C    5.998089
    12  C    6.005030
    13  C    6.001617
    14  H    0.999859
    15  N    6.995515
    16  C    6.041598
    17  C    6.015573
    18  C    6.016909
    19  C    6.034184
    20  C    5.994708
    21  C    6.012384
    22  O    8.025502
    23  C    5.996901
    24  N    6.988771
    25  C    6.037095
    26  C    5.993797
    27  C    6.003922
    28  C    5.968961
    29  C    5.995549
    30  C    6.004882
    31  C    6.005513
    32  N    7.002157
    33  C    5.967480
    34  C    5.971443
    35  C    5.997545
    36  C    5.970484
    37  C    6.000486
    38  C    5.984229
    39  O    7.973336
    40  C    5.997969
    41  C    5.996659
    42  O    7.994669
    43  O    7.999904
    44  C    6.001877
    45  H    1.010063
    46  H    1.006252
    47  H    0.988293
    48  H    1.003606
    49  H    0.998712
    50  H    1.002538
    51  H    1.011712
    52  H    0.997677
    53  H    0.991462
    54  H    1.003498
    55  H    1.003253
    56  H    0.994753
    57  H    1.016024
    58  H    1.018546
    59  H    1.017362
    60  H    1.007245
    61  H    1.004743
    62  H    1.013102
    63  H    0.997245
    64  H    1.002137
    65  H    0.999454
    66  H    0.998460
    67  H    1.012150
    68  H    0.990481
    69  H    1.003922
    70  H    0.989738
    71  H    0.992167
    72  H    1.003796
    73  H    0.986529
    74  H    0.982989
    75  H    0.982996
    76  H    0.991564
    77  H    0.995696
    78  H    0.994950
    79  H    0.998482
    80  Mg  11.999997
    81  C    6.000172
    82  C    5.999627
    83  C    5.999888
    84  C    6.000445
    85  N    6.999812
    86  C    5.999386
    87  C    6.000289
    88  C    5.999785
    89  C    6.000759
    90  C    5.999971
    91  C    6.000008
    92  C    6.000112
    93  H    0.999721
    94  N    6.999928
    95  C    6.000932
    96  C    6.000289
    97  C    6.000377
    98  C    6.000594
    99  C    5.999837
   100  C    6.000310
   101  O    8.000472
   102  C    5.999900
   103  N    7.000314
   104  C    6.000465
   105  C    5.999840
   106  C    6.000143
   107  C    5.999280
   108  C    5.999962
   109  C    6.000046
   110  C    6.000013
   111  N    6.999969
   112  C    5.999201
   113  C    5.999538
   114  C    5.999824
   115  C    5.999513
   116  C    6.000083
   117  C    5.999579
   118  O    7.999330
   119  C    5.999993
   120  C    5.999879
   121  O    7.999889
   122  O    7.999930
   123  C    6.000080
   124  H    1.000172
   125  H    1.000191
   126  H    0.999874
   127  H    0.999919
   128  H    1.000046
   129  H    1.000045
   130  H    1.000253
   131  H    0.999919
   132  H    0.999766
   133  H    1.000176
   134  H    1.000027
   135  H    0.999912
   136  H    1.000372
   137  H    1.000345
   138  H    1.000378
   139  H    1.000251
   140  H    1.000297
   141  H    1.000187
   142  H    1.000050
   143  H    0.999999
   144  H    1.000013
   145  H    0.999930
   146  H    1.000229
   147  H    1.000091
   148  H    0.999840
   149  H    1.000063
   150  H    0.999936
   151  H    0.999953
   152  H    0.999721
   153  H    0.999536
   154  H    0.999650
   155  H    0.999754
   156  H    0.999839
   157  H    0.999884
   158  H    0.999904
 Sum of Mulliken charges = 624.00000

 Dipole moment (field-independent basis, Debye):
    X=              7.3000    Y=             -5.6098    Z=             -4.3150  Tot=             10.1675
 Quadrupole moment (field-independent basis, Debye-Ang):
   XX=           -371.4689   YY=              7.0793   ZZ=              0.0689
   XY=            142.3124   XZ=            124.5421   YZ=              3.9101

 Normal termination of Gaussian 16 at Thu Oct 14 14:35:48 2021.
