 Gaussian 16, Revision A.03,
 Gaussian 16:  ES64L-G16RevA.03 25-Dec-2016

 --------------------------------------------------------
 #p PBE1PBE/Def2SVP td=(nstates=5) density=(transition=1)
 --------------------------------------------------------

 --------------------------------
 TDDFT excited states in gaussian
 --------------------------------
 Symbolic Z-matrix:
 Charge =  0 Multiplicity = 1

                         Standard orientation:
 ---------------------------------------------------------------------
 Center     Atomic      Atomic             Coordinates (Angstroms)
 Number     Number       Type             X           Y           Z
 ---------------------------------------------------------------------
      1         12           0       24.659490   -0.485040    0.131668
      2          6           0       23.639356    2.822206    0.678379
      3          6           0       24.462439    0.140649   -3.347653
      4          6           0       25.306344   -3.770226   -0.432795
      5          6           0       24.094416   -1.139817    3.474270
      6          7           0       24.277811    1.310074   -1.110830
      7          6           0       24.055947    2.596129   -0.609995
      8          6           0       24.304344    3.643856   -1.754212
      9          6           0       24.462649    2.753516   -2.992182
     10          6           0       24.347680    1.281132   -2.463675
     11          6           0       23.361758    3.078886   -4.037366
     12          6           0       25.508482    4.498556   -1.377995
     13          6           0       25.575609    5.916782   -1.920506
     14          1           0       24.608624    6.310571   -3.059919
     15          7           0       24.878600   -1.690406   -1.615480
     16          6           0       24.729614   -1.249596   -2.944224
     17          6           0       24.904795   -2.353723   -3.871379
     18          6           0       25.226547   -3.530228   -3.086560
     19          6           0       25.126021   -3.026104   -1.649977
     20          6           0       24.941266   -2.203957   -5.397643
     21          6           0       25.579581   -4.942373   -3.512531
     22          8           0       25.839316   -5.794034   -2.672939
     23          6           0       25.811558   -5.212727   -4.949491
     24          7           0       24.754223   -2.195313    1.401369
     25          6           0       25.131669   -3.417293    0.932639
     26          6           0       25.339360   -4.392250    2.121063
     27          6           0       25.013057   -3.535759    3.405548
     28          6           0       24.696738   -2.156109    2.772334
     29          6           0       24.445880   -5.634766    1.956857
     30          6           0       26.184848   -3.396031    4.413266
     31          6           0       25.956577   -4.348983    5.582493
     32          7           0       23.900242    0.526002    1.798696
     33          6           0       23.648519    0.153681    3.076974
     34          6           0       22.911135    1.265749    3.724536
     35          6           0       22.975072    2.343518    2.890702
     36          6           0       23.551973    1.818071    1.706350
     37          6           0       22.415575    1.161395    5.157109
     38          6           0       22.690658    3.773644    2.712399
     39          8           0       22.147711    4.556677    3.482405
     40          6           0       23.195079    4.112842    1.323054
     41          6           0       22.082332    4.811618    0.660762
     42          8           0       21.047327    4.363960    0.148803
     43          8           0       22.331264    6.165636    0.754155
     44          6           0       21.318680    7.051505    0.222142
     45          1           0       24.470184    0.393703   -4.409683
     46          1           0       25.616886   -4.782612   -0.699554
     47          1           0       23.857166   -1.450592    4.493945
     48          1           0       23.355991    4.182185   -1.734396
     49          1           0       25.383508    3.079475   -3.475683
     50          1           0       22.617464    2.295254   -4.179972
     51          1           0       23.848850    3.031136   -5.010895
     52          1           0       22.820615    3.993294   -3.794988
     53          1           0       26.366347    3.889372   -1.664331
     54          1           0       25.590680    4.529986   -0.292192
     55          1           0       26.601535    6.124693   -2.221376
     56          1           0       25.377714    6.495327   -1.017478
     57          1           0       24.664894   -1.210530   -5.751454
     58          1           0       24.253922   -2.916072   -5.856266
     59          1           0       25.922373   -2.516988   -5.752818
     60          1           0       26.691712   -4.654383   -5.269340
     61          1           0       24.891485   -5.101920   -5.523279
     62          1           0       26.107105   -6.247306   -5.124117
     63          1           0       26.369591   -4.744959    2.078684
     64          1           0       24.097033   -3.969567    3.808689
     65          1           0       23.752642   -5.848455    2.769889
     66          1           0       25.219189   -6.402582    1.966663
     67          1           0       23.784274   -5.607254    1.091505
     68          1           0       26.120056   -2.441759    4.936319
     69          1           0       27.166149   -3.578076    3.974668
     70          1           0       26.922513   -4.838612    5.705365
     71          1           0       25.297664   -5.186768    5.355634
     72          1           0       25.642223   -3.879887    6.515235
     73          1           0       22.430278    0.158148    5.583785
     74          1           0       21.406621    1.552808    5.281239
     75          1           0       23.137056    1.663549    5.802593
     76          1           0       24.070881    4.750896    1.436649
     77          1           0       20.362051    6.752467    0.651321
     78          1           0       21.237269    7.017492   -0.864503
     79          1           0       21.462963    7.986440    0.762537
     80         12           0      -23.794465   -0.782480    0.055124
     81          6           0      -25.129766    2.398284    0.466955
     82          6           0      -21.861023    0.579193   -2.482064
     83          6           0      -22.850813   -3.958893   -0.710488
     84          6           0      -25.936240   -1.964976    2.498564
     85          7           0      -23.572904    1.249726   -0.929898
     86          6           0      -24.197261    2.435798   -0.574897
     87          6           0      -23.832923    3.653520   -1.512065
     88          6           0      -23.021743    2.895546   -2.633287
     89          6           0      -22.822654    1.462640   -2.015232
     90          6           0      -23.578944    2.753654   -4.052758
     91          6           0      -23.069044    4.738452   -0.731012
     92          6           0      -23.812357    6.010305   -0.417907
     93          1           0      -23.003273    7.318273   -0.474206
     94          7           0      -22.400581   -1.600855   -1.243329
     95          6           0      -21.688722   -0.840394   -2.117762
     96          6           0      -20.842516   -1.790554   -2.865776
     97          6           0      -21.165429   -3.096122   -2.464019
     98          6           0      -22.137719   -2.963361   -1.449688
     99          6           0      -19.775753   -1.311205   -3.764457
    100          6           0      -20.663846   -4.416398   -2.971194
    101          8           0      -20.959082   -5.523187   -2.440662
    102          6           0      -19.830149   -4.563805   -4.122578
    103          7           0      -24.242052   -2.634483    0.819717
    104          6           0      -23.712214   -3.803565    0.366877
    105          6           0      -24.218779   -4.997351    1.076046
    106          6           0      -25.171477   -4.375457    2.159300
    107          6           0      -25.157448   -2.946143    1.766005
    108          6           0      -24.901884   -6.194676    0.351952
    109          6           0      -24.792453   -4.709965    3.686023
    110          6           0      -23.746871   -3.892541    4.501322
    111          7           0      -25.269941   -0.028060    1.235847
    112          6           0      -26.029984   -0.610744    2.208756
    113          6           0      -26.740742    0.364582    2.913578
    114          6           0      -26.459381    1.573079    2.167155
    115          6           0      -25.540216    1.271333    1.182130
    116          6           0      -27.593484    0.184549    4.168111
    117          6           0      -26.690499    2.988583    2.204860
    118          8           0      -27.265132    3.738901    2.967202
    119          6           0      -25.990583    3.549968    0.917774
    120          6           0      -27.008395    3.927903   -0.082667
    121          8           0      -27.209203    3.372528   -1.185158
    122          8           0      -27.793582    4.965157    0.281544
    123          6           0      -28.703130    5.600960   -0.731755
    124          1           0      -21.303308    0.999901   -3.320599
    125          1           0      -22.616542   -5.002544   -0.931254
    126          1           0      -26.510342   -2.228255    3.389936
    127          1           0      -24.684459    3.981044   -2.109402
    128          1           0      -22.052250    3.391921   -2.674515
    129          1           0      -23.849750    1.715822   -4.248294
    130          1           0      -22.734606    2.905160   -4.723630
    131          1           0      -24.418863    3.405311   -4.296015
    132          1           0      -22.246023    5.028951   -1.385017
    133          1           0      -22.630856    4.274500    0.152638
    134          1           0      -24.209343    5.914605    0.593052
    135          1           0      -24.701604    6.196361   -1.020335
    136          1           0      -18.852714   -1.684047   -3.322389
    137          1           0      -19.667451   -0.242196   -3.952231
    138          1           0      -19.893945   -1.769137   -4.746478
    139          1           0      -20.267160   -3.909485   -4.876433
    140          1           0      -19.661537   -5.616312   -4.346710
    141          1           0      -18.853574   -4.107171   -3.961478
    142          1           0      -23.284958   -5.341166    1.519913
    143          1           0      -26.189773   -4.719586    1.982204
    144          1           0      -24.310322   -7.107480    0.422831
    145          1           0      -25.011675   -5.999002   -0.715244
    146          1           0      -25.917491   -6.387614    0.697333
    147          1           0      -24.375252   -5.713379    3.598519
    148          1           0      -25.786367   -4.741878    4.132614
    149          1           0      -23.396805   -2.976195    4.026770
    150          1           0      -22.919525   -4.461632    4.926226
    151          1           0      -24.289925   -3.621801    5.405850
    152          1           0      -28.614449    0.538337    4.020928
    153          1           0      -27.168383    0.818873    4.945774
    154          1           0      -27.586703   -0.824876    4.580190
    155          1           0      -25.546373    4.509221    1.184058
    156          1           0      -28.910816    6.509451   -0.166240
    157          1           0      -29.598801    5.029141   -0.972209
    158          1           0      -28.154012    5.780780   -1.656523
 ---------------------------------------------------------------------

 SCF Done:  E(RPBE1PBE) =  -4067.37834212     A.U. after   17 cycles

 Excitation energies and oscillator strengths:

 Excited State   1:      Singlet-A      1.8263 eV  678.87 nm  f=0.3787  <S**2>=0.000
     309 -> 315       -0.16169
     312 -> 313        0.69459
     312 <- 313       -0.11150
 This state for optimization and/or second-order correction.
 Total Energy, E(TD-HF/TD-DFT) =  -4067.31122539
 Copying the excited state density for this state as the 1-particle RhoCI density.

 Excited State   2:      Singlet-A      1.8654 eV  664.64 nm  f=0.3709  <S**2>=0.000
     310 -> 316       -0.17010
     311 -> 314        0.69168
     311 <- 314       -0.10906

 Excited State   3:      Singlet-A      1.9732 eV  628.34 nm  f=0.0000  <S**2>=0.000
     312 -> 314        0.70711

 Excited State   4:      Singlet-A      1.9817 eV  625.65 nm  f=0.0000  <S**2>=0.000
     311 -> 313        0.70711

 Excited State   5:      Singlet-A      2.2008 eV  563.37 nm  f=0.1142  <S**2>=0.000
     309 -> 313        0.65555
     312 -> 315        0.24491

 The electronic state is 1-A.
 Alpha  occ. eigenvalues --  -46.92533 -46.90915 -19.25177 -19.24653 -19.20090
 Alpha  occ. eigenvalues --  -19.19658 -19.19242 -19.18487 -19.18483 -19.18150
 Alpha  occ. eigenvalues --  -14.41732 -14.41447 -14.41383 -14.41277 -14.39706
 Alpha  occ. eigenvalues --  -14.39166 -14.38950 -14.38037 -10.36435 -10.35507
 Alpha  occ. eigenvalues --  -10.32682 -10.32418 -10.31569 -10.31333 -10.29595
 Alpha  occ. eigenvalues --  -10.29201 -10.28849 -10.28719 -10.28660 -10.28565
 Alpha  occ. eigenvalues --  -10.28560 -10.28540 -10.28239 -10.28233 -10.28122
 Alpha  occ. eigenvalues --  -10.28024 -10.27769 -10.27660 -10.27371 -10.26985
 Alpha  occ. eigenvalues --  -10.26568 -10.26520 -10.26361 -10.26264 -10.26101
 Alpha  occ. eigenvalues --  -10.25957 -10.25947 -10.25936 -10.25820 -10.25708
 Alpha  occ. eigenvalues --  -10.25614 -10.25598 -10.25558 -10.25530 -10.25521
 Alpha  occ. eigenvalues --  -10.25434 -10.25383 -10.25290 -10.25242 -10.25229
 Alpha  occ. eigenvalues --  -10.25088 -10.24934 -10.24896 -10.24891 -10.24811
 Alpha  occ. eigenvalues --  -10.24458 -10.24410 -10.24331 -10.24294 -10.24245
 Alpha  occ. eigenvalues --  -10.24237 -10.23992 -10.23877 -10.23750 -10.23635
 Alpha  occ. eigenvalues --  -10.23475 -10.23441 -10.23395 -10.23135 -10.23084
 Alpha  occ. eigenvalues --  -10.22990 -10.22881 -10.22755 -10.22697 -10.22490
 Alpha  occ. eigenvalues --  -10.22393  -3.14514  -3.13207  -1.87368  -1.86846
 Alpha  occ. eigenvalues --   -1.86768  -1.86060  -1.85586  -1.85435  -1.10615
 Alpha  occ. eigenvalues --   -1.09852  -1.05016  -1.04877  -1.04303  -1.02584
 Alpha  occ. eigenvalues --   -1.01735  -0.99855  -0.99507  -0.99177  -0.98741
 Alpha  occ. eigenvalues --   -0.97843  -0.97414  -0.97226  -0.96852  -0.96194
 Alpha  occ. eigenvalues --   -0.87842  -0.87464  -0.83541  -0.83249  -0.83095
 Alpha  occ. eigenvalues --   -0.82710  -0.82590  -0.82225  -0.81814  -0.81475
 Alpha  occ. eigenvalues --   -0.81306  -0.81080  -0.80437  -0.79973  -0.78611
 Alpha  occ. eigenvalues --   -0.78606  -0.78159  -0.77915  -0.77049  -0.76955
 Alpha  occ. eigenvalues --   -0.76688  -0.76452  -0.75280  -0.75277  -0.74853
 Alpha  occ. eigenvalues --   -0.74399  -0.72863  -0.72275  -0.71806  -0.71635
 Alpha  occ. eigenvalues --   -0.71144  -0.71117  -0.70491  -0.70312  -0.69627
 Alpha  occ. eigenvalues --   -0.68921  -0.67536  -0.67036  -0.65756  -0.65472
 Alpha  occ. eigenvalues --   -0.64471  -0.63495  -0.63103  -0.62900  -0.62416
 Alpha  occ. eigenvalues --   -0.62367  -0.61483  -0.61447  -0.59819  -0.59654
 Alpha  occ. eigenvalues --   -0.59478  -0.59335  -0.59192  -0.59191  -0.58888
 Alpha  occ. eigenvalues --   -0.58486  -0.56769  -0.56053  -0.54587  -0.54473
 Alpha  occ. eigenvalues --   -0.54261  -0.54155  -0.53697  -0.53605  -0.53351
 Alpha  occ. eigenvalues --   -0.53243  -0.53022  -0.52277  -0.52228  -0.51816
 Alpha  occ. eigenvalues --   -0.50751  -0.50547  -0.50328  -0.50094  -0.49667
 Alpha  occ. eigenvalues --   -0.49444  -0.49332  -0.48902  -0.48377  -0.48192
 Alpha  occ. eigenvalues --   -0.48042  -0.47891  -0.47810  -0.47750  -0.47540
 Alpha  occ. eigenvalues --   -0.47470  -0.47240  -0.47078  -0.46996  -0.46568
 Alpha  occ. eigenvalues --   -0.46547  -0.46487  -0.46386  -0.46036  -0.45640
 Alpha  occ. eigenvalues --   -0.45431  -0.45386  -0.44939  -0.44844  -0.44773
 Alpha  occ. eigenvalues --   -0.44351  -0.44325  -0.44181  -0.44168  -0.44033
 Alpha  occ. eigenvalues --   -0.43978  -0.43796  -0.43676  -0.43581  -0.43421
 Alpha  occ. eigenvalues --   -0.43283  -0.43021  -0.42888  -0.42789  -0.42582
 Alpha  occ. eigenvalues --   -0.42515  -0.42396  -0.42093  -0.41872  -0.41722
 Alpha  occ. eigenvalues --   -0.41488  -0.41410  -0.41160  -0.41089  -0.40968
 Alpha  occ. eigenvalues --   -0.40836  -0.40756  -0.40598  -0.40407  -0.40155
 Alpha  occ. eigenvalues --   -0.40052  -0.40004  -0.39899  -0.39712  -0.39564
 Alpha  occ. eigenvalues --   -0.39497  -0.39253  -0.39179  -0.39054  -0.39022
 Alpha  occ. eigenvalues --   -0.38763  -0.38555  -0.38521  -0.38431  -0.38193
 Alpha  occ. eigenvalues --   -0.38159  -0.37971  -0.37837  -0.37743  -0.37692
 Alpha  occ. eigenvalues --   -0.37645  -0.37359  -0.37328  -0.37286  -0.36765
 Alpha  occ. eigenvalues --   -0.36427  -0.36400  -0.36231  -0.36174  -0.35975
 Alpha  occ. eigenvalues --   -0.35866  -0.35615  -0.35266  -0.35152  -0.34840
 Alpha  occ. eigenvalues --   -0.34784  -0.34580  -0.33899  -0.33800  -0.33481
 Alpha  occ. eigenvalues --   -0.33202  -0.33004  -0.32963  -0.32813  -0.32779
 Alpha  occ. eigenvalues --   -0.31893  -0.31584  -0.31569  -0.31452  -0.31280
 Alpha  occ. eigenvalues --   -0.30922  -0.30499  -0.29510  -0.29400  -0.29107
 Alpha  occ. eigenvalues --   -0.28760  -0.28265  -0.27545  -0.26938  -0.26641
 Alpha  occ. eigenvalues --   -0.26455  -0.26163  -0.25950  -0.25613  -0.25555
 Alpha  occ. eigenvalues --   -0.25185  -0.24997  -0.24868  -0.20743  -0.20590
 Alpha  occ. eigenvalues --   -0.18685  -0.18589
 Alpha virt. eigenvalues --   -0.11129  -0.11063  -0.05064  -0.04858  -0.04051
 Alpha virt. eigenvalues --   -0.03492  -0.02452  -0.02009  -0.00443   0.00553
 Alpha virt. eigenvalues --    0.00635   0.00860   0.01069   0.01459   0.01473

 Mulliken charges:
               1
     1  Mg  11.999677
     2  C    6.022912
     3  C    5.996525
     4  C    5.977562
     5  C    6.005184
     6  N    7.014222
     7  C    5.966851
     8  C    6.005240
     9  C    5.988789
    10  C    6.029601
    11  C    5.998192
    12  C    6.004195
    13  C    5.999817
    14  H    0.993572
    15  N    6.995320
    16  C    6.035994
    17  C    6.018480
    18  C    6.017271
    19  C    6.028285
    20  C    5.997674
    21  C    6.014405
    22  O    8.030428
    23  C    5.992405
    24  N    6.993604
    25  C    6.031468
    26  C    5.993054
    27  C    6.011022
    28  C    5.972694
    29  C    5.997739
    30  C    6.004269
    31  C    6.001512
    32  N    7.001165
    33  C    5.966478
    34  C    5.969457
    35  C    5.999613
    36  C    5.966363
    37  C    6.002970
    38  C    5.980630
    39  O    7.973505
    40  C    5.999713
    41  C    5.996833
    42  O    7.992066
    43  O    7.999417
    44  C    6.001217
    45  H    1.013127
    46  H    1.002048
    47  H    0.989084
    48  H    1.002886
    49  H    1.006158
    50  H    0.998861
    51  H    0.999234
    52  H    1.012848
    53  H    0.990881
    54  H    1.007538
    55  H    0.996953
    56  H    1.004328
    57  H    1.015669
    58  H    1.016706
    59  H    1.016413
    60  H    1.007394
    61  H    1.007603
    62  H    1.014693
    63  H    0.998085
    64  H    0.996417
    65  H    1.008124
    66  H    0.999786
    67  H    0.994819
    68  H    1.004462
    69  H    0.990749
    70  H    0.994565
    71  H    0.994717
    72  H    1.001204
    73  H    0.982650
    74  H    0.982276
    75  H    0.979713
    76  H    0.992600
    77  H    0.999346
    78  H    0.993312
    79  H    0.997361
    80  Mg  12.000012
    81  C    5.999967
    82  C    6.000094
    83  C    6.000080
    84  C    5.999950
    85  N    7.000034
    86  C    6.000072
    87  C    5.999960
    88  C    6.000032
    89  C    5.999877
    90  C    6.000008
    91  C    5.999996
    92  C    5.999961
    93  H    1.000068
    94  N    6.999972
    95  C    5.999894
    96  C    5.999878
    97  C    5.999992
    98  C    5.999922
    99  C    6.000034
   100  C    5.999912
   101  O    7.999921
   102  C    6.000020
   103  N    6.999994
   104  C    5.999890
   105  C    6.000052
   106  C    5.999941
   107  C    6.000092
   108  C    5.999988
   109  C    5.999990
   110  C    5.999996
   111  N    7.000035
   112  C    6.000092
   113  C    6.000103
   114  C    6.000005
   115  C    6.000028
   116  C    5.999992
   117  C    6.000117
   118  O    8.000113
   119  C    6.000000
   120  C    5.999994
   121  O    8.000035
   122  O    8.000006
   123  C    6.000000
   124  H    0.999955
   125  H    0.999934
   126  H    1.000059
   127  H    1.000002
   128  H    1.000010
   129  H    0.999999
   130  H    0.999992
   131  H    0.999954
   132  H    1.000037
   133  H    1.000019
   134  H    0.999996
   135  H    0.999989
   136  H    0.999933
   137  H    0.999934
   138  H    0.999885
   139  H    0.999969
   140  H    0.999921
   141  H    0.999977
   142  H    1.000004
   143  H    0.999995
   144  H    0.999994
   145  H    0.999996
   146  H    0.999956
   147  H    1.000037
   148  H    0.999992
   149  H    1.000005
   150  H    1.000046
   151  H    1.000008
   152  H    1.000058
   153  H    1.000082
   154  H    1.000058
   155  H    1.000057
   156  H    1.000020
   157  H    0.999995
   158  H    1.000014
 Sum of Mulliken charges = 624.00000

 Dipole moment (field-independent basis, Debye):
    X=              2.3097    Y=             -5.2270    Z=             -8.7585  Tot=             10.4579
 Quadrupole moment (field-independent basis, Debye-Ang):
   XX=            112.5586   YY=              4.5449   ZZ=              1.2156
   XY=           -127.3652   XZ=           -212.5859   YZ=              7.2187

 Normal termination of Gaussian 16 at Fri Oct 15 01:17:20 2021.
