 Gaussian 16, Revision A.03,
 Gaussian 16:  ES64L-G16RevA.03 25-Dec-2016

 --------------------------------------------------------
 #p PBE1PBE/Def2SVP td=(nstates=5) density=(transition=1)
 --------------------------------------------------------

 --------------------------------
 TDDFT excited states in gaussian
 --------------------------------
 Symbolic Z-matrix:
 Charge =  0 Multiplicity = 1

                         Standard orientation:
 ---------------------------------------------------------------------
 Center     Atomic      Atomic             Coordinates (Angstroms)
 Number     Number       Type             X           Y           Z
 ---------------------------------------------------------------------
      1         12           0       32.817557    0.374941   -0.306100
      2          6           0       30.707635   -2.216666    0.876492
      3          6           0       30.954043    2.555993    1.509925
      4          6           0       35.295619    2.655554   -0.772363
      5          6           0       34.882220   -2.061550   -1.652733
      6          7           0       31.121268    0.041671    1.149269
      7          6           0       30.336286   -1.047150    1.421950
      8          6           0       29.178082   -0.697790    2.280705
      9          6           0       29.116507    0.898391    2.175371
     10          6           0       30.458925    1.198582    1.601253
     11          6           0       27.953360    1.365360    1.315130
     12          6           0       29.438954   -1.305059    3.668074
     13          6           0       28.319522   -2.249420    4.278786
     14          1           0       27.703872   -1.972462    5.683411
     15          7           0       33.123786    2.345375    0.217509
     16          6           0       32.162083    3.095097    0.908929
     17          6           0       32.583658    4.463651    0.892086
     18          6           0       33.870923    4.547449    0.261573
     19          6           0       34.112575    3.153311   -0.197255
     20          6           0       31.699863    5.559621    1.473595
     21          6           0       34.755284    5.758005    0.062278
     22          8           0       34.210295    6.843445    0.416231
     23          6           0       36.237279    5.814100   -0.405011
     24          7           0       34.841598    0.331783   -1.118149
     25          6           0       35.642803    1.414446   -1.226883
     26          6           0       37.033488    1.087277   -1.832416
     27          6           0       36.847967   -0.421002   -2.217580
     28          6           0       35.425925   -0.756220   -1.563119
     29          6           0       37.305283    2.003667   -3.011950
     30          6           0       37.903148   -1.350702   -1.700839
     31          6           0       38.773227   -1.941890   -2.776657
     32          7           0       32.785385   -1.636393   -0.561818
     33          6           0       33.651477   -2.550608   -1.174895
     34          6           0       33.086415   -3.796747   -1.292854
     35          6           0       31.903449   -3.710343   -0.530786
     36          6           0       31.810869   -2.406801   -0.048465
     37          6           0       33.635123   -4.886452   -2.189410
     38          6           0       30.686881   -4.467528   -0.133078
     39          8           0       30.369614   -5.583482   -0.405965
     40          6           0       29.964834   -3.480643    0.860393
     41          6           0       28.481384   -3.578606    0.578576
     42          8           0       27.673306   -4.182195    1.284363
     43          8           0       28.150498   -2.834839   -0.580120
     44          6           0       26.708929   -2.794367   -0.823992
     45          1           0       30.247620    3.291969    1.900139
     46          1           0       36.075369    3.375447   -1.031962
     47          1           0       35.565851   -2.889104   -1.850167
     48          1           0       28.273307   -1.144312    1.868076
     49          1           0       28.976032    1.298698    3.179069
     50          1           0       27.767600    0.721140    0.456822
     51          1           0       28.216624    2.329886    0.879705
     52          1           0       27.031827    1.530242    1.873378
     53          1           0       29.602683   -0.473765    4.353665
     54          1           0       30.392591   -1.826790    3.748552
     55          1           0       28.874241   -3.186841    4.326764
     56          1           0       27.559219   -2.477922    3.532836
     57          1           0       31.372789    5.305916    2.481951
     58          1           0       30.817331    5.604659    0.835579
     59          1           0       32.150421    6.540767    1.629601
     60          1           0       36.175870    5.529453   -1.454910
     61          1           0       36.808998    5.083789    0.167718
     62          1           0       36.688001    6.795041   -0.251993
     63          1           0       37.863441    1.223334   -1.139503
     64          1           0       36.672043   -0.511065   -3.289205
     65          1           0       37.129845    3.027611   -2.681577
     66          1           0       36.606711    1.746206   -3.808719
     67          1           0       38.255329    1.929235   -3.539721
     68          1           0       37.502677   -2.221669   -1.182045
     69          1           0       38.592735   -0.946869   -0.959825
     70          1           0       39.810823   -1.733087   -2.519021
     71          1           0       38.629728   -1.464606   -3.746043
     72          1           0       38.604957   -3.004548   -2.954655
     73          1           0       32.820068   -5.597140   -2.329930
     74          1           0       34.490111   -5.396075   -1.745774
     75          1           0       33.924812   -4.370354   -3.104465
     76          1           0       30.072577   -4.004385    1.810931
     77          1           0       26.439938   -1.892933   -1.374758
     78          1           0       26.152411   -2.664786    0.103147
     79          1           0       26.333916   -3.689425   -1.321078
     80         12           0      -32.854200   -0.395172   -0.574026
     81          6           0      -30.371425    1.980859    0.444166
     82          6           0      -30.937841   -2.857333    1.094628
     83          6           0      -35.474410   -2.476588   -0.824009
     84          6           0      -34.856111    2.245793   -1.538925
     85          7           0      -30.857313   -0.458557    0.637654
     86          6           0      -30.117514    0.660752    0.898464
     87          6           0      -29.067804    0.344170    1.951902
     88          6           0      -29.133072   -1.238927    1.881695
     89          6           0      -30.379353   -1.609097    1.171925
     90          6           0      -27.918986   -1.978340    1.225562
     91          6           0      -29.414751    1.070126    3.291213
     92          6           0      -28.278202    1.822428    4.098108
     93          1           0      -27.920143    1.360164    5.522003
     94          7           0      -33.122581   -2.363400   -0.154057
     95          6           0      -32.226965   -3.234496    0.520511
     96          6           0      -32.781652   -4.573372    0.597240
     97          6           0      -34.116938   -4.441546    0.036709
     98          6           0      -34.260917   -3.048965   -0.344243
     99          6           0      -32.075215   -5.667520    1.282772
    100          6           0      -35.084681   -5.630066   -0.098380
    101          8           0      -34.698442   -6.726111    0.402989
    102          6           0      -36.465026   -5.588155   -0.787712
    103          7           0      -35.016270   -0.167380   -0.858469
    104          6           0      -35.831631   -1.177625   -1.092811
    105          6           0      -37.179922   -0.630156   -1.433732
    106          6           0      -36.919133    0.874626   -1.710758
    107          6           0      -35.500870    1.040052   -1.258491
    108          6           0      -38.042020   -1.303958   -2.585279
    109          6           0      -37.927299    1.897339   -0.971440
    110          6           0      -38.862874    2.771402   -1.842165
    111          7           0      -32.633435    1.624109   -0.753181
    112          6           0      -33.508106    2.562906   -1.152179
    113          6           0      -32.938405    3.859466   -1.104698
    114          6           0      -31.684470    3.659081   -0.522846
    115          6           0      -31.546281    2.269410   -0.277938
    116          6           0      -33.466616    5.167002   -1.540121
    117          6           0      -30.545010    4.398330   -0.074283
    118          8           0      -30.380204    5.597632   -0.066512
    119          6           0      -29.597452    3.255774    0.663010
    120          6           0      -28.283426    3.201679    0.011348
    121          8           0      -28.084669    3.223201   -1.209942
    122          8           0      -27.347781    3.093624    1.018032
    123          6           0      -25.948501    3.027396    0.599787
    124          1           0      -30.391339   -3.662063    1.588775
    125          1           0      -36.385793   -3.077490   -0.830836
    126          1           0      -35.353758    3.079285   -2.039388
    127          1           0      -28.106681    0.616854    1.515269
    128          1           0      -29.307085   -1.425579    2.942054
    129          1           0      -28.311864   -2.583608    0.407364
    130          1           0      -27.400027   -2.665200    1.893781
    131          1           0      -27.176162   -1.336116    0.751436
    132          1           0      -29.770555    0.215077    3.865583
    133          1           0      -30.250454    1.768465    3.252251
    134          1           0      -28.594138    2.865417    4.109224
    135          1           0      -27.397497    1.885258    3.459681
    136          1           0      -31.821963   -5.292827    2.274800
    137          1           0      -31.124520   -5.863964    0.787536
    138          1           0      -32.546370   -6.650698    1.295427
    139          1           0      -37.142655   -5.023413   -0.147198
    140          1           0      -36.629758   -6.615304   -1.111517
    141          1           0      -36.260664   -5.017364   -1.694173
    142          1           0      -37.800395   -0.762652   -0.548279
    143          1           0      -36.871402    0.893226   -2.799628
    144          1           0      -39.074987   -1.108527   -2.296288
    145          1           0      -37.794401   -2.364562   -2.626052
    146          1           0      -37.798948   -0.770073   -3.504129
    147          1           0      -37.263658    2.516590   -0.368167
    148          1           0      -38.479244    1.326680   -0.224690
    149          1           0      -38.835913    3.824354   -1.564875
    150          1           0      -39.879871    2.389649   -1.748441
    151          1           0      -38.670949    2.687138   -2.911984
    152          1           0      -32.672124    5.901800   -1.666417
    153          1           0      -34.094164    5.363914   -0.670727
    154          1           0      -34.222532    4.985942   -2.304156
    155          1           0      -29.581309    3.392376    1.743704
    156          1           0      -25.691516    3.839682   -0.080483
    157          1           0      -25.748090    2.060756    0.135334
    158          1           0      -25.316593    3.133238    1.481631
 ---------------------------------------------------------------------

 SCF Done:  E(RPBE1PBE) =  -4067.35786455     A.U. after   16 cycles

 Excitation energies and oscillator strengths:

 Excited State   1:      Singlet-A      1.8485 eV  670.73 nm  f=0.3374  <S**2>=0.000
     309 -> 315       -0.16634
     311 -> 313        0.69423
     311 <- 313       -0.11258
 This state for optimization and/or second-order correction.
 Total Energy, E(TD-HF/TD-DFT) =  -4067.28993311
 Copying the excited state density for this state as the 1-particle RhoCI density.

 Excited State   2:      Singlet-A      1.8632 eV  665.42 nm  f=0.3832  <S**2>=0.000
     310 -> 316       -0.18035
     312 -> 314        0.69248
     312 <- 314       -0.10916

 Excited State   3:      Singlet-A      1.9011 eV  652.15 nm  f=0.0000  <S**2>=0.000
     312 -> 313        0.70711

 Excited State   4:      Singlet-A      2.1052 eV  588.95 nm  f=0.0000  <S**2>=0.000
     311 -> 314        0.70711

 Excited State   5:      Singlet-A      2.2338 eV  555.04 nm  f=0.1564  <S**2>=0.000
     309 -> 313        0.65764
     311 -> 315        0.24165

 The electronic state is 1-A.
 Alpha  occ. eigenvalues --  -46.92425 -46.92288 -19.26855 -19.26300 -19.21275
 Alpha  occ. eigenvalues --  -19.20717 -19.20110 -19.19963 -19.18532 -19.18421
 Alpha  occ. eigenvalues --  -14.41938 -14.41696 -14.41385 -14.40963 -14.39718
 Alpha  occ. eigenvalues --  -14.39600 -14.39444 -14.38740 -10.37430 -10.37024
 Alpha  occ. eigenvalues --  -10.32846 -10.32689 -10.32579 -10.32473 -10.29695
 Alpha  occ. eigenvalues --  -10.29616 -10.28925 -10.28922 -10.28912 -10.28546
 Alpha  occ. eigenvalues --  -10.28491 -10.28312 -10.28294 -10.28294 -10.28277
 Alpha  occ. eigenvalues --  -10.28112 -10.28043 -10.28029 -10.27432 -10.26803
 Alpha  occ. eigenvalues --  -10.26753 -10.26662 -10.26476 -10.26340 -10.26319
 Alpha  occ. eigenvalues --  -10.26292 -10.26198 -10.26195 -10.26138 -10.26040
 Alpha  occ. eigenvalues --  -10.26028 -10.25978 -10.25830 -10.25791 -10.25600
 Alpha  occ. eigenvalues --  -10.25445 -10.25439 -10.25420 -10.25358 -10.25312
 Alpha  occ. eigenvalues --  -10.25189 -10.25098 -10.25071 -10.25051 -10.24908
 Alpha  occ. eigenvalues --  -10.24899 -10.24800 -10.24682 -10.24655 -10.24634
 Alpha  occ. eigenvalues --  -10.24360 -10.24294 -10.24154 -10.24069 -10.24003
 Alpha  occ. eigenvalues --  -10.23971 -10.23896 -10.23780 -10.23694 -10.23578
 Alpha  occ. eigenvalues --  -10.23514 -10.22913 -10.22816 -10.22631 -10.22526
 Alpha  occ. eigenvalues --  -10.22284  -3.14567  -3.14421  -1.87388  -1.87250
 Alpha  occ. eigenvalues --   -1.86947  -1.86796  -1.86783  -1.86661  -1.11238
 Alpha  occ. eigenvalues --   -1.10356  -1.06867  -1.05573  -1.02902  -1.02814
 Alpha  occ. eigenvalues --   -1.02324  -1.01982  -1.00111  -0.99892  -0.99402
 Alpha  occ. eigenvalues --   -0.98963  -0.98332  -0.98007  -0.97418  -0.97029
 Alpha  occ. eigenvalues --   -0.87708  -0.87481  -0.84212  -0.83668  -0.83649
 Alpha  occ. eigenvalues --   -0.83377  -0.82609  -0.82412  -0.82286  -0.82205
 Alpha  occ. eigenvalues --   -0.81815  -0.81429  -0.80339  -0.80251  -0.79115
 Alpha  occ. eigenvalues --   -0.78937  -0.78630  -0.78106  -0.76975  -0.76950
 Alpha  occ. eigenvalues --   -0.76209  -0.76113  -0.75694  -0.75030  -0.74845
 Alpha  occ. eigenvalues --   -0.74789  -0.72578  -0.72158  -0.71954  -0.71764
 Alpha  occ. eigenvalues --   -0.71200  -0.71190  -0.70815  -0.70576  -0.69883
 Alpha  occ. eigenvalues --   -0.69706  -0.68003  -0.67666  -0.66687  -0.66662
 Alpha  occ. eigenvalues --   -0.64163  -0.63838  -0.63795  -0.63391  -0.62847
 Alpha  occ. eigenvalues --   -0.62136  -0.61696  -0.61214  -0.60709  -0.60586
 Alpha  occ. eigenvalues --   -0.60169  -0.60148  -0.59957  -0.59648  -0.59516
 Alpha  occ. eigenvalues --   -0.59288  -0.57698  -0.57494  -0.55092  -0.54716
 Alpha  occ. eigenvalues --   -0.54643  -0.54552  -0.54226  -0.54050  -0.53659
 Alpha  occ. eigenvalues --   -0.53467  -0.52917  -0.52732  -0.52219  -0.51397
 Alpha  occ. eigenvalues --   -0.50847  -0.50771  -0.50419  -0.50355  -0.50226
 Alpha  occ. eigenvalues --   -0.50153  -0.49447  -0.49435  -0.49113  -0.48995
 Alpha  occ. eigenvalues --   -0.48465  -0.48313  -0.48243  -0.47966  -0.47825
 Alpha  occ. eigenvalues --   -0.47558  -0.47406  -0.47095  -0.46851  -0.46602
 Alpha  occ. eigenvalues --   -0.46530  -0.46315  -0.46216  -0.45925  -0.45872
 Alpha  occ. eigenvalues --   -0.45747  -0.45537  -0.45165  -0.45164  -0.44957
 Alpha  occ. eigenvalues --   -0.44850  -0.44688  -0.44576  -0.44518  -0.44513
 Alpha  occ. eigenvalues --   -0.44290  -0.44223  -0.44030  -0.43601  -0.43478
 Alpha  occ. eigenvalues --   -0.43313  -0.43153  -0.43015  -0.42664  -0.42558
 Alpha  occ. eigenvalues --   -0.42435  -0.42429  -0.42354  -0.42325  -0.42156
 Alpha  occ. eigenvalues --   -0.41902  -0.41751  -0.41644  -0.41371  -0.41340
 Alpha  occ. eigenvalues --   -0.41184  -0.41133  -0.40835  -0.40786  -0.40688
 Alpha  occ. eigenvalues --   -0.40666  -0.40492  -0.40371  -0.40223  -0.40095
 Alpha  occ. eigenvalues --   -0.40052  -0.39959  -0.39784  -0.39693  -0.39311
 Alpha  occ. eigenvalues --   -0.38959  -0.38691  -0.38567  -0.38501  -0.38431
 Alpha  occ. eigenvalues --   -0.38351  -0.38152  -0.38095  -0.37920  -0.37764
 Alpha  occ. eigenvalues --   -0.37644  -0.37582  -0.37333  -0.37278  -0.37228
 Alpha  occ. eigenvalues --   -0.37224  -0.36916  -0.36578  -0.36425  -0.36417
 Alpha  occ. eigenvalues --   -0.36224  -0.36124  -0.36025  -0.35915  -0.35699
 Alpha  occ. eigenvalues --   -0.35279  -0.35180  -0.35067  -0.34062  -0.33935
 Alpha  occ. eigenvalues --   -0.33774  -0.33743  -0.33221  -0.33212  -0.32782
 Alpha  occ. eigenvalues --   -0.32641  -0.32581  -0.32402  -0.32212  -0.31519
 Alpha  occ. eigenvalues --   -0.31467  -0.30861  -0.30313  -0.29919  -0.29867
 Alpha  occ. eigenvalues --   -0.29272  -0.28866  -0.28636  -0.27434  -0.26992
 Alpha  occ. eigenvalues --   -0.26173  -0.26114  -0.25712  -0.25683  -0.25499
 Alpha  occ. eigenvalues --   -0.25199  -0.25111  -0.24903  -0.21390  -0.21146
 Alpha  occ. eigenvalues --   -0.19288  -0.18944
 Alpha virt. eigenvalues --   -0.11756  -0.11350  -0.05380  -0.05220  -0.03994
 Alpha virt. eigenvalues --   -0.03926  -0.02126  -0.02040  -0.00964  -0.00549
 Alpha virt. eigenvalues --   -0.00481  -0.00188   0.00708   0.00896   0.01382

 Mulliken charges:
               1
     1  Mg  11.998754
     2  C    6.022704
     3  C    6.006844
     4  C    5.966765
     5  C    5.980911
     6  N    7.026711
     7  C    5.973705
     8  C    6.009398
     9  C    5.984914
    10  C    6.023416
    11  C    5.995827
    12  C    6.004174
    13  C    5.999692
    14  H    0.995147
    15  N    6.993916
    16  C    6.033168
    17  C    6.020437
    18  C    6.007554
    19  C    6.040004
    20  C    5.997440
    21  C    6.011568
    22  O    8.018682
    23  C    6.002314
    24  N    6.982600
    25  C    6.036512
    26  C    5.990203
    27  C    6.005947
    28  C    5.981343
    29  C    5.997044
    30  C    6.005133
    31  C    6.001802
    32  N    6.999497
    33  C    5.977772
    34  C    5.972171
    35  C    5.996770
    36  C    5.967164
    37  C    5.999257
    38  C    5.980972
    39  O    7.975275
    40  C    5.997729
    41  C    5.996518
    42  O    7.993926
    43  O    8.001657
    44  C    6.002758
    45  H    1.014305
    46  H    1.001466
    47  H    0.985476
    48  H    1.002015
    49  H    1.004803
    50  H    1.013955
    51  H    0.995554
    52  H    1.009957
    53  H    0.990339
    54  H    1.003592
    55  H    1.004544
    56  H    1.001560
    57  H    1.015759
    58  H    1.016613
    59  H    1.013527
    60  H    1.009390
    61  H    1.009431
    62  H    1.009740
    63  H    0.999945
    64  H    0.998231
    65  H    0.991783
    66  H    1.004278
    67  H    1.005552
    68  H    1.004547
    69  H    0.989954
    70  H    0.993277
    71  H    0.995081
    72  H    1.001837
    73  H    0.986678
    74  H    0.981510
    75  H    0.985629
    76  H    0.995283
    77  H    0.993650
    78  H    0.994746
    79  H    0.999897
    80  Mg  11.999996
    81  C    6.000116
    82  C    5.999832
    83  C    5.999820
    84  C    6.000186
    85  N    6.999982
    86  C    5.999802
    87  C    6.000066
    88  C    5.999926
    89  C    6.000241
    90  C    5.999976
    91  C    6.000064
    92  C    6.000004
    93  H    0.999923
    94  N    6.999990
    95  C    6.000353
    96  C    6.000156
    97  C    6.000056
    98  C    6.000308
    99  C    5.999917
   100  C    6.000107
   101  O    8.000158
   102  C    5.999988
   103  N    6.999998
   104  C    6.000268
   105  C    5.999885
   106  C    6.000099
   107  C    5.999732
   108  C    5.999997
   109  C    6.000001
   110  C    6.000017
   111  N    6.999975
   112  C    5.999716
   113  C    5.999813
   114  C    5.999979
   115  C    5.999767
   116  C    6.000058
   117  C    5.999842
   118  O    7.999817
   119  C    5.999950
   120  C    5.999980
   121  O    7.999957
   122  O    7.999979
   123  C    6.000026
   124  H    1.000065
   125  H    1.000065
   126  H    0.999957
   127  H    0.999993
   128  H    1.000014
   129  H    0.999968
   130  H    1.000017
   131  H    1.000084
   132  H    0.999917
   133  H    1.000034
   134  H    1.000018
   135  H    0.999997
   136  H    1.000146
   137  H    1.000158
   138  H    1.000111
   139  H    1.000080
   140  H    1.000096
   141  H    1.000061
   142  H    1.000017
   143  H    0.999988
   144  H    1.000040
   145  H    0.999949
   146  H    1.000051
   147  H    1.000041
   148  H    0.999936
   149  H    1.000009
   150  H    0.999961
   151  H    0.999991
   152  H    0.999891
   153  H    0.999851
   154  H    0.999857
   155  H    0.999930
   156  H    0.999975
   157  H    0.999958
   158  H    0.999951
 Sum of Mulliken charges = 624.00000

 Dipole moment (field-independent basis, Debye):
    X=             -0.7661    Y=              9.4535    Z=              2.5109  Tot=              9.8112
 Quadrupole moment (field-independent basis, Debye-Ang):
   XX=            -50.2249   YY=              7.4828   ZZ=             -1.5811
   XY=            315.3524   XZ=             82.4933   YZ=             -1.2363

 Normal termination of Gaussian 16 at Thu Oct 14 22:31:54 2021.
