 Gaussian 16, Revision A.03,
 Gaussian 16:  ES64L-G16RevA.03 25-Dec-2016

 --------------------------------------------------------
 #p PBE1PBE/Def2SVP td=(nstates=5) density=(transition=1)
 --------------------------------------------------------

 --------------------------------
 TDDFT excited states in gaussian
 --------------------------------
 Symbolic Z-matrix:
 Charge =  0 Multiplicity = 1

                         Standard orientation:
 ---------------------------------------------------------------------
 Center     Atomic      Atomic             Coordinates (Angstroms)
 Number     Number       Type             X           Y           Z
 ---------------------------------------------------------------------
      1         12           0      -27.031715    0.762232    0.109659
      2          6           0      -25.872373   -2.307864    1.319359
      3          6           0      -28.582855   -1.042331   -2.415319
      4          6           0      -27.755215    3.618604   -1.264734
      5          6           0      -25.163968    2.362662    2.657957
      6          7           0      -26.875459   -1.440782   -0.722909
      7          6           0      -26.492272   -2.473103    0.035316
      8          6           0      -26.845743   -3.727091   -0.692161
      9          6           0      -27.318301   -3.261576   -2.091288
     10          6           0      -27.653042   -1.823459   -1.748396
     11          6           0      -26.383524   -3.394759   -3.294789
     12          6           0      -27.950258   -4.542166    0.052527
     13          6           0      -27.729864   -6.070064    0.296520
     14          1           0      -26.872967   -6.887111   -0.720124
     15          7           0      -28.182488    1.234087   -1.562714
     16          6           0      -28.874095    0.314329   -2.339817
     17          6           0      -29.640889    1.069897   -3.276153
     18          6           0      -29.322496    2.469745   -3.055707
     19          6           0      -28.401939    2.519256   -1.929647
     20          6           0      -30.518757    0.457053   -4.389197
     21          6           0      -29.766570    3.729970   -3.852672
     22          8           0      -29.429314    4.842389   -3.597335
     23          6           0      -30.745962    3.488376   -4.984401
     24          7           0      -26.524946    2.683591    0.657642
     25          6           0      -26.903022    3.714649   -0.130621
     26          6           0      -26.440212    5.105168    0.384975
     27          6           0      -25.839544    4.686020    1.795094
     28          6           0      -25.850805    3.162656    1.749537
     29          6           0      -25.392272    5.791327   -0.667469
     30          6           0      -26.552075    5.362851    3.007943
     31          6           0      -27.614297    4.565050    3.742888
     32          7           0      -25.776468    0.211924    1.737218
     33          6           0      -25.177198    0.956915    2.716718
     34          6           0      -24.484313    0.014189    3.663556
     35          6           0      -24.746216   -1.269997    3.134894
     36          6           0      -25.507056   -1.123097    1.928016
     37          6           0      -23.558015    0.361897    4.797075
     38          6           0      -24.520774   -2.701219    3.321553
     39          8           0      -23.876653   -3.258182    4.215127
     40          6           0      -25.369738   -3.393541    2.259476
     41          6           0      -24.454061   -4.372140    1.581575
     42          8           0      -23.619131   -4.086548    0.742921
     43          8           0      -24.618458   -5.519836    2.218597
     44          6           0      -23.592559   -6.540563    2.073066
     45          1           0      -28.950425   -1.586726   -3.287124
     46          1           0      -28.134695    4.584979   -1.602289
     47          1           0      -24.600680    2.857173    3.452464
     48          1           0      -25.956976   -4.354213   -0.754645
     49          1           0      -28.172037   -3.890846   -2.343127
     50          1           0      -25.418132   -3.865699   -3.108640
     51          1           0      -26.193928   -2.415290   -3.734761
     52          1           0      -26.921655   -3.996478   -4.026882
     53          1           0      -28.949020   -4.398443   -0.359157
     54          1           0      -27.938083   -4.013419    1.005516
     55          1           0      -28.743348   -6.473227    0.294640
     56          1           0      -27.288847   -6.203042    1.284078
     57          1           0      -30.286653    0.842288   -5.382132
     58          1           0      -31.568523    0.732579   -4.287134
     59          1           0      -30.496741   -0.632624   -4.433560
     60          1           0      -31.612756    2.903487   -4.676011
     61          1           0      -30.199450    3.029503   -5.808425
     62          1           0      -31.042356    4.434642   -5.436945
     63          1           0      -27.269098    5.801381    0.511606
     64          1           0      -24.810293    5.015902    1.935531
     65          1           0      -24.427839    5.732155   -0.162841
     66          1           0      -25.542287    6.863857   -0.793039
     67          1           0      -25.270438    5.237689   -1.599145
     68          1           0      -27.112058    6.180783    2.554398
     69          1           0      -25.847521    5.786360    3.723434
     70          1           0      -28.193816    4.101457    2.943621
     71          1           0      -28.144450    5.357262    4.270989
     72          1           0      -27.341366    3.721855    4.376902
     73          1           0      -23.278417    1.405298    4.943132
     74          1           0      -22.618255   -0.175221    4.668010
     75          1           0      -24.021993   -0.071321    5.682600
     76          1           0      -26.145815   -4.051057    2.651733
     77          1           0      -22.672769   -6.317909    1.533167
     78          1           0      -24.094971   -7.294112    1.465784
     79          1           0      -23.585610   -7.145188    2.980057
     80         12           0       27.224246    0.594021   -0.023274
     81          6           0       25.131256   -1.812529   -1.557693
     82          6           0       28.787850   -1.929767    1.581376
     83          6           0       29.038524    2.873571    1.470163
     84          6           0       24.960376    3.096719   -1.239515
     85          7           0       26.934142   -1.664994    0.105523
     86          6           0       26.185589   -2.381713   -0.813039
     87          6           0       26.612664   -3.805404   -0.701122
     88          6           0       27.330526   -3.892397    0.646069
     89          6           0       27.758032   -2.413910    0.823316
     90          6           0       26.334696   -4.322505    1.787575
     91          6           0       27.529635   -4.389949   -1.905306
     92          6           0       27.267353   -5.816504   -2.478022
     93          1           0       27.136051   -6.972889   -1.445068
     94          7           0       28.720262    0.445762    1.368489
     95          6           0       29.205946   -0.654032    1.864112
     96          6           0       30.246144   -0.298295    2.844791
     97          6           0       30.511005    1.096550    2.693135
     98          6           0       29.383713    1.549670    1.829686
     99          6           0       31.003206   -1.232971    3.857038
    100          6           0       31.618798    1.988219    3.253123
    101          8           0       31.652655    3.227217    3.127041
    102          6           0       32.588641    1.396217    4.161636
    103          7           0       26.886629    2.734822    0.218836
    104          6           0       27.900427    3.477910    0.817845
    105          6           0       27.636092    5.009904    0.550691
    106          6           0       26.427242    4.998443   -0.417877
    107          6           0       26.077500    3.512928   -0.531130
    108          6           0       27.497757    5.825591    1.836417
    109          6           0       26.619188    5.747921   -1.760360
    110          6           0       25.425023    6.564810   -2.306636
    111          7           0       25.413971    0.685455   -1.142592
    112          6           0       24.589991    1.743642   -1.512717
    113          6           0       23.573675    1.243164   -2.402988
    114          6           0       23.715740   -0.145272   -2.399964
    115          6           0       24.864327   -0.472292   -1.627675
    116          6           0       22.645681    1.997438   -3.137951
    117          6           0       23.211870   -1.411113   -2.952917
    118          8           0       22.312607   -1.674649   -3.735385
    119          6           0       24.147770   -2.551122   -2.433442
    120          6           0       23.271361   -3.562238   -1.715952
    121          8           0       22.825929   -3.628695   -0.592662
    122          8           0       23.151348   -4.543173   -2.657506
    123          6           0       22.644926   -5.864634   -2.216187
    124          1           0       29.360419   -2.739378    2.039542
    125          1           0       29.788291    3.586748    1.818807
    126          1           0       24.399872    3.849404   -1.797038
    127          1           0       25.811679   -4.544829   -0.681256
    128          1           0       28.263573   -4.452613    0.590505
    129          1           0       26.796461   -4.915376    2.576396
    130          1           0       25.553121   -5.000469    1.443759
    131          1           0       25.994248   -3.385915    2.227830
    132          1           0       28.581230   -4.263048   -1.650238
    133          1           0       27.461019   -3.727263   -2.768799
    134          1           0       28.192905   -6.018353   -3.018418
    135          1           0       26.373850   -5.649170   -3.079528
    136          1           0       32.060308   -1.391761    3.645121
    137          1           0       30.487285   -2.193487    3.845934
    138          1           0       31.082513   -0.848763    4.874026
    139          1           0       33.066045    0.526536    3.709377
    140          1           0       32.114171    1.105584    5.099010
    141          1           0       33.411980    2.104727    4.246910
    142          1           0       28.471344    5.354101   -0.059397
    143          1           0       25.530390    5.359660    0.085020
    144          1           0       26.451335    5.831497    2.143263
    145          1           0       27.741423    6.882334    1.731512
    146          1           0       27.955653    5.273578    2.656555
    147          1           0       27.006376    5.124108   -2.565843
    148          1           0       27.447021    6.455348   -1.695981
    149          1           0       24.960475    5.899195   -3.034280
    150          1           0       25.882567    7.391988   -2.850295
    151          1           0       24.752656    6.837843   -1.493787
    152          1           0       21.717666    1.538994   -3.478848
    153          1           0       23.192133    2.434563   -3.974254
    154          1           0       22.317271    2.785081   -2.460782
    155          1           0       24.676681   -3.009325   -3.268945
    156          1           0       23.294483   -6.585676   -2.711618
    157          1           0       21.619325   -6.105363   -2.494843
    158          1           0       22.767254   -5.968762   -1.138409
 ---------------------------------------------------------------------

 SCF Done:  E(RPBE1PBE) =  -4067.37028104     A.U. after   16 cycles

 Excitation energies and oscillator strengths:

 Excited State   1:      Singlet-A      1.8764 eV  660.75 nm  f=0.3930  <S**2>=0.000
     310 -> 316       -0.18224
     311 -> 313        0.69069
     311 <- 313       -0.10328
 This state for optimization and/or second-order correction.
 Total Energy, E(TD-HF/TD-DFT) =  -4067.30132384
 Copying the excited state density for this state as the 1-particle RhoCI density.

 Excited State   2:      Singlet-A      1.8848 eV  657.80 nm  f=0.3719  <S**2>=0.000
     309 -> 315       -0.17658
     312 -> 314        0.68853

 Excited State   3:      Singlet-A      2.0161 eV  614.97 nm  f=0.0000  <S**2>=0.000
     312 -> 313        0.70711

 Excited State   4:      Singlet-A      2.0779 eV  596.67 nm  f=0.0000  <S**2>=0.000
     311 -> 314        0.70711

 Excited State   5:      Singlet-A      2.2077 eV  561.59 nm  f=0.0946  <S**2>=0.000
     310 -> 313        0.65478
     311 -> 316        0.25274

 The electronic state is 1-A.
 Alpha  occ. eigenvalues --  -46.92737 -46.92161 -19.26789 -19.25051 -19.20246
 Alpha  occ. eigenvalues --  -19.19734 -19.19407 -19.19373 -19.18969 -19.18916
 Alpha  occ. eigenvalues --  -14.41371 -14.41299 -14.40965 -14.40916 -14.39423
 Alpha  occ. eigenvalues --  -14.38860 -14.38660 -14.38515 -10.36237 -10.36011
 Alpha  occ. eigenvalues --  -10.32557 -10.32378 -10.31987 -10.31777 -10.29442
 Alpha  occ. eigenvalues --  -10.29193 -10.28820 -10.28682 -10.28662 -10.28649
 Alpha  occ. eigenvalues --  -10.28564 -10.28385 -10.28104 -10.28089 -10.27699
 Alpha  occ. eigenvalues --  -10.27599 -10.27548 -10.27434 -10.27368 -10.27340
 Alpha  occ. eigenvalues --  -10.27067 -10.26931 -10.26926 -10.26811 -10.26739
 Alpha  occ. eigenvalues --  -10.26295 -10.25981 -10.25930 -10.25852 -10.25736
 Alpha  occ. eigenvalues --  -10.25692 -10.25547 -10.25386 -10.25370 -10.25351
 Alpha  occ. eigenvalues --  -10.25334 -10.25249 -10.25160 -10.25043 -10.24989
 Alpha  occ. eigenvalues --  -10.24866 -10.24863 -10.24820 -10.24696 -10.24365
 Alpha  occ. eigenvalues --  -10.24307 -10.24299 -10.24271 -10.24216 -10.24209
 Alpha  occ. eigenvalues --  -10.24023 -10.23933 -10.23771 -10.23757 -10.23737
 Alpha  occ. eigenvalues --  -10.23517 -10.23270 -10.23262 -10.23261 -10.23179
 Alpha  occ. eigenvalues --  -10.23081 -10.22881 -10.22694 -10.22620 -10.22572
 Alpha  occ. eigenvalues --  -10.22442  -3.14709  -3.14201  -1.87546  -1.87084
 Alpha  occ. eigenvalues --   -1.87050  -1.86922  -1.86611  -1.86384  -1.13005
 Alpha  occ. eigenvalues --   -1.10883  -1.06276  -1.04346  -1.04100  -1.03995
 Alpha  occ. eigenvalues --   -1.03333  -1.02596  -0.99780  -0.99582  -0.98551
 Alpha  occ. eigenvalues --   -0.98379  -0.97685  -0.97161  -0.96745  -0.96670
 Alpha  occ. eigenvalues --   -0.87551  -0.87144  -0.83175  -0.83003  -0.82844
 Alpha  occ. eigenvalues --   -0.82769  -0.82389  -0.82292  -0.81896  -0.81407
 Alpha  occ. eigenvalues --   -0.81329  -0.81162  -0.80413  -0.79840  -0.78729
 Alpha  occ. eigenvalues --   -0.78506  -0.77971  -0.77882  -0.76967  -0.76861
 Alpha  occ. eigenvalues --   -0.76574  -0.75837  -0.75724  -0.75095  -0.74970
 Alpha  occ. eigenvalues --   -0.74284  -0.72648  -0.72221  -0.71744  -0.71593
 Alpha  occ. eigenvalues --   -0.71339  -0.71316  -0.70579  -0.70162  -0.69485
 Alpha  occ. eigenvalues --   -0.69461  -0.67066  -0.66983  -0.66264  -0.66173
 Alpha  occ. eigenvalues --   -0.63852  -0.63294  -0.63217  -0.63108  -0.62362
 Alpha  occ. eigenvalues --   -0.62185  -0.61715  -0.60605  -0.59966  -0.59834
 Alpha  occ. eigenvalues --   -0.59705  -0.59430  -0.59430  -0.59158  -0.58894
 Alpha  occ. eigenvalues --   -0.58856  -0.57284  -0.56526  -0.54982  -0.54388
 Alpha  occ. eigenvalues --   -0.54177  -0.54127  -0.53820  -0.53746  -0.53087
 Alpha  occ. eigenvalues --   -0.52941  -0.52386  -0.52360  -0.52071  -0.51850
 Alpha  occ. eigenvalues --   -0.51375  -0.50742  -0.50563  -0.50432  -0.49726
 Alpha  occ. eigenvalues --   -0.49469  -0.49364  -0.49188  -0.49010  -0.48270
 Alpha  occ. eigenvalues --   -0.48135  -0.48121  -0.47819  -0.47802  -0.47623
 Alpha  occ. eigenvalues --   -0.47437  -0.47388  -0.47188  -0.46990  -0.46666
 Alpha  occ. eigenvalues --   -0.46503  -0.46262  -0.46251  -0.46127  -0.45897
 Alpha  occ. eigenvalues --   -0.45876  -0.45730  -0.45478  -0.45385  -0.44955
 Alpha  occ. eigenvalues --   -0.44639  -0.44603  -0.44267  -0.44140  -0.43946
 Alpha  occ. eigenvalues --   -0.43934  -0.43765  -0.43553  -0.43453  -0.43424
 Alpha  occ. eigenvalues --   -0.43257  -0.43055  -0.42858  -0.42805  -0.42639
 Alpha  occ. eigenvalues --   -0.42345  -0.42081  -0.41911  -0.41793  -0.41536
 Alpha  occ. eigenvalues --   -0.41452  -0.41355  -0.41122  -0.40997  -0.40835
 Alpha  occ. eigenvalues --   -0.40686  -0.40632  -0.40602  -0.40363  -0.40312
 Alpha  occ. eigenvalues --   -0.40248  -0.39918  -0.39759  -0.39671  -0.39641
 Alpha  occ. eigenvalues --   -0.39550  -0.39479  -0.39177  -0.39164  -0.38793
 Alpha  occ. eigenvalues --   -0.38635  -0.38463  -0.38370  -0.38113  -0.38025
 Alpha  occ. eigenvalues --   -0.37909  -0.37821  -0.37778  -0.37693  -0.37535
 Alpha  occ. eigenvalues --   -0.37529  -0.37171  -0.37007  -0.37001  -0.36672
 Alpha  occ. eigenvalues --   -0.36665  -0.36494  -0.36374  -0.36160  -0.36079
 Alpha  occ. eigenvalues --   -0.35977  -0.35751  -0.35544  -0.35416  -0.35126
 Alpha  occ. eigenvalues --   -0.35091  -0.34722  -0.34598  -0.34524  -0.34259
 Alpha  occ. eigenvalues --   -0.33696  -0.33257  -0.32664  -0.32388  -0.32161
 Alpha  occ. eigenvalues --   -0.32116  -0.31711  -0.31618  -0.31382  -0.31300
 Alpha  occ. eigenvalues --   -0.31172  -0.30947  -0.29583  -0.29431  -0.29122
 Alpha  occ. eigenvalues --   -0.29082  -0.28594  -0.28513  -0.26887  -0.26479
 Alpha  occ. eigenvalues --   -0.26466  -0.25998  -0.25909  -0.25392  -0.25355
 Alpha  occ. eigenvalues --   -0.25349  -0.24943  -0.24721  -0.20905  -0.20700
 Alpha  occ. eigenvalues --   -0.18690  -0.18620
 Alpha virt. eigenvalues --   -0.10965  -0.10809  -0.05555  -0.04992  -0.04256
 Alpha virt. eigenvalues --   -0.03927  -0.02144  -0.01599  -0.00882   0.00027
 Alpha virt. eigenvalues --    0.01100   0.01127   0.01237   0.01275   0.01520

 Mulliken charges:
               1
     1  Mg  12.001604
     2  C    6.007328
     3  C    5.983065
     4  C    5.990913
     5  C    6.019830
     6  N    6.996061
     7  C    5.974247
     8  C    6.005379
     9  C    5.990491
    10  C    6.038290
    11  C    5.999810
    12  C    6.001904
    13  C    6.001407
    14  H    0.995318
    15  N    6.992003
    16  C    6.042636
    17  C    6.014512
    18  C    6.017077
    19  C    6.027279
    20  C    5.997392
    21  C    6.013979
    22  O    8.024816
    23  C    5.994120
    24  N    7.005829
    25  C    6.030275
    26  C    5.990508
    27  C    6.009712
    28  C    5.965982
    29  C    5.994052
    30  C    6.001326
    31  C    6.006566
    32  N    7.002055
    33  C    5.961891
    34  C    5.969810
    35  C    5.997371
    36  C    5.973149
    37  C    6.002184
    38  C    5.981642
    39  O    7.971063
    40  C    6.003609
    41  C    5.994237
    42  O    7.992556
    43  O    7.999511
    44  C    6.004436
    45  H    1.009281
    46  H    1.006961
    47  H    0.994134
    48  H    0.999052
    49  H    1.002161
    50  H    1.012657
    51  H    0.995609
    52  H    1.001968
    53  H    0.986968
    54  H    1.006420
    55  H    0.995781
    56  H    1.005019
    57  H    1.015781
    58  H    1.017030
    59  H    1.017006
    60  H    1.006060
    61  H    1.008086
    62  H    1.014324
    63  H    1.000718
    64  H    0.999153
    65  H    1.011826
    66  H    1.003621
    67  H    0.996731
    68  H    0.990056
    69  H    1.000037
    70  H    0.990345
    71  H    0.995378
    72  H    1.007563
    73  H    0.981215
    74  H    0.983328
    75  H    0.982962
    76  H    0.989706
    77  H    0.996380
    78  H    0.992976
    79  H    0.996484
    80  Mg  12.000025
    81  C    5.999928
    82  C    6.000154
    83  C    6.000099
    84  C    5.999906
    85  N    7.000039
    86  C    6.000213
    87  C    5.999939
    88  C    6.000020
    89  C    5.999750
    90  C    5.999984
    91  C    5.999962
    92  C    5.999996
    93  H    1.000084
    94  N    7.000040
    95  C    5.999668
    96  C    5.999710
    97  C    5.999931
    98  C    5.999750
    99  C    6.000023
   100  C    5.999867
   101  O    7.999758
   102  C    6.000052
   103  N    6.999947
   104  C    5.999693
   105  C    6.000065
   106  C    5.999928
   107  C    6.000257
   108  C    6.000036
   109  C    5.999970
   110  C    6.000008
   111  N    6.999971
   112  C    6.000298
   113  C    6.000272
   114  C    6.000048
   115  C    6.000254
   116  C    5.999968
   117  C    6.000179
   118  O    8.000260
   119  C    6.000002
   120  C    6.000026
   121  O    8.000100
   122  O    7.999990
   123  C    5.999969
   124  H    0.999954
   125  H    0.999916
   126  H    1.000046
   127  H    1.000044
   128  H    1.000012
   129  H    1.000032
   130  H    0.999927
   131  H    1.000020
   132  H    1.000107
   133  H    0.999962
   134  H    1.000012
   135  H    0.999964
   136  H    0.999820
   137  H    0.999854
   138  H    0.999866
   139  H    0.999930
   140  H    0.999942
   141  H    0.999861
   142  H    0.999964
   143  H    1.000005
   144  H    0.999938
   145  H    0.999923
   146  H    1.000063
   147  H    0.999985
   148  H    1.000064
   149  H    0.999936
   150  H    1.000003
   151  H    1.000032
   152  H    1.000144
   153  H    1.000164
   154  H    1.000167
   155  H    1.000056
   156  H    1.000029
   157  H    1.000055
   158  H    1.000065
 Sum of Mulliken charges = 624.00000

 Dipole moment (field-independent basis, Debye):
    X=             -5.7136    Y=              3.4847    Z=             -8.1035  Tot=             10.5098
 Quadrupole moment (field-independent basis, Debye-Ang):
   XX=            300.5132   YY=              0.6790   ZZ=             -0.9609
   XY=            -96.5532   XZ=            215.4609   YZ=             -4.5885

 Normal termination of Gaussian 16 at Fri Oct 15 18:46:57 2021.
