 Gaussian 16, Revision A.03,
 Gaussian 16:  ES64L-G16RevA.03 25-Dec-2016

 --------------------------------------------------------
 #p PBE1PBE/Def2SVP td=(nstates=5) density=(transition=1)
 --------------------------------------------------------

 --------------------------------
 TDDFT excited states in gaussian
 --------------------------------
 Symbolic Z-matrix:
 Charge =  0 Multiplicity = 1

                         Standard orientation:
 ---------------------------------------------------------------------
 Center     Atomic      Atomic             Coordinates (Angstroms)
 Number     Number       Type             X           Y           Z
 ---------------------------------------------------------------------
      1         12           0        4.825963    0.535857    0.124262
      2          6           0        2.674517   -2.070507    0.953330
      3          6           0        7.368263   -1.648688   -0.216175
      4          6           0        6.917516    3.168512   -0.222169
      5          6           0        2.307651    2.735689    0.966065
      6          7           0        4.970435   -1.661296    0.375271
      7          6           0        3.915278   -2.527304    0.510276
      8          6           0        4.383542   -3.929721    0.417185
      9          6           0        5.882469   -3.868079    0.101299
     10          6           0        6.151171   -2.302407    0.052182
     11          6           0        6.853276   -4.639022    0.982259
     12          6           0        3.508498   -4.780384   -0.667606
     13          6           0        2.703525   -5.994545   -0.147904
     14          1           0        2.618902   -7.268535   -0.952074
     15          7           0        6.828554    0.734778   -0.295612
     16          6           0        7.744812   -0.302132   -0.387971
     17          6           0        9.040287    0.227144   -0.614801
     18          6           0        8.942548    1.645044   -0.617598
     19          6           0        7.516848    1.904357   -0.392291
     20          6           0       10.216886   -0.779329   -0.923132
     21          6           0       10.119962    2.610014   -0.745665
     22          8           0       10.046914    3.845893   -0.670303
     23          6           0       11.452607    2.088463   -1.061211
     24          7           0        4.756429    2.671048    0.566845
     25          6           0        5.682749    3.547714    0.238466
     26          6           0        5.262508    4.977220    0.648387
     27          6           0        3.700561    4.777972    0.524093
     28          6           0        3.554259    3.266805    0.671813
     29          6           0        5.636254    5.549793    2.065688
     30          6           0        3.002803    5.314044   -0.816500
     31          6           0        3.451785    4.757186   -2.105062
     32          7           0        2.819403    0.454200    0.887521
     33          6           0        1.884115    1.467405    1.175699
     34          6           0        0.667777    0.872754    1.630328
     35          6           0        0.925564   -0.483629    1.631303
     36          6           0        2.225352   -0.692223    1.064164
     37          6           0       -0.453729    1.562171    2.238290
     38          6           0        0.321103   -1.726034    1.751616
     39          8           0       -0.816804   -2.056308    2.101081
     40          6           0        1.419774   -2.837040    1.423660
     41          6           0        1.714167   -3.500174    2.728514
     42          8           0        2.131595   -3.064412    3.780942
     43          8           0        1.381677   -4.779470    2.547080
     44          6           0        1.611592   -5.690738    3.715678
     45          1           0        8.040209   -2.455900   -0.515008
     46          1           0        7.593875    3.980436   -0.494872
     47          1           0        1.500080    3.442896    1.165368
     48          1           0        4.217053   -4.343290    1.411068
     49          1           0        6.042206   -4.218624   -0.918120
     50          1           0        7.095863   -3.808335    1.643942
     51          1           0        7.691394   -5.107874    0.466360
     52          1           0        6.486872   -5.452634    1.607675
     53          1           0        4.169140   -5.101774   -1.472272
     54          1           0        2.695562   -4.209859   -1.117462
     55          1           0        1.664039   -5.667772   -0.107554
     56          1           0        2.946537   -6.234293    0.886407
     57          1           0       11.043633   -0.558466   -0.248261
     58          1           0       10.454891   -0.396707   -1.915706
     59          1           0       10.042012   -1.844358   -0.770384
     60          1           0       11.773927    1.359793   -0.318261
     61          1           0       12.143240    2.900293   -0.834275
     62          1           0       11.592171    1.758718   -2.091041
     63          1           0        5.484857    5.647426   -0.182086
     64          1           0        3.304153    5.361059    1.354998
     65          1           0        5.560506    4.847527    2.894991
     66          1           0        4.944283    6.386834    2.165362
     67          1           0        6.662225    5.918727    2.074108
     68          1           0        3.114337    6.389017   -0.960355
     69          1           0        1.969391    4.974388   -0.885131
     70          1           0        2.909501    3.814725   -2.166970
     71          1           0        4.506539    4.518551   -2.244980
     72          1           0        3.199698    5.293655   -3.019215
     73          1           0       -0.142876    1.687491    3.276167
     74          1           0       -1.402618    1.027109    2.214069
     75          1           0       -0.716569    2.492385    1.733396
     76          1           0        1.123038   -3.516913    0.624952
     77          1           0        2.489527   -6.272225    3.433356
     78          1           0        0.723514   -6.298520    3.887457
     79          1           0        1.869262   -5.228703    4.669105
     80         12           0       -4.936493    0.596840   -0.071898
     81          6           0       -2.854910   -1.916929   -1.436590
     82          6           0       -7.344109   -1.632795    0.000887
     83          6           0       -6.984616    3.181213    0.169409
     84          6           0       -2.346533    2.868021   -0.944949
     85          7           0       -4.936342   -1.622066   -0.527896
     86          6           0       -4.036026   -2.427579   -0.960183
     87          6           0       -4.499902   -3.892872   -0.828937
     88          6           0       -6.107644   -3.763815   -0.822727
     89          6           0       -6.174316   -2.213566   -0.497982
     90          6           0       -6.853016   -4.148602   -2.161587
     91          6           0       -4.004631   -4.527544    0.573484
     92          6           0       -3.650851   -6.046628    0.675240
     93          1           0       -4.415793   -7.005611   -0.309681
     94          7           0       -6.877708    0.749647    0.276332
     95          6           0       -7.714359   -0.355075    0.328814
     96          6           0       -9.109081    0.124085    0.631152
     97          6           0       -8.975788    1.572889    0.715212
     98          6           0       -7.604352    1.972089    0.387728
     99          6           0      -10.270846   -0.846665    0.727918
    100          6           0      -10.057122    2.566108    1.079879
    101          8           0       -9.906978    3.795731    1.096800
    102          6           0      -11.380981    2.055246    1.482246
    103          7           0       -4.663247    2.806818   -0.254873
    104          6           0       -5.712770    3.601180   -0.145885
    105          6           0       -5.238627    5.114764    0.004800
    106          6           0       -3.674459    4.961527   -0.403837
    107          6           0       -3.539210    3.444670   -0.506408
    108          6           0       -6.068875    6.127314   -0.851365
    109          6           0       -2.601151    5.572114    0.555976
    110          6           0       -1.832117    6.766103    0.051583
    111          7           0       -2.880953    0.533118   -0.808266
    112          6           0       -2.004981    1.562014   -1.091876
    113          6           0       -0.846512    1.054042   -1.699400
    114          6           0       -1.159498   -0.305200   -1.889898
    115          6           0       -2.400780   -0.603533   -1.379678
    116          6           0        0.337045    1.772577   -2.114253
    117          6           0       -0.568160   -1.498520   -2.357316
    118          8           0        0.566427   -1.836524   -2.791650
    119          6           0       -1.764329   -2.552766   -2.329583
    120          6           0       -1.278507   -3.870735   -1.848668
    121          8           0       -0.815031   -4.147659   -0.744301
    122          8           0       -1.553604   -4.821877   -2.881256
    123          6           0       -1.148477   -6.211900   -2.636129
    124          1           0       -8.070223   -2.437441    0.137308
    125          1           0       -7.663442    4.023671    0.313025
    126          1           0       -1.526612    3.564302   -1.136538
    127          1           0       -4.299039   -4.376339   -1.784625
    128          1           0       -6.503163   -4.484930   -0.108246
    129          1           0       -6.162579   -4.243648   -2.999381
    130          1           0       -7.552860   -3.371841   -2.469248
    131          1           0       -7.341644   -5.102462   -1.963162
    132          1           0       -4.707696   -4.296617    1.373932
    133          1           0       -3.129527   -3.967298    0.903350
    134          1           0       -3.817113   -6.470530    1.666097
    135          1           0       -2.636972   -6.154876    0.287971
    136          1           0      -10.908529   -0.640157    1.588215
    137          1           0       -9.956150   -1.889101    0.777327
    138          1           0      -10.799973   -0.869620   -0.224442
    139          1           0      -11.822095    1.442657    0.695448
    140          1           0      -12.044171    2.889157    1.712380
    141          1           0      -11.398917    1.458213    2.394022
    142          1           0       -5.242428    5.455131    1.040224
    143          1           0       -3.490197    5.252856   -1.438945
    144          1           0       -6.775021    5.595345   -1.489166
    145          1           0       -5.266936    6.696049   -1.322477
    146          1           0       -6.525942    6.826451   -0.152278
    147          1           0       -1.868396    4.790858    0.759198
    148          1           0       -3.068131    5.822221    1.508803
    149          1           0       -2.356658    7.029896   -0.865812
    150          1           0       -0.831424    6.425871   -0.217302
    151          1           0       -1.869229    7.621792    0.724627
    152          1           0        0.666349    2.355322   -1.254394
    153          1           0        0.177470    2.593261   -2.813681
    154          1           0        1.115115    1.063824   -2.398370
    155          1           0       -2.156175   -2.645811   -3.342954
    156          1           0       -1.324794   -6.826708   -3.519140
    157          1           0       -1.835057   -6.647964   -1.910249
    158          1           0       -0.080404   -6.240665   -2.423099
 ---------------------------------------------------------------------

 SCF Done:  E(RPBE1PBE) =  -4067.33162140     A.U. after   17 cycles

 Excitation energies and oscillator strengths:

 Excited State   1:      Singlet-A      1.5924 eV  778.60 nm  f=0.0734  <S**2>=0.000
     312 -> 313        0.67091
     312 -> 314       -0.21503
 This state for optimization and/or second-order correction.
 Total Energy, E(TD-HF/TD-DFT) =  -4067.27310216
 Copying the excited state density for this state as the 1-particle RhoCI density.

 Excited State   2:      Singlet-A      1.8097 eV  685.09 nm  f=0.4546  <S**2>=0.000
     311 -> 313        0.45768
     311 -> 314        0.21494
     312 -> 313       -0.15895
     312 -> 314       -0.45735

 Excited State   3:      Singlet-A      1.8863 eV  657.28 nm  f=0.1143  <S**2>=0.000
     310 -> 316       -0.11598
     311 -> 313        0.33224
     311 -> 314        0.38602
     312 -> 313        0.13792
     312 -> 314        0.45319

 Excited State   4:      Singlet-A      1.9592 eV  632.82 nm  f=0.2131  <S**2>=0.000
     309 -> 315       -0.17915
     311 -> 313       -0.39061
     311 -> 314        0.54066
     312 -> 314       -0.14762

 Excited State   5:      Singlet-A      2.0572 eV  602.69 nm  f=0.0353  <S**2>=0.000
     310 -> 313        0.69363

 The electronic state is 1-A.
 Alpha  occ. eigenvalues --  -46.92605 -46.92086 -19.24957 -19.24806 -19.20976
 Alpha  occ. eigenvalues --  -19.19077 -19.18982 -19.18449 -19.18437 -19.17779
 Alpha  occ. eigenvalues --  -14.41449 -14.41053 -14.40975 -14.40659 -14.39519
 Alpha  occ. eigenvalues --  -14.38798 -14.38168 -14.37930 -10.36714 -10.34659
 Alpha  occ. eigenvalues --  -10.32100 -10.31830 -10.31760 -10.30431 -10.29077
 Alpha  occ. eigenvalues --  -10.28558 -10.28539 -10.28498 -10.28291 -10.28276
 Alpha  occ. eigenvalues --  -10.28269 -10.28192 -10.28115 -10.28023 -10.27913
 Alpha  occ. eigenvalues --  -10.27820 -10.27461 -10.27325 -10.26915 -10.26413
 Alpha  occ. eigenvalues --  -10.26232 -10.26227 -10.26210 -10.26182 -10.26138
 Alpha  occ. eigenvalues --  -10.25959 -10.25943 -10.25900 -10.25862 -10.25607
 Alpha  occ. eigenvalues --  -10.25604 -10.25510 -10.25474 -10.25318 -10.25306
 Alpha  occ. eigenvalues --  -10.25278 -10.25102 -10.25059 -10.25054 -10.25004
 Alpha  occ. eigenvalues --  -10.24742 -10.24723 -10.24552 -10.24472 -10.24400
 Alpha  occ. eigenvalues --  -10.24322 -10.24079 -10.24044 -10.24014 -10.23928
 Alpha  occ. eigenvalues --  -10.23901 -10.23695 -10.23683 -10.23521 -10.23520
 Alpha  occ. eigenvalues --  -10.23281 -10.23230 -10.23131 -10.22985 -10.22965
 Alpha  occ. eigenvalues --  -10.22951 -10.22808 -10.22496 -10.22302 -10.22040
 Alpha  occ. eigenvalues --  -10.21607  -3.14643  -3.14078  -1.87485  -1.87027
 Alpha  occ. eigenvalues --   -1.86920  -1.86854  -1.86431  -1.86318  -1.10899
 Alpha  occ. eigenvalues --   -1.09102  -1.03996  -1.03409  -1.02477  -1.02271
 Alpha  occ. eigenvalues --   -1.01928  -1.01308  -1.00232  -0.99774  -0.99516
 Alpha  occ. eigenvalues --   -0.98243  -0.98105  -0.97433  -0.96646  -0.95956
 Alpha  occ. eigenvalues --   -0.87319  -0.85678  -0.83796  -0.83124  -0.82870
 Alpha  occ. eigenvalues --   -0.82281  -0.82091  -0.82067  -0.81842  -0.81721
 Alpha  occ. eigenvalues --   -0.81382  -0.81342  -0.81005  -0.80624  -0.78467
 Alpha  occ. eigenvalues --   -0.78302  -0.78264  -0.78166  -0.76941  -0.76682
 Alpha  occ. eigenvalues --   -0.75982  -0.75670  -0.75621  -0.75171  -0.75016
 Alpha  occ. eigenvalues --   -0.74411  -0.73173  -0.72512  -0.72024  -0.71412
 Alpha  occ. eigenvalues --   -0.71127  -0.71074  -0.70118  -0.69623  -0.69587
 Alpha  occ. eigenvalues --   -0.69145  -0.67606  -0.67309  -0.66669  -0.65511
 Alpha  occ. eigenvalues --   -0.63385  -0.63344  -0.63016  -0.62987  -0.62090
 Alpha  occ. eigenvalues --   -0.61500  -0.61362  -0.60665  -0.60309  -0.60008
 Alpha  occ. eigenvalues --   -0.59806  -0.59640  -0.59149  -0.59100  -0.58864
 Alpha  occ. eigenvalues --   -0.57939  -0.56020  -0.55841  -0.54971  -0.54651
 Alpha  occ. eigenvalues --   -0.54525  -0.53829  -0.53815  -0.53195  -0.52880
 Alpha  occ. eigenvalues --   -0.52617  -0.52300  -0.52243  -0.51916  -0.51576
 Alpha  occ. eigenvalues --   -0.51320  -0.50456  -0.50267  -0.50078  -0.49533
 Alpha  occ. eigenvalues --   -0.49477  -0.49065  -0.48948  -0.48847  -0.48563
 Alpha  occ. eigenvalues --   -0.48437  -0.47953  -0.47864  -0.47742  -0.47679
 Alpha  occ. eigenvalues --   -0.47247  -0.47102  -0.46959  -0.46855  -0.46728
 Alpha  occ. eigenvalues --   -0.46547  -0.46315  -0.45893  -0.45747  -0.45684
 Alpha  occ. eigenvalues --   -0.45358  -0.45187  -0.44979  -0.44933  -0.44720
 Alpha  occ. eigenvalues --   -0.44534  -0.44398  -0.44094  -0.43975  -0.43850
 Alpha  occ. eigenvalues --   -0.43532  -0.43505  -0.43336  -0.43288  -0.43166
 Alpha  occ. eigenvalues --   -0.43007  -0.42930  -0.42728  -0.42518  -0.42460
 Alpha  occ. eigenvalues --   -0.42391  -0.42273  -0.42149  -0.41791  -0.41578
 Alpha  occ. eigenvalues --   -0.41485  -0.41426  -0.41199  -0.41026  -0.40987
 Alpha  occ. eigenvalues --   -0.40848  -0.40728  -0.40522  -0.40248  -0.40186
 Alpha  occ. eigenvalues --   -0.40034  -0.39744  -0.39713  -0.39536  -0.39019
 Alpha  occ. eigenvalues --   -0.38836  -0.38761  -0.38679  -0.38565  -0.38519
 Alpha  occ. eigenvalues --   -0.38318  -0.38242  -0.38070  -0.38044  -0.37677
 Alpha  occ. eigenvalues --   -0.37563  -0.37326  -0.37237  -0.37030  -0.36674
 Alpha  occ. eigenvalues --   -0.36635  -0.36554  -0.36429  -0.36256  -0.36132
 Alpha  occ. eigenvalues --   -0.36094  -0.36016  -0.35918  -0.35849  -0.35714
 Alpha  occ. eigenvalues --   -0.35476  -0.35313  -0.35287  -0.35212  -0.34993
 Alpha  occ. eigenvalues --   -0.34925  -0.34230  -0.33992  -0.33673  -0.33462
 Alpha  occ. eigenvalues --   -0.33114  -0.32759  -0.32747  -0.32324  -0.32309
 Alpha  occ. eigenvalues --   -0.32043  -0.31445  -0.31319  -0.31275  -0.30620
 Alpha  occ. eigenvalues --   -0.30480  -0.30277  -0.29770  -0.29122  -0.29038
 Alpha  occ. eigenvalues --   -0.28815  -0.28528  -0.28161  -0.27324  -0.26469
 Alpha  occ. eigenvalues --   -0.25953  -0.25847  -0.25613  -0.25450  -0.25335
 Alpha  occ. eigenvalues --   -0.25132  -0.24762  -0.24410  -0.20973  -0.20270
 Alpha  occ. eigenvalues --   -0.19205  -0.18480
 Alpha virt. eigenvalues --   -0.11202  -0.10719  -0.05957  -0.04645  -0.04309
 Alpha virt. eigenvalues --   -0.03232  -0.02141  -0.01489  -0.00505  -0.00150
 Alpha virt. eigenvalues --    0.00168   0.01273   0.01653   0.01776   0.02320

 Mulliken charges:
               1
     1  Mg  11.997267
     2  C    5.992892
     3  C    5.995958
     4  C    6.006364
     5  C    6.006636
     6  N    6.994631
     7  C    6.004842
     8  C    5.998481
     9  C    6.000833
    10  C    5.996328
    11  C    6.000792
    12  C    5.999660
    13  C    6.000768
    14  H    0.998797
    15  N    7.001545
    16  C    5.994192
    17  C    5.994992
    18  C    5.998152
    19  C    5.991325
    20  C    5.999912
    21  C    5.997167
    22  O    7.993919
    23  C    6.001984
    24  N    7.006048
    25  C    5.990325
    26  C    6.002170
    27  C    6.000559
    28  C    5.997075
    29  C    5.999883
    30  C    5.998081
    31  C    6.000981
    32  N    7.000896
    33  C    6.000246
    34  C    6.009631
    35  C    5.999373
    36  C    6.003718
    37  C    5.999115
    38  C    6.002306
    39  O    8.004983
    40  C    5.999991
    41  C    6.000886
    42  O    8.000172
    43  O    7.999910
    44  C    5.999844
    45  H    0.995180
    46  H    0.998749
    47  H    1.000356
    48  H    0.998566
    49  H    0.998403
    50  H    1.000155
    51  H    0.998815
    52  H    0.996208
    53  H    1.000630
    54  H    0.998803
    55  H    0.998026
    56  H    0.999904
    57  H    0.995839
    58  H    0.996388
    59  H    0.996885
    60  H    0.998763
    61  H    0.996559
    62  H    0.997790
    63  H    0.998819
    64  H    0.998618
    65  H    0.998807
    66  H    0.997583
    67  H    1.000045
    68  H    1.000252
    69  H    0.998015
    70  H    0.998616
    71  H    1.002814
    72  H    0.999175
    73  H    1.003656
    74  H    1.001189
    75  H    1.002573
    76  H    1.000642
    77  H    1.001250
    78  H    0.999270
    79  H    1.000077
    80  Mg  12.000860
    81  C    6.002511
    82  C    6.000447
    83  C    5.999781
    84  C    6.002114
    85  N    7.002031
    86  C    5.996903
    87  C    6.001091
    88  C    5.998490
    89  C    6.003095
    90  C    5.999443
    91  C    5.999811
    92  C    5.999667
    93  H    1.000772
    94  N    6.998789
    95  C    6.003630
    96  C    6.004025
    97  C    6.001251
    98  C    6.003694
    99  C    5.999347
   100  C    6.001949
   101  O    8.003747
   102  C    5.998815
   103  N    7.000437
   104  C    6.003205
   105  C    5.998652
   106  C    6.001045
   107  C    5.996762
   108  C    5.999565
   109  C    5.999772
   110  C    5.999878
   111  N    7.000362
   112  C    5.995143
   113  C    5.997308
   114  C    6.001476
   115  C    5.996278
   116  C    5.999622
   117  C    6.000484
   118  O    8.003008
   119  C    5.999744
   120  C    6.000188
   121  O    8.000128
   122  O    7.999931
   123  C    5.999637
   124  H    1.002329
   125  H    1.001719
   126  H    1.000589
   127  H    1.001145
   128  H    1.001594
   129  H    1.001950
   130  H    0.999975
   131  H    1.001576
   132  H    0.999320
   133  H    1.000141
   134  H    1.000584
   135  H    1.001092
   136  H    1.002720
   137  H    1.002337
   138  H    1.003132
   139  H    1.001065
   140  H    1.002465
   141  H    1.001398
   142  H    1.001136
   143  H    1.001102
   144  H    0.999916
   145  H    1.001800
   146  H    1.000837
   147  H    1.000166
   148  H    0.999815
   149  H    1.000111
   150  H    1.001187
   151  H    1.000587
   152  H    0.997723
   153  H    1.001028
   154  H    1.001308
   155  H    1.000714
   156  H    1.000454
   157  H    0.999572
   158  H    1.001480
 Sum of Mulliken charges = 624.00000

 Dipole moment (field-independent basis, Debye):
    X=             -4.9153    Y=              0.0944    Z=              0.3899  Tot=              4.9316
 Quadrupole moment (field-independent basis, Debye-Ang):
   XX=             -8.7265   YY=              0.0200   ZZ=              0.6751
   XY=             -2.0344   XZ=              0.4325   YZ=              0.5889

 Normal termination of Gaussian 16 at Thu Oct 14 03:07:23 2021.
