 Gaussian 16, Revision A.03,
 Gaussian 16:  ES64L-G16RevA.03 25-Dec-2016

 --------------------------------------------------------
 #p PBE1PBE/Def2SVP td=(nstates=5) density=(transition=1)
 --------------------------------------------------------

 --------------------------------
 TDDFT excited states in gaussian
 --------------------------------
 Symbolic Z-matrix:
 Charge =  0 Multiplicity = 1

                         Standard orientation:
 ---------------------------------------------------------------------
 Center     Atomic      Atomic             Coordinates (Angstroms)
 Number     Number       Type             X           Y           Z
 ---------------------------------------------------------------------
      1         12           0       23.975542    0.356973   -0.311178
      2          6           0       22.215854   -1.700855    2.038675
      3          6           0       23.233192    3.066172    1.688994
      4          6           0       25.023480    2.256086   -2.754619
      5          6           0       24.397595   -2.491113   -2.240093
      6          7           0       22.573068    0.690105    1.561622
      7          6           0       22.111228   -0.336780    2.339651
      8          6           0       21.664202    0.219034    3.718287
      9          6           0       21.932561    1.777295    3.595344
     10          6           0       22.611700    1.916154    2.184155
     11          6           0       20.687716    2.755095    3.702405
     12          6           0       22.395632   -0.389552    4.944437
     13          6           0       21.572828   -0.776217    6.121526
     14          1           0       20.117222   -0.230329    6.383072
     15          7           0       24.118347    2.439975   -0.548262
     16          6           0       23.896063    3.411962    0.426843
     17          6           0       24.142391    4.742019   -0.162534
     18          6           0       24.780807    4.487236   -1.436711
     19          6           0       24.655999    3.024826   -1.637351
     20          6           0       23.859681    6.061839    0.488901
     21          6           0       25.433679    5.450258   -2.456117
     22          8           0       26.216449    5.105913   -3.366606
     23          6           0       25.253545    6.898293   -2.235162
     24          7           0       24.537736   -0.067438   -2.179593
     25          6           0       24.876085    0.955887   -3.037544
     26          6           0       25.517066    0.405786   -4.341755
     27          6           0       25.641018   -1.140988   -3.982562
     28          6           0       24.821918   -1.258344   -2.708893
     29          6           0       24.775433    0.679750   -5.713322
     30          6           0       27.043018   -1.694394   -3.782610
     31          6           0       27.501987   -2.740523   -4.819929
     32          7           0       23.609210   -1.712934   -0.087260
     33          6           0       23.812309   -2.742083   -0.975934
     34          6           0       23.276303   -3.993808   -0.425338
     35          6           0       22.703061   -3.612922    0.774951
     36          6           0       22.923652   -2.227481    0.941655
     37          6           0       23.260343   -5.358890   -1.029990
     38          6           0       22.021921   -4.154673    1.895333
     39          8           0       21.748437   -5.342824    2.228538
     40          6           0       21.681091   -2.994246    2.730806
     41          6           0       20.208295   -2.991763    3.039462
     42          8           0       19.345397   -2.762695    2.262566
     43          8           0       20.016547   -3.217659    4.338951
     44          6           0       18.716654   -3.564227    4.804432
     45          1           0       23.032086    3.978117    2.255291
     46          1           0       25.438059    2.755655   -3.633693
     47          1           0       24.466344   -3.365550   -2.889292
     48          1           0       20.598783   -0.001063    3.795181
     49          1           0       22.656387    2.089188    4.347671
     50          1           0       19.751776    2.287510    4.006868
     51          1           0       20.496845    3.128800    2.695361
     52          1           0       20.923402    3.602578    4.346803
     53          1           0       23.138549    0.284737    5.372076
     54          1           0       22.925471   -1.310934    4.704439
     55          1           0       22.068416   -0.453644    7.037691
     56          1           0       21.509672   -1.864022    6.126613
     57          1           0       23.232533    6.662743   -0.169299
     58          1           0       24.823624    6.557590    0.603595
     59          1           0       23.519967    5.937165    1.517600
     60          1           0       24.188400    7.112642   -2.323008
     61          1           0       25.746337    7.380890   -3.078827
     62          1           0       25.762936    7.242542   -1.335509
     63          1           0       26.520245    0.832238   -4.371598
     64          1           0       25.181299   -1.690171   -4.804182
     65          1           0       23.869759    1.259916   -5.540168
     66          1           0       24.607071   -0.225576   -6.297796
     67          1           0       25.463041    1.247605   -6.340291
     68          1           0       27.293876   -2.039531   -2.779488
     69          1           0       27.728808   -0.858826   -3.918666
     70          1           0       28.018582   -3.621135   -4.438676
     71          1           0       28.323918   -2.286584   -5.374179
     72          1           0       26.721648   -3.124774   -5.475445
     73          1           0       23.976865   -5.465011   -1.845011
     74          1           0       22.316204   -5.526227   -1.548151
     75          1           0       23.322712   -6.063376   -0.200679
     76          1           0       22.251309   -3.114574    3.651558
     77          1           0       18.547801   -4.595644    4.491768
     78          1           0       17.949892   -2.990852    4.283240
     79          1           0       18.668126   -3.538841    5.893379
     80         12           0      -23.674238    0.547346    0.591641
     81          6           0      -22.158525   -2.575474   -0.510882
     82          6           0      -20.524799    1.914633    0.558013
     83          6           0      -25.066882    3.550974    0.121353
     84          6           0      -26.693007   -1.008681    0.701911
     85          7           0      -21.593783   -0.233151   -0.122180
     86          6           0      -21.212833   -1.581601   -0.460542
     87          6           0      -19.685882   -1.677127   -0.524363
     88          6           0      -19.186790   -0.375996    0.170482
     89          6           0      -20.486174    0.540286    0.247429
     90          6           0      -18.587633   -0.619833    1.635830
     91          6           0      -19.073617   -2.018868   -1.851281
     92          6           0      -19.955262   -1.845735   -3.110573
     93          1           0      -19.527207   -2.064722   -4.573196
     94          7           0      -22.896395    2.514366    0.506941
     95          6           0      -21.561820    2.854620    0.489070
     96          6           0      -21.463010    4.347205    0.522873
     97          6           0      -22.765840    4.775168    0.280691
     98          6           0      -23.668043    3.626926    0.234357
     99          6           0      -20.144371    5.023627    0.652524
    100          6           0      -23.180294    6.261457    0.076131
    101          8           0      -22.296045    7.098711    0.041564
    102          6           0      -24.567150    6.721018   -0.230240
    103          7           0      -25.626691    1.101154    0.281408
    104          6           0      -25.929439    2.462124    0.259045
    105          6           0      -27.440644    2.688087    0.304738
    106          6           0      -27.980956    1.294201    0.789929
    107          6           0      -26.726369    0.432368    0.631218
    108          6           0      -27.988845    3.852810    1.168789
    109          6           0      -29.230294    0.739265    0.033446
    110          6           0      -30.609041    0.779027    0.838303
    111          7           0      -24.340783   -1.411790    0.268700
    112          6           0      -25.625319   -1.907024    0.439814
    113          6           0      -25.593376   -3.345016    0.333401
    114          6           0      -24.285705   -3.587675   -0.108507
    115          6           0      -23.573071   -2.363185   -0.101041
    116          6           0      -26.832543   -4.241605    0.499574
    117          6           0      -23.344475   -4.600231   -0.477323
    118          8           0      -23.578962   -5.825362   -0.499218
    119          6           0      -21.861632   -4.038180   -0.627090
    120          6           0      -21.413390   -4.534876   -1.943335
    121          8           0      -22.031647   -4.460772   -3.010468
    122          8           0      -20.141283   -4.972453   -1.776762
    123          6           0      -19.533506   -5.700848   -2.934230
    124          1           0      -19.525077    2.351987    0.529961
    125          1           0      -25.507647    4.540516   -0.018326
    126          1           0      -27.655205   -1.497129    0.867161
    127          1           0      -19.572441   -2.513097    0.165888
    128          1           0      -18.522599    0.215377   -0.460027
    129          1           0      -17.530497   -0.388290    1.511805
    130          1           0      -18.795776   -1.643889    1.946736
    131          1           0      -19.060838    0.128799    2.272220
    132          1           0      -18.667257   -3.024434   -1.744137
    133          1           0      -18.227232   -1.331378   -1.865916
    134          1           0      -20.328675   -0.823290   -3.045256
    135          1           0      -20.807360   -2.523430   -3.054364
    136          1           0      -19.960363    5.503067   -0.308480
    137          1           0      -19.396702    4.266850    0.888042
    138          1           0      -20.174688    5.715067    1.495331
    139          1           0      -25.013763    6.415872   -1.175795
    140          1           0      -24.635769    7.802460   -0.344325
    141          1           0      -25.084291    6.400617    0.674091
    142          1           0      -27.577424    2.881898   -0.759767
    143          1           0      -28.165847    1.431341    1.855575
    144          1           0      -28.241494    4.742171    0.590570
    145          1           0      -27.219046    4.182021    1.865939
    146          1           0      -28.832096    3.464637    1.741103
    147          1           0      -29.113824   -0.279575   -0.337068
    148          1           0      -29.277921    1.346495   -0.870579
    149          1           0      -31.299898    1.144450    0.078925
    150          1           0      -30.614459    1.432580    1.710752
    151          1           0      -30.770883   -0.224355    1.230559
    152          1           0      -26.633438   -5.247584    0.869644
    153          1           0      -27.172916   -4.307826   -0.533231
    154          1           0      -27.486187   -3.840431    1.273803
    155          1           0      -21.253896   -4.404137    0.201763
    156          1           0      -18.514006   -5.992417   -2.679462
    157          1           0      -19.482517   -5.064572   -3.817979
    158          1           0      -20.207079   -6.549677   -3.043381
 ---------------------------------------------------------------------

 SCF Done:  E(RPBE1PBE) =  -4067.33775266     A.U. after   16 cycles

 Excitation energies and oscillator strengths:

 Excited State   1:      Singlet-A      1.8047 eV  686.99 nm  f=0.3426  <S**2>=0.000
     309 -> 315       -0.15295
     312 -> 314        0.69766
     312 <- 314       -0.11784
 This state for optimization and/or second-order correction.
 Total Energy, E(TD-HF/TD-DFT) =  -4067.27142978
 Copying the excited state density for this state as the 1-particle RhoCI density.

 Excited State   2:      Singlet-A      1.8481 eV  670.87 nm  f=0.0000  <S**2>=0.000
     312 -> 313        0.70711

 Excited State   3:      Singlet-A      1.8640 eV  665.15 nm  f=0.4073  <S**2>=0.000
     310 -> 316       -0.17337
     311 -> 313        0.69404
     311 <- 313       -0.11115

 Excited State   4:      Singlet-A      2.0590 eV  602.17 nm  f=0.0000  <S**2>=0.000
     311 -> 314        0.70711

 Excited State   5:      Singlet-A      2.2041 eV  562.53 nm  f=0.1217  <S**2>=0.000
     310 -> 313        0.66067
     311 -> 316        0.24060

 The electronic state is 1-A.
 Alpha  occ. eigenvalues --  -46.92676 -46.92311 -19.26057 -19.25539 -19.19738
 Alpha  occ. eigenvalues --  -19.19733 -19.19078 -19.19031 -19.18994 -19.17595
 Alpha  occ. eigenvalues --  -14.41960 -14.41539 -14.41164 -14.41144 -14.39346
 Alpha  occ. eigenvalues --  -14.39254 -14.39226 -14.38492 -10.36217 -10.35916
 Alpha  occ. eigenvalues --  -10.32485 -10.32303 -10.31584 -10.30953 -10.29455
 Alpha  occ. eigenvalues --  -10.29361 -10.29266 -10.29255 -10.29007 -10.28888
 Alpha  occ. eigenvalues --  -10.28643 -10.28552 -10.28385 -10.28277 -10.28262
 Alpha  occ. eigenvalues --  -10.28167 -10.27963 -10.27588 -10.27482 -10.27100
 Alpha  occ. eigenvalues --  -10.26748 -10.26725 -10.26476 -10.26435 -10.26381
 Alpha  occ. eigenvalues --  -10.26211 -10.26206 -10.26141 -10.26096 -10.26084
 Alpha  occ. eigenvalues --  -10.25866 -10.25821 -10.25815 -10.25664 -10.25605
 Alpha  occ. eigenvalues --  -10.25562 -10.25458 -10.25426 -10.25295 -10.25117
 Alpha  occ. eigenvalues --  -10.25099 -10.25066 -10.25000 -10.24944 -10.24890
 Alpha  occ. eigenvalues --  -10.24830 -10.24736 -10.24610 -10.24376 -10.24321
 Alpha  occ. eigenvalues --  -10.24305 -10.24297 -10.23978 -10.23898 -10.23815
 Alpha  occ. eigenvalues --  -10.23694 -10.23638 -10.23528 -10.23503 -10.23452
 Alpha  occ. eigenvalues --  -10.23441 -10.23017 -10.22927 -10.22869 -10.22601
 Alpha  occ. eigenvalues --  -10.22013  -3.14745  -3.14468  -1.87556  -1.87291
 Alpha  occ. eigenvalues --   -1.87141  -1.86948  -1.86856  -1.86689  -1.13316
 Alpha  occ. eigenvalues --   -1.10888  -1.05236  -1.04433  -1.03226  -1.02548
 Alpha  occ. eigenvalues --   -1.02364  -1.01611  -0.99676  -0.99348  -0.98771
 Alpha  occ. eigenvalues --   -0.98370  -0.97263  -0.97246  -0.96542  -0.94860
 Alpha  occ. eigenvalues --   -0.87788  -0.86395  -0.83644  -0.83479  -0.83217
 Alpha  occ. eigenvalues --   -0.82879  -0.82743  -0.82702  -0.81903  -0.81300
 Alpha  occ. eigenvalues --   -0.81085  -0.80896  -0.80635  -0.80504  -0.78848
 Alpha  occ. eigenvalues --   -0.78591  -0.78070  -0.77809  -0.76876  -0.76760
 Alpha  occ. eigenvalues --   -0.76586  -0.76354  -0.76038  -0.75337  -0.74860
 Alpha  occ. eigenvalues --   -0.74523  -0.72689  -0.72278  -0.72074  -0.72006
 Alpha  occ. eigenvalues --   -0.71463  -0.70840  -0.70611  -0.70345  -0.69618
 Alpha  occ. eigenvalues --   -0.69529  -0.67552  -0.67536  -0.66078  -0.65977
 Alpha  occ. eigenvalues --   -0.64022  -0.63738  -0.63398  -0.63323  -0.62152
 Alpha  occ. eigenvalues --   -0.61876  -0.61315  -0.60771  -0.60558  -0.60368
 Alpha  occ. eigenvalues --   -0.59793  -0.59450  -0.59255  -0.59253  -0.58973
 Alpha  occ. eigenvalues --   -0.58125  -0.57522  -0.56751  -0.54745  -0.54487
 Alpha  occ. eigenvalues --   -0.54101  -0.53917  -0.53754  -0.53676  -0.53496
 Alpha  occ. eigenvalues --   -0.52805  -0.52511  -0.52375  -0.52034  -0.51799
 Alpha  occ. eigenvalues --   -0.51354  -0.50885  -0.50745  -0.50718  -0.49731
 Alpha  occ. eigenvalues --   -0.49653  -0.49509  -0.49175  -0.48780  -0.48332
 Alpha  occ. eigenvalues --   -0.48304  -0.47988  -0.47765  -0.47762  -0.47644
 Alpha  occ. eigenvalues --   -0.47447  -0.47318  -0.47131  -0.46975  -0.46966
 Alpha  occ. eigenvalues --   -0.46474  -0.46211  -0.46136  -0.45945  -0.45915
 Alpha  occ. eigenvalues --   -0.45830  -0.45798  -0.45498  -0.45319  -0.44758
 Alpha  occ. eigenvalues --   -0.44616  -0.44589  -0.44384  -0.44329  -0.43981
 Alpha  occ. eigenvalues --   -0.43887  -0.43719  -0.43635  -0.43412  -0.43348
 Alpha  occ. eigenvalues --   -0.43267  -0.42986  -0.42984  -0.42942  -0.42802
 Alpha  occ. eigenvalues --   -0.42460  -0.42411  -0.42270  -0.42108  -0.41862
 Alpha  occ. eigenvalues --   -0.41556  -0.41556  -0.41506  -0.41363  -0.41233
 Alpha  occ. eigenvalues --   -0.40994  -0.40938  -0.40905  -0.40625  -0.40484
 Alpha  occ. eigenvalues --   -0.40455  -0.40217  -0.40072  -0.39932  -0.39700
 Alpha  occ. eigenvalues --   -0.39548  -0.39301  -0.39282  -0.39101  -0.38811
 Alpha  occ. eigenvalues --   -0.38723  -0.38468  -0.38340  -0.38321  -0.38222
 Alpha  occ. eigenvalues --   -0.38016  -0.37657  -0.37611  -0.37562  -0.37432
 Alpha  occ. eigenvalues --   -0.37363  -0.37066  -0.37033  -0.36855  -0.36785
 Alpha  occ. eigenvalues --   -0.36657  -0.36609  -0.36511  -0.36306  -0.36132
 Alpha  occ. eigenvalues --   -0.35954  -0.35831  -0.35742  -0.35199  -0.34962
 Alpha  occ. eigenvalues --   -0.34894  -0.34644  -0.34322  -0.34031  -0.33944
 Alpha  occ. eigenvalues --   -0.33377  -0.33207  -0.32874  -0.32407  -0.32149
 Alpha  occ. eigenvalues --   -0.31999  -0.31581  -0.31382  -0.31380  -0.31252
 Alpha  occ. eigenvalues --   -0.30904  -0.30858  -0.29492  -0.29265  -0.29259
 Alpha  occ. eigenvalues --   -0.29041  -0.28501  -0.28297  -0.27100  -0.27089
 Alpha  occ. eigenvalues --   -0.26133  -0.26033  -0.25829  -0.25682  -0.25396
 Alpha  occ. eigenvalues --   -0.25328  -0.25270  -0.24288  -0.21260  -0.21014
 Alpha  occ. eigenvalues --   -0.18937  -0.18450
 Alpha virt. eigenvalues --   -0.11381  -0.11091  -0.05295  -0.05052  -0.04363
 Alpha virt. eigenvalues --   -0.03119  -0.02394  -0.02005  -0.01391  -0.00516
 Alpha virt. eigenvalues --    0.00169   0.01028   0.01172   0.01652   0.01729

 Mulliken charges:
               1
     1  Mg  12.000006
     2  C    5.999932
     3  C    5.999950
     4  C    6.000086
     5  C    6.000085
     6  N    6.999984
     7  C    6.000074
     8  C    5.999975
     9  C    6.000023
    10  C    5.999939
    11  C    6.000017
    12  C    5.999982
    13  C    6.000013
    14  H    0.999968
    15  N    6.999982
    16  C    5.999891
    17  C    5.999917
    18  C    5.999941
    19  C    5.999889
    20  C    6.000021
    21  C    5.999934
    22  O    7.999899
    23  C    6.000036
    24  N    6.999997
    25  C    5.999905
    26  C    6.000039
    27  C    5.999988
    28  C    6.000058
    29  C    5.999991
    30  C    5.999955
    31  C    5.999983
    32  N    7.000027
    33  C    6.000048
    34  C    6.000163
    35  C    5.999956
    36  C    6.000112
    37  C    5.999979
    38  C    6.000084
    39  O    8.000144
    40  C    5.999984
    41  C    6.000015
    42  O    8.000001
    43  O    8.000009
    44  C    5.999995
    45  H    0.999935
    46  H    0.999982
    47  H    1.000069
    48  H    0.999978
    49  H    0.999998
    50  H    0.999925
    51  H    0.999993
    52  H    0.999975
    53  H    1.000038
    54  H    0.999996
    55  H    1.000020
    56  H    1.000000
    57  H    0.999896
    58  H    0.999938
    59  H    0.999923
    60  H    0.999938
    61  H    0.999943
    62  H    0.999974
    63  H    1.000017
    64  H    1.000014
    65  H    0.999989
    66  H    0.999981
    67  H    1.000013
    68  H    1.000002
    69  H    1.000060
    70  H    1.000026
    71  H    1.000036
    72  H    1.000012
    73  H    1.000091
    74  H    1.000100
    75  H    1.000084
    76  H    1.000047
    77  H    1.000025
    78  H    0.999985
    79  H    1.000021
    80  Mg  12.000288
    81  C    6.027424
    82  C    6.008881
    83  C    5.968903
    84  C    5.992084
    85  N    7.023611
    86  C    5.974315
    87  C    6.003560
    88  C    5.997855
    89  C    6.011925
    90  C    5.997985
    91  C    6.001356
    92  C    6.005890
    93  H    0.998012
    94  N    6.991811
    95  C    6.031700
    96  C    6.026941
    97  C    6.001959
    98  C    6.045159
    99  C    5.995500
   100  C    6.011876
   101  O    8.015858
   102  C    5.998222
   103  N    6.991463
   104  C    6.039307
   105  C    5.989812
   106  C    6.011423
   107  C    5.968120
   108  C    6.000076
   109  C    6.006463
   110  C    5.998015
   111  N    6.999625
   112  C    5.969447
   113  C    5.976258
   114  C    5.998546
   115  C    5.964347
   116  C    5.998740
   117  C    5.983799
   118  O    7.967707
   119  C    5.992981
   120  C    5.996110
   121  O    7.998900
   122  O    7.997739
   123  C    5.999896
   124  H    1.013283
   125  H    1.005121
   126  H    0.984285
   127  H    1.004866
   128  H    0.999212
   129  H    1.004997
   130  H    1.013905
   131  H    0.997214
   132  H    1.002796
   133  H    0.992219
   134  H    0.990090
   135  H    1.006836
   136  H    1.017437
   137  H    1.014267
   138  H    1.017971
   139  H    1.010279
   140  H    1.010921
   141  H    1.007525
   142  H    1.000485
   143  H    0.993343
   144  H    0.997168
   145  H    0.995111
   146  H    1.008772
   147  H    1.005414
   148  H    0.991108
   149  H    0.995169
   150  H    0.994385
   151  H    1.002516
   152  H    0.985116
   153  H    0.984509
   154  H    0.986985
   155  H    0.994246
   156  H    0.995442
   157  H    0.995955
   158  H    1.001164
 Sum of Mulliken charges = 624.00000

 Dipole moment (field-independent basis, Debye):
    X=              4.6312    Y=              8.8583    Z=              0.4329  Tot=             10.0053
 Quadrupole moment (field-independent basis, Debye-Ang):
   XX=           -219.6960   YY=              8.6157   ZZ=             -0.5798
   XY=           -207.7881   XZ=             -5.7041   YZ=              0.9569

 Normal termination of Gaussian 16 at Fri Oct 15 09:23:01 2021.
