 Gaussian 16, Revision A.03,
 Gaussian 16:  ES64L-G16RevA.03 25-Dec-2016

 --------------------------------------------------------
 #p PBE1PBE/Def2SVP td=(nstates=5) density=(transition=1)
 --------------------------------------------------------

 --------------------------------
 TDDFT excited states in gaussian
 --------------------------------
 Symbolic Z-matrix:
 Charge =  0 Multiplicity = 1

                         Standard orientation:
 ---------------------------------------------------------------------
 Center     Atomic      Atomic             Coordinates (Angstroms)
 Number     Number       Type             X           Y           Z
 ---------------------------------------------------------------------
      1         12           0        8.936646    0.599549   -0.174795
      2          6           0        6.590234   -1.989438   -0.893953
      3          6           0        6.624378    2.716175   -1.263508
      4          6           0       10.596355    3.109392    1.363890
      5          6           0       10.665983   -1.855135    1.744610
      6          7           0        6.973270    0.384968   -1.064038
      7          6           0        6.212777   -0.767299   -1.358905
      8          6           0        4.843220   -0.442355   -2.034239
      9          6           0        4.937162    1.103102   -2.178244
     10          6           0        6.303992    1.439320   -1.545241
     11          6           0        4.756557    1.439307   -3.667897
     12          6           0        3.521258   -0.896361   -1.277181
     13          6           0        2.675228   -1.966918   -1.956638
     14          1           0        1.195447   -1.632304   -2.234402
     15          7           0        8.734801    2.601436   -0.041001
     16          6           0        7.660249    3.308559   -0.580054
     17          6           0        7.864201    4.694218   -0.445885
     18          6           0        9.081415    4.889450    0.180278
     19          6           0        9.535818    3.563978    0.549072
     20          6           0        6.948021    5.877674   -0.932641
     21          6           0        9.676327    6.258001    0.415738
     22          8           0        9.216561    7.273864   -0.014138
     23          6           0       11.088251    6.274361    1.183781
     24          7           0       10.371748    0.646401    1.391860
     25          6           0       10.925223    1.825344    1.811170
     26          6           0       11.870855    1.481590    3.033838
     27          6           0       12.010087   -0.048804    3.091540
     28          6           0       10.935134   -0.471830    2.019103
     29          6           0       13.153838    2.261828    3.080415
     30          6           0       11.575575   -0.546965    4.464306
     31          6           0       12.104774   -1.883012    4.913646
     32          7           0        8.845753   -1.557527    0.142942
     33          6           0        9.624817   -2.386638    0.914206
     34          6           0        9.205999   -3.732833    0.764352
     35          6           0        8.023516   -3.704044   -0.012258
     36          6           0        7.804631   -2.317938   -0.251372
     37          6           0        9.767554   -4.928698    1.422620
     38          6           0        6.903758   -4.429786   -0.626953
     39          8           0        6.712002   -5.652071   -0.679586
     40          6           0        5.926093   -3.363108   -1.253864
     41          6           0        5.973114   -3.465684   -2.688066
     42          8           0        6.952778   -3.028931   -3.337279
     43          8           0        4.860571   -4.116971   -3.080382
     44          6           0        4.554475   -4.191417   -4.535298
     45          1           0        5.902380    3.439675   -1.648757
     46          1           0       11.151214    3.948040    1.789905
     47          1           0       11.227463   -2.666071    2.212503
     48          1           0        4.807279   -0.892081   -3.026439
     49          1           0        4.186929    1.640717   -1.599193
     50          1           0        4.986825    2.498329   -3.780649
     51          1           0        3.762007    1.265647   -4.078548
     52          1           0        5.436375    0.874080   -4.306434
     53          1           0        2.884467   -0.012538   -1.315930
     54          1           0        3.752556   -1.159076   -0.244854
     55          1           0        2.736847   -2.865479   -1.341767
     56          1           0        3.098045   -2.186942   -2.937535
     57          1           0        6.783022    6.500293   -0.053074
     58          1           0        5.988855    5.522895   -1.309458
     59          1           0        7.314767    6.441690   -1.790206
     60          1           0       11.420471    7.311843    1.162127
     61          1           0       11.693846    5.586693    0.592992
     62          1           0       10.812604    5.889208    2.165456
     63          1           0       11.291615    1.817519    3.894638
     64          1           0       12.996045   -0.461954    2.878935
     65          1           0       13.909150    1.647974    3.570359
     66          1           0       12.931778    3.165366    3.648576
     67          1           0       13.483968    2.645262    2.115670
     68          1           0       10.492352   -0.578785    4.584960
     69          1           0       11.820943    0.161662    5.255318
     70          1           0       12.904386   -2.259371    4.275880
     71          1           0       11.276658   -2.591737    4.892491
     72          1           0       12.356030   -1.861663    5.974033
     73          1           0       10.827585   -4.805261    1.646683
     74          1           0        9.620179   -5.745367    0.715497
     75          1           0        9.219352   -5.026056    2.359968
     76          1           0        4.916608   -3.371304   -0.842773
     77          1           0        4.077219   -5.171562   -4.577403
     78          1           0        5.428449   -4.093052   -5.178515
     79          1           0        3.728036   -3.532606   -4.804006
     80         12           0       -8.914349    0.357106   -0.113204
     81          6           0       -6.711716   -2.489850   -0.261659
     82          6           0       -6.919285    1.967869   -2.253522
     83          6           0      -10.492304    3.177773    0.772596
     84          6           0      -10.605120   -1.315629    2.465072
     85          7           0       -7.037806   -0.187031   -1.069401
     86          6           0       -6.411197   -1.441774   -1.158118
     87          6           0       -5.291061   -1.447283   -2.267091
     88          6           0       -5.358461    0.008900   -2.818953
     89          6           0       -6.549021    0.632836   -2.043282
     90          6           0       -4.111408    0.849073   -2.709552
     91          6           0       -5.499896   -2.622603   -3.364471
     92          6           0       -4.282636   -3.527041   -3.593425
     93          1           0       -3.772731   -3.548254   -5.082352
     94          7           0       -8.819428    2.291324   -0.773268
     95          6           0       -7.937867    2.783619   -1.649444
     96          6           0       -8.131328    4.219396   -1.859723
     97          6           0       -9.127673    4.575092   -0.886215
     98          6           0       -9.526178    3.330034   -0.221301
     99          6           0       -7.372213    5.003055   -2.842501
    100          6           0       -9.560751    6.044382   -0.585466
    101          8           0      -10.455360    6.306228    0.201079
    102          6           0       -8.933010    7.226248   -1.252930
    103          7           0      -10.299662    0.821946    1.356925
    104          6           0      -10.908684    2.069564    1.438940
    105          6           0      -12.036025    2.072967    2.523040
    106          6           0      -12.271169    0.538457    2.784411
    107          6           0      -11.022743   -0.047467    2.125254
    108          6           0      -11.839315    2.984218    3.778164
    109          6           0      -13.568448   -0.024908    2.142254
    110          6           0      -14.378792   -1.035406    2.914234
    111          7           0       -8.697989   -1.491034    0.950958
    112          6           0       -9.458546   -2.013722    1.958090
    113          6           0       -8.994849   -3.444931    2.225398
    114          6           0       -7.964279   -3.683669    1.348666
    115          6           0       -7.772434   -2.446008    0.643927
    116          6           0       -9.694123   -4.361137    3.203675
    117          6           0       -6.962769   -4.624206    0.878702
    118          8           0       -6.836124   -5.787429    1.315023
    119          6           0       -5.989969   -3.827360   -0.178948
    120          6           0       -4.567478   -3.621463    0.298203
    121          8           0       -4.334192   -3.079984    1.396943
    122          8           0       -3.631373   -4.252706   -0.521951
    123          6           0       -2.341800   -4.420458    0.137911
    124          1           0       -6.377815    2.515507   -3.027434
    125          1           0      -10.998204    4.128384    0.952011
    126          1           0      -11.254839   -1.815048    3.187454
    127          1           0       -4.391931   -1.659119   -1.688813
    128          1           0       -5.431451   -0.112268   -3.900611
    129          1           0       -3.293792    0.339951   -2.199083
    130          1           0       -4.461935    1.589437   -1.991259
    131          1           0       -3.731194    1.185038   -3.674733
    132          1           0       -5.774220   -2.065858   -4.260076
    133          1           0       -6.394718   -3.189606   -3.109137
    134          1           0       -4.552221   -4.512206   -3.212804
    135          1           0       -3.447706   -3.160488   -2.994871
    136          1           0       -6.810310    5.881321   -2.526212
    137          1           0       -8.136688    5.517453   -3.423689
    138          1           0       -6.850626    4.422843   -3.604001
    139          1           0       -9.137004    7.090555   -2.315716
    140          1           0       -7.856057    7.122053   -1.118019
    141          1           0       -9.377857    8.100890   -0.780017
    142          1           0      -12.901756    2.464969    1.989184
    143          1           0      -12.195495    0.270945    3.838098
    144          1           0      -10.943258    3.560707    3.549409
    145          1           0      -11.790281    2.442435    4.722278
    146          1           0      -12.590931    3.772554    3.835036
    147          1           0      -13.108658   -0.473990    1.262111
    148          1           0      -14.266810    0.730943    1.782398
    149          1           0      -15.419352   -0.742332    2.774297
    150          1           0      -14.182948   -1.012762    3.986742
    151          1           0      -14.280065   -1.974334    2.368913
    152          1           0      -10.502442   -3.787996    3.657436
    153          1           0       -8.998105   -4.587545    4.011078
    154          1           0       -9.995095   -5.277085    2.695591
    155          1           0       -6.032315   -4.344676   -1.137436
    156          1           0       -2.075118   -5.446960    0.385599
    157          1           0       -2.224320   -3.826550    1.044430
    158          1           0       -1.594690   -4.047434   -0.562175
 ---------------------------------------------------------------------

 SCF Done:  E(RPBE1PBE) =  -4067.36388461     A.U. after   16 cycles

 Excitation energies and oscillator strengths:

 Excited State   1:      Singlet-A      1.7544 eV  706.71 nm  f=0.0000  <S**2>=0.000
     312 -> 313        0.70709
 This state for optimization and/or second-order correction.
 Total Energy, E(TD-HF/TD-DFT) =  -4067.29941236
 Copying the excited state density for this state as the 1-particle RhoCI density.

 Excited State   2:      Singlet-A      1.8501 eV  670.14 nm  f=0.1706  <S**2>=0.000
     310 -> 316        0.15755
     311 -> 313       -0.22000
     312 -> 314        0.66059
     312 <- 314       -0.10794

 Excited State   3:      Singlet-A      1.8708 eV  662.75 nm  f=0.5785  <S**2>=0.000
     309 -> 315       -0.15910
     311 -> 313        0.65839
     312 -> 314        0.22004
     311 <- 313       -0.10419

 Excited State   4:      Singlet-A      1.9580 eV  633.21 nm  f=0.0000  <S**2>=0.000
     311 -> 314        0.70708

 Excited State   5:      Singlet-A      2.2656 eV  547.24 nm  f=0.1229  <S**2>=0.000
     309 -> 313        0.64381
     311 -> 315        0.26580

 The electronic state is 1-A.
 Alpha  occ. eigenvalues --  -46.92026 -46.91889 -19.27312 -19.27274 -19.21016
 Alpha  occ. eigenvalues --  -19.20093 -19.20066 -19.19796 -19.19240 -19.18946
 Alpha  occ. eigenvalues --  -14.42154 -14.42065 -14.41853 -14.41309 -14.39344
 Alpha  occ. eigenvalues --  -14.39177 -14.39153 -14.38332 -10.37785 -10.36644
 Alpha  occ. eigenvalues --  -10.33611 -10.32803 -10.32575 -10.32265 -10.30226
 Alpha  occ. eigenvalues --  -10.29555 -10.29377 -10.29321 -10.28894 -10.28893
 Alpha  occ. eigenvalues --  -10.28609 -10.28523 -10.28332 -10.28083 -10.28077
 Alpha  occ. eigenvalues --  -10.28038 -10.27683 -10.27504 -10.27456 -10.27124
 Alpha  occ. eigenvalues --  -10.26852 -10.26797 -10.26764 -10.26612 -10.26482
 Alpha  occ. eigenvalues --  -10.26469 -10.26342 -10.26155 -10.26021 -10.26009
 Alpha  occ. eigenvalues --  -10.25850 -10.25772 -10.25720 -10.25708 -10.25654
 Alpha  occ. eigenvalues --  -10.25450 -10.25410 -10.25270 -10.25191 -10.25149
 Alpha  occ. eigenvalues --  -10.25135 -10.25121 -10.24994 -10.24945 -10.24724
 Alpha  occ. eigenvalues --  -10.24709 -10.24622 -10.24425 -10.24221 -10.24004
 Alpha  occ. eigenvalues --  -10.23647 -10.23637 -10.23599 -10.23588 -10.23535
 Alpha  occ. eigenvalues --  -10.23514 -10.23476 -10.23366 -10.23314 -10.23167
 Alpha  occ. eigenvalues --  -10.23112 -10.23096 -10.23011 -10.22921 -10.22892
 Alpha  occ. eigenvalues --  -10.22681  -3.14197  -3.14114  -1.87014  -1.86936
 Alpha  occ. eigenvalues --   -1.86552  -1.86473  -1.86447  -1.86365  -1.11569
 Alpha  occ. eigenvalues --   -1.11030  -1.06673  -1.05030  -1.03700  -1.03649
 Alpha  occ. eigenvalues --   -1.02682  -1.02332  -0.98774  -0.98652  -0.98063
 Alpha  occ. eigenvalues --   -0.97955  -0.97575  -0.97320  -0.96606  -0.96456
 Alpha  occ. eigenvalues --   -0.86949  -0.86739  -0.84026  -0.83736  -0.83506
 Alpha  occ. eigenvalues --   -0.83129  -0.83062  -0.82455  -0.81729  -0.81708
 Alpha  occ. eigenvalues --   -0.81647  -0.81102  -0.80910  -0.80465  -0.79175
 Alpha  occ. eigenvalues --   -0.78672  -0.78671  -0.77974  -0.77679  -0.77054
 Alpha  occ. eigenvalues --   -0.76259  -0.76243  -0.75596  -0.75562  -0.74617
 Alpha  occ. eigenvalues --   -0.74594  -0.72896  -0.72167  -0.71959  -0.71750
 Alpha  occ. eigenvalues --   -0.71295  -0.71023  -0.70695  -0.70553  -0.69531
 Alpha  occ. eigenvalues --   -0.69233  -0.67353  -0.66925  -0.66262  -0.65528
 Alpha  occ. eigenvalues --   -0.63681  -0.63479  -0.63089  -0.62860  -0.62363
 Alpha  occ. eigenvalues --   -0.62299  -0.61742  -0.61273  -0.60208  -0.60065
 Alpha  occ. eigenvalues --   -0.59815  -0.59616  -0.59549  -0.59512  -0.59260
 Alpha  occ. eigenvalues --   -0.58956  -0.57194  -0.56962  -0.54989  -0.54727
 Alpha  occ. eigenvalues --   -0.54363  -0.54324  -0.54036  -0.53356  -0.53204
 Alpha  occ. eigenvalues --   -0.53143  -0.52966  -0.52927  -0.52021  -0.51909
 Alpha  occ. eigenvalues --   -0.51032  -0.50934  -0.50673  -0.49977  -0.49722
 Alpha  occ. eigenvalues --   -0.49674  -0.49412  -0.49352  -0.48972  -0.48560
 Alpha  occ. eigenvalues --   -0.48443  -0.48247  -0.47861  -0.47771  -0.47542
 Alpha  occ. eigenvalues --   -0.47303  -0.47064  -0.46958  -0.46819  -0.46522
 Alpha  occ. eigenvalues --   -0.46335  -0.46267  -0.46259  -0.46112  -0.45990
 Alpha  occ. eigenvalues --   -0.45934  -0.45806  -0.45370  -0.45234  -0.45133
 Alpha  occ. eigenvalues --   -0.44976  -0.44944  -0.44610  -0.44432  -0.44205
 Alpha  occ. eigenvalues --   -0.44012  -0.43961  -0.43851  -0.43663  -0.43471
 Alpha  occ. eigenvalues --   -0.43373  -0.43127  -0.43070  -0.43026  -0.42854
 Alpha  occ. eigenvalues --   -0.42835  -0.42679  -0.42267  -0.42092  -0.41987
 Alpha  occ. eigenvalues --   -0.41760  -0.41753  -0.41589  -0.41258  -0.41242
 Alpha  occ. eigenvalues --   -0.41092  -0.40896  -0.40889  -0.40753  -0.40523
 Alpha  occ. eigenvalues --   -0.40426  -0.40153  -0.40134  -0.40031  -0.39688
 Alpha  occ. eigenvalues --   -0.39591  -0.39394  -0.39232  -0.39166  -0.38971
 Alpha  occ. eigenvalues --   -0.38966  -0.38943  -0.38683  -0.38488  -0.38483
 Alpha  occ. eigenvalues --   -0.38405  -0.38221  -0.37986  -0.37975  -0.37896
 Alpha  occ. eigenvalues --   -0.37769  -0.37671  -0.37546  -0.37476  -0.37257
 Alpha  occ. eigenvalues --   -0.36904  -0.36731  -0.36706  -0.36656  -0.36637
 Alpha  occ. eigenvalues --   -0.36100  -0.35719  -0.35664  -0.35581  -0.35246
 Alpha  occ. eigenvalues --   -0.35197  -0.35180  -0.34517  -0.34198  -0.34132
 Alpha  occ. eigenvalues --   -0.33564  -0.33389  -0.33234  -0.32892  -0.32762
 Alpha  occ. eigenvalues --   -0.32567  -0.32353  -0.32302  -0.31886  -0.31605
 Alpha  occ. eigenvalues --   -0.31228  -0.31219  -0.29865  -0.29716  -0.29497
 Alpha  occ. eigenvalues --   -0.29232  -0.28672  -0.28616  -0.27477  -0.27164
 Alpha  occ. eigenvalues --   -0.26419  -0.26231  -0.25945  -0.25874  -0.25678
 Alpha  occ. eigenvalues --   -0.25584  -0.25509  -0.24833  -0.21256  -0.21140
 Alpha  occ. eigenvalues --   -0.18958  -0.18529
 Alpha virt. eigenvalues --   -0.11319  -0.11005  -0.05328  -0.04924  -0.04347
 Alpha virt. eigenvalues --   -0.03816  -0.02329  -0.01767  -0.01748  -0.00877
 Alpha virt. eigenvalues --   -0.00602  -0.00172   0.00189   0.00241   0.01127

 Mulliken charges:
               1
     1  Mg  11.999999
     2  C    6.000004
     3  C    6.000002
     4  C    5.999998
     5  C    5.999987
     6  N    6.999992
     7  C    6.000008
     8  C    5.999998
     9  C    6.000005
    10  C    5.999989
    11  C    6.000000
    12  C    6.000000
    13  C    5.999994
    14  H    0.999990
    15  N    6.999998
    16  C    5.999987
    17  C    5.999990
    18  C    5.999993
    19  C    5.999991
    20  C    6.000001
    21  C    5.999997
    22  O    7.999992
    23  C    5.999998
    24  N    6.999994
    25  C    5.999994
    26  C    6.000001
    27  C    5.999998
    28  C    6.000010
    29  C    6.000000
    30  C    5.999998
    31  C    6.000000
    32  N    7.000003
    33  C    6.000010
    34  C    6.000005
    35  C    6.000000
    36  C    6.000003
    37  C    6.000001
    38  C    6.000007
    39  O    8.000010
    40  C    6.000001
    41  C    6.000000
    42  O    8.000004
    43  O    8.000001
    44  C    6.000000
    45  H    0.999997
    46  H    0.999997
    47  H    1.000000
    48  H    1.000001
    49  H    0.999999
    50  H    1.000002
    51  H    0.999996
    52  H    0.999997
    53  H    1.000006
    54  H    1.000001
    55  H    0.999999
    56  H    1.000001
    57  H    0.999996
    58  H    0.999994
    59  H    0.999995
    60  H    0.999996
    61  H    0.999998
    62  H    0.999998
    63  H    1.000000
    64  H    1.000000
    65  H    0.999997
    66  H    1.000001
    67  H    1.000001
    68  H    1.000000
    69  H    1.000003
    70  H    1.000000
    71  H    0.999998
    72  H    1.000001
    73  H    1.000005
    74  H    1.000003
    75  H    1.000005
    76  H    1.000004
    77  H    1.000001
    78  H    1.000001
    79  H    1.000002
    80  Mg  12.000000
    81  C    5.999999
    82  C    6.000009
    83  C    6.000001
    84  C    5.999994
    85  N    6.999999
    86  C    6.000006
    87  C    6.000008
    88  C    5.999998
    89  C    5.999999
    90  C    6.000026
    91  C    5.999998
    92  C    6.000000
    93  H    1.000004
    94  N    7.000002
    95  C    5.999991
    96  C    6.000002
    97  C    5.999999
    98  C    5.999998
    99  C    6.000001
   100  C    6.000001
   101  O    7.999996
   102  C    6.000001
   103  N    6.999998
   104  C    6.000000
   105  C    6.000001
   106  C    5.999998
   107  C    6.000014
   108  C    6.000000
   109  C    6.000000
   110  C    6.000000
   111  N    7.000001
   112  C    6.000015
   113  C    6.000009
   114  C    6.000005
   115  C    6.000010
   116  C    5.999999
   117  C    6.000003
   118  O    8.000011
   119  C    6.000000
   120  C    6.000002
   121  O    8.000002
   122  O    8.000002
   123  C    6.000003
   124  H    1.000000
   125  H    0.999997
   126  H    1.000002
   127  H    0.999996
   128  H    1.000003
   129  H    0.999965
   130  H    0.999998
   131  H    0.999998
   132  H    1.000004
   133  H    0.999999
   134  H    0.999999
   135  H    0.999988
   136  H    0.999996
   137  H    0.999997
   138  H    0.999996
   139  H    0.999999
   140  H    0.999999
   141  H    0.999997
   142  H    1.000000
   143  H    1.000000
   144  H    1.000001
   145  H    0.999998
   146  H    1.000000
   147  H    1.000000
   148  H    1.000003
   149  H    1.000001
   150  H    1.000000
   151  H    0.999999
   152  H    1.000004
   153  H    1.000005
   154  H    1.000005
   155  H    1.000002
   156  H    1.000000
   157  H    1.000001
   158  H    0.999995
 Sum of Mulliken charges = 624.00000

 Dipole moment (field-independent basis, Debye):
    X=             -0.0048    Y=             -0.0054    Z=              0.0010  Tot=              0.0073
 Quadrupole moment (field-independent basis, Debye-Ang):
   XX=              0.0038   YY=             -0.0042   ZZ=              0.0013
   XY=             -0.0131   XZ=             -0.0078   YZ=             -0.0012

 Normal termination of Gaussian 16 at Thu Oct 14 20:18:47 2021.
