 Gaussian 16, Revision A.03,
 Gaussian 16:  ES64L-G16RevA.03 25-Dec-2016

 --------------------------------------------------------
 #p PBE1PBE/Def2SVP td=(nstates=5) density=(transition=1)
 --------------------------------------------------------

 --------------------------------
 TDDFT excited states in gaussian
 --------------------------------
 Symbolic Z-matrix:
 Charge =  0 Multiplicity = 1

                         Standard orientation:
 ---------------------------------------------------------------------
 Center     Atomic      Atomic             Coordinates (Angstroms)
 Number     Number       Type             X           Y           Z
 ---------------------------------------------------------------------
      1         12           0       24.660622   -0.804145    0.233761
      2          6           0       24.638034    2.420079   -1.059977
      3          6           0       24.469680    0.670377    3.367289
      4          6           0       25.194160   -3.897054    1.543529
      5          6           0       25.022260   -2.054446   -2.969653
      6          7           0       24.620667    1.311579    1.053108
      7          6           0       24.581312    2.497347    0.335459
      8          6           0       24.600346    3.791343    1.240491
      9          6           0       24.874098    3.130718    2.647016
     10          6           0       24.684851    1.596072    2.357371
     11          6           0       26.206038    3.340889    3.373150
     12          6           0       23.285131    4.579422    1.099880
     13          6           0       23.339969    5.875062    0.334069
     14          1           0       22.458125    7.024943    0.852422
     15          7           0       24.624487   -1.584201    2.154395
     16          6           0       24.454961   -0.800808    3.253137
     17          6           0       24.516651   -1.721518    4.405040
     18          6           0       24.820616   -3.009757    3.937884
     19          6           0       24.883304   -2.910453    2.531453
     20          6           0       24.164911   -1.263158    5.762085
     21          6           0       25.078291   -4.278359    4.696958
     22          8           0       25.233922   -5.401649    4.142333
     23          6           0       25.207664   -4.344734    6.118690
     24          7           0       24.962971   -2.668732   -0.570450
     25          6           0       25.129561   -3.805073    0.159976
     26          6           0       25.352587   -5.011550   -0.664236
     27          6           0       25.240587   -4.453403   -2.128392
     28          6           0       25.132046   -2.997280   -1.871993
     29          6           0       26.599097   -5.931963   -0.510660
     30          6           0       24.089028   -5.116831   -3.034047
     31          6           0       22.606563   -4.639550   -3.008758
     32          7           0       24.846118   -0.051634   -1.647623
     33          6           0       24.947751   -0.672804   -2.859050
     34          6           0       24.805873    0.258544   -3.891364
     35          6           0       24.770421    1.522082   -3.184970
     36          6           0       24.769632    1.261984   -1.829043
     37          6           0       24.705058   -0.008510   -5.392014
     38          6           0       24.580072    2.925423   -3.414955
     39          8           0       24.354853    3.606232   -4.394812
     40          6           0       24.723690    3.592813   -2.002302
     41          6           0       26.014042    4.304540   -1.912315
     42          8           0       26.982260    3.998812   -1.182015
     43          8           0       26.124564    5.369957   -2.735561
     44          6           0       27.280369    6.316896   -2.575185
     45          1           0       24.474216    1.142248    4.351412
     46          1           0       25.406831   -4.906769    1.901407
     47          1           0       24.959366   -2.380599   -4.010385
     48          1           0       25.528195    4.354099    1.132789
     49          1           0       24.057781    3.464833    3.287327
     50          1           0       26.778281    2.412954    3.384914
     51          1           0       25.957125    3.475212    4.424782
     52          1           0       26.827423    4.151703    2.991371
     53          1           0       23.008316    4.848923    2.119790
     54          1           0       22.520240    3.898184    0.727112
     55          1           0       23.030490    5.661378   -0.689335
     56          1           0       24.333011    6.307527    0.211028
     57          1           0       23.291124   -1.853003    6.035975
     58          1           0       23.944662   -0.209124    5.936076
     59          1           0       24.973275   -1.509515    6.450482
     60          1           0       25.845364   -3.502658    6.386379
     61          1           0       25.473515   -5.351931    6.436987
     62          1           0       24.269814   -4.087190    6.610903
     63          1           0       24.462685   -5.575287   -0.385805
     64          1           0       26.192529   -4.592214   -2.639521
     65          1           0       26.332666   -6.925009   -0.148649
     66          1           0       27.297493   -5.530031    0.224148
     67          1           0       27.188000   -6.019769   -1.423596
     68          1           0       24.072798   -6.141042   -2.660842
     69          1           0       24.560243   -5.070335   -4.015944
     70          1           0       22.420889   -3.719991   -2.454349
     71          1           0       21.861844   -5.401365   -2.776509
     72          1           0       22.384347   -4.454978   -4.058964
     73          1           0       25.473123    0.524746   -5.953185
     74          1           0       23.752585    0.397173   -5.732679
     75          1           0       24.685767   -1.064022   -5.664623
     76          1           0       23.996987    4.403900   -1.952930
     77          1           0       26.865953    7.128387   -3.173549
     78          1           0       28.234824    5.949137   -2.950407
     79          1           0       27.402658    6.572161   -1.522120
     80         12           0      -25.443660   -0.386556   -0.447619
     81          6           0      -23.274331    2.342719   -0.188373
     82          6           0      -27.475179    1.148199    1.881371
     83          6           0      -27.210597   -3.289475   -0.128147
     84          6           0      -23.002302   -2.060481   -2.245041
     85          7           0      -25.378231    1.536150    0.594374
     86          6           0      -24.528959    2.548578    0.377484
     87          6           0      -24.965088    3.892147    0.979980
     88          6           0      -26.233581    3.461977    1.812017
     89          6           0      -26.477676    1.920500    1.343624
     90          6           0      -26.149685    3.594485    3.347952
     91          6           0      -25.231360    4.994395   -0.045435
     92          6           0      -25.032807    6.412357    0.520283
     93          1           0      -24.632288    6.584459    1.992310
     94          7           0      -27.166144   -0.974503    0.613266
     95          6           0      -27.917574   -0.161776    1.493151
     96          6           0      -29.058836   -0.925973    1.955264
     97          6           0      -28.965265   -2.266524    1.424712
     98          6           0      -27.778058   -2.222979    0.572487
     99          6           0      -30.144314   -0.280352    2.771832
    100          6           0      -29.973584   -3.496661    1.536094
    101          8           0      -29.844372   -4.528481    0.923114
    102          6           0      -31.136908   -3.325481    2.488685
    103          7           0      -25.105863   -2.389510   -1.006485
    104          6           0      -25.985610   -3.413063   -0.807802
    105          6           0      -25.497479   -4.755558   -1.466687
    106          6           0      -24.220133   -4.295267   -2.167179
    107          6           0      -24.106819   -2.834164   -1.774813
    108          6           0      -25.359224   -6.087514   -0.624672
    109          6           0      -24.321169   -4.485915   -3.698765
    110          6           0      -25.049851   -3.413113   -4.538124
    111          7           0      -23.558412    0.033415   -1.258357
    112          6           0      -22.675897   -0.738836   -1.968262
    113          6           0      -21.500421   -0.006316   -2.301429
    114          6           0      -21.676580    1.268363   -1.596897
    115          6           0      -22.875580    1.204868   -1.000869
    116          6           0      -20.326109   -0.360731   -3.101570
    117          6           0      -21.035729    2.516212   -1.205535
    118          8           0      -19.965173    3.009544   -1.576137
    119          6           0      -22.023893    3.288611   -0.282747
    120          6           0      -21.425323    3.583769    1.015028
    121          8           0      -21.289182    2.794425    1.943814
    122          8           0      -20.828456    4.818476    0.964401
    123          6           0      -19.813558    5.182263    1.972230
    124          1           0      -28.041511    1.697043    2.636955
    125          1           0      -27.860543   -4.165252   -0.182728
    126          1           0      -22.272809   -2.550949   -2.892852
    127          1           0      -24.263381    4.238174    1.738571
    128          1           0      -27.157292    3.920368    1.460646
    129          1           0      -27.047418    4.181710    3.540379
    130          1           0      -25.254177    4.142947    3.639136
    131          1           0      -26.143492    2.610390    3.816745
    132          1           0      -26.227722    4.918255   -0.479148
    133          1           0      -24.554282    4.889463   -0.893594
    134          1           0      -26.016131    6.841724    0.327291
    135          1           0      -24.369149    7.010889   -0.105388
    136          1           0      -29.755300    0.699830    3.047776
    137          1           0      -30.346772   -0.899279    3.646186
    138          1           0      -31.085209   -0.180381    2.228622
    139          1           0      -30.921022   -3.398427    3.555095
    140          1           0      -31.910237   -4.035903    2.196533
    141          1           0      -31.478957   -2.320499    2.241719
    142          1           0      -26.311510   -4.943093   -2.166520
    143          1           0      -23.411272   -4.896866   -1.754115
    144          1           0      -24.415396   -6.614780   -0.758429
    145          1           0      -26.125546   -6.782537   -0.966410
    146          1           0      -25.568885   -5.842143    0.416876
    147          1           0      -24.794303   -5.457605   -3.835146
    148          1           0      -23.287476   -4.584607   -4.031487
    149          1           0      -25.630836   -3.984144   -5.261886
    150          1           0      -24.372865   -2.777137   -5.108034
    151          1           0      -25.644339   -2.711928   -3.953503
    152          1           0      -20.069227    0.505383   -3.710454
    153          1           0      -20.440373   -1.232211   -3.746289
    154          1           0      -19.450418   -0.444944   -2.457752
    155          1           0      -22.262906    4.188236   -0.849691
    156          1           0      -19.683278    4.404144    2.725137
    157          1           0      -20.164112    6.078082    2.485384
    158          1           0      -18.937161    5.317209    1.339318
 ---------------------------------------------------------------------

 SCF Done:  E(RPBE1PBE) =  -4067.39704335     A.U. after   16 cycles

 Excitation energies and oscillator strengths:

 Excited State   1:      Singlet-A      1.8654 eV  664.65 nm  f=0.3633  <S**2>=0.000
     309 -> 316       -0.17005
     312 -> 314        0.69163
     312 <- 314       -0.10905
 This state for optimization and/or second-order correction.
 Total Energy, E(TD-HF/TD-DFT) =  -4067.32849076
 Copying the excited state density for this state as the 1-particle RhoCI density.

 Excited State   2:      Singlet-A      1.8755 eV  661.09 nm  f=0.3978  <S**2>=0.000
     310 -> 315       -0.17468
     311 -> 313        0.69082
     311 <- 313       -0.10931

 Excited State   3:      Singlet-A      1.9423 eV  638.32 nm  f=0.0000  <S**2>=0.000
     312 -> 313        0.70711

 Excited State   4:      Singlet-A      2.0576 eV  602.57 nm  f=0.0000  <S**2>=0.000
     311 -> 314        0.70711

 Excited State   5:      Singlet-A      2.1488 eV  577.00 nm  f=0.1396  <S**2>=0.000
     310 -> 313        0.66654
     311 -> 315        0.21045

 The electronic state is 1-A.
 Alpha  occ. eigenvalues --  -46.91670 -46.90917 -19.24655 -19.24562 -19.20075
 Alpha  occ. eigenvalues --  -19.19214 -19.19008 -19.18488 -19.18484 -19.18153
 Alpha  occ. eigenvalues --  -14.41705 -14.41476 -14.41449 -14.41385 -14.39168
 Alpha  occ. eigenvalues --  -14.39093 -14.38039 -14.37925 -10.35661 -10.35509
 Alpha  occ. eigenvalues --  -10.33272 -10.32293 -10.31572 -10.31334 -10.29202
 Alpha  occ. eigenvalues --  -10.28721 -10.28605 -10.28602 -10.28562 -10.28453
 Alpha  occ. eigenvalues --  -10.28445 -10.28401 -10.28235 -10.28124 -10.27984
 Alpha  occ. eigenvalues --  -10.27771 -10.27662 -10.27521 -10.26604 -10.26385
 Alpha  occ. eigenvalues --  -10.26362 -10.26266 -10.26231 -10.25983 -10.25960
 Alpha  occ. eigenvalues --  -10.25949 -10.25938 -10.25878 -10.25785 -10.25616
 Alpha  occ. eigenvalues --  -10.25597 -10.25504 -10.25477 -10.25436 -10.25292
 Alpha  occ. eigenvalues --  -10.25252 -10.25236 -10.25231 -10.25090 -10.24936
 Alpha  occ. eigenvalues --  -10.24898 -10.24813 -10.24810 -10.24726 -10.24591
 Alpha  occ. eigenvalues --  -10.24460 -10.24350 -10.24333 -10.24296 -10.24248
 Alpha  occ. eigenvalues --  -10.24145 -10.23991 -10.23752 -10.23564 -10.23478
 Alpha  occ. eigenvalues --  -10.23468 -10.23460 -10.23443 -10.23398 -10.23327
 Alpha  occ. eigenvalues --  -10.23254 -10.23137 -10.22885 -10.22884 -10.22566
 Alpha  occ. eigenvalues --  -10.22395  -3.13775  -3.13209  -1.86616  -1.86145
 Alpha  occ. eigenvalues --   -1.86062  -1.86004  -1.85588  -1.85437  -1.09855
 Alpha  occ. eigenvalues --   -1.09853  -1.06265  -1.04305  -1.03660  -1.02587
 Alpha  occ. eigenvalues --   -1.01465  -0.99856  -0.99509  -0.99047  -0.98743
 Alpha  occ. eigenvalues --   -0.97981  -0.97845  -0.97151  -0.96854  -0.95635
 Alpha  occ. eigenvalues --   -0.87466  -0.86476  -0.83458  -0.83251  -0.83051
 Alpha  occ. eigenvalues --   -0.82712  -0.82592  -0.82452  -0.81817  -0.81403
 Alpha  occ. eigenvalues --   -0.81308  -0.80720  -0.80439  -0.80417  -0.78608
 Alpha  occ. eigenvalues --   -0.78487  -0.77917  -0.77695  -0.76957  -0.76690
 Alpha  occ. eigenvalues --   -0.76594  -0.76094  -0.75330  -0.75282  -0.74855
 Alpha  occ. eigenvalues --   -0.74545  -0.72865  -0.72452  -0.71808  -0.71425
 Alpha  occ. eigenvalues --   -0.71142  -0.71119  -0.70493  -0.70218  -0.69629
 Alpha  occ. eigenvalues --   -0.69390  -0.67538  -0.66903  -0.65758  -0.65544
 Alpha  occ. eigenvalues --   -0.64473  -0.64168  -0.63105  -0.62855  -0.62418
 Alpha  occ. eigenvalues --   -0.62125  -0.61485  -0.60459  -0.59656  -0.59480
 Alpha  occ. eigenvalues --   -0.59261  -0.59194  -0.59126  -0.58950  -0.58890
 Alpha  occ. eigenvalues --   -0.58293  -0.56055  -0.55992  -0.54475  -0.54292
 Alpha  occ. eigenvalues --   -0.54157  -0.53699  -0.53672  -0.53607  -0.53245
 Alpha  occ. eigenvalues --   -0.52853  -0.52311  -0.52230  -0.51984  -0.51819
 Alpha  occ. eigenvalues --   -0.50753  -0.50413  -0.50096  -0.49995  -0.49696
 Alpha  occ. eigenvalues --   -0.49446  -0.49198  -0.48903  -0.48379  -0.48258
 Alpha  occ. eigenvalues --   -0.47823  -0.47812  -0.47462  -0.47265  -0.47243
 Alpha  occ. eigenvalues --   -0.47080  -0.46999  -0.46786  -0.46698  -0.46570
 Alpha  occ. eigenvalues --   -0.46489  -0.46409  -0.46261  -0.45642  -0.45517
 Alpha  occ. eigenvalues --   -0.45388  -0.45150  -0.44941  -0.44775  -0.44769
 Alpha  occ. eigenvalues --   -0.44328  -0.44212  -0.44183  -0.44101  -0.43981
 Alpha  occ. eigenvalues --   -0.43946  -0.43668  -0.43613  -0.43583  -0.43423
 Alpha  occ. eigenvalues --   -0.43172  -0.43023  -0.42904  -0.42791  -0.42768
 Alpha  occ. eigenvalues --   -0.42584  -0.42398  -0.42324  -0.41875  -0.41789
 Alpha  occ. eigenvalues --   -0.41432  -0.41412  -0.41162  -0.41001  -0.40970
 Alpha  occ. eigenvalues --   -0.40875  -0.40758  -0.40528  -0.40409  -0.40392
 Alpha  occ. eigenvalues --   -0.40157  -0.40054  -0.40005  -0.39900  -0.39787
 Alpha  occ. eigenvalues --   -0.39566  -0.39407  -0.39065  -0.39024  -0.38766
 Alpha  occ. eigenvalues --   -0.38644  -0.38557  -0.38523  -0.38454  -0.38242
 Alpha  occ. eigenvalues --   -0.38162  -0.38005  -0.37888  -0.37745  -0.37646
 Alpha  occ. eigenvalues --   -0.37645  -0.37467  -0.37330  -0.37252  -0.36851
 Alpha  occ. eigenvalues --   -0.36429  -0.36344  -0.36233  -0.35977  -0.35942
 Alpha  occ. eigenvalues --   -0.35737  -0.35617  -0.35549  -0.35154  -0.35105
 Alpha  occ. eigenvalues --   -0.34828  -0.34787  -0.34582  -0.33802  -0.33487
 Alpha  occ. eigenvalues --   -0.33330  -0.33204  -0.32815  -0.32807  -0.32692
 Alpha  occ. eigenvalues --   -0.31895  -0.31735  -0.31571  -0.31454  -0.31202
 Alpha  occ. eigenvalues --   -0.30610  -0.30501  -0.29554  -0.29512  -0.28972
 Alpha  occ. eigenvalues --   -0.28762  -0.28488  -0.27547  -0.26643  -0.26609
 Alpha  occ. eigenvalues --   -0.26341  -0.25736  -0.25616  -0.25190  -0.25188
 Alpha  occ. eigenvalues --   -0.24999  -0.24870  -0.24390  -0.20592  -0.20507
 Alpha  occ. eigenvalues --   -0.18891  -0.18687
 Alpha virt. eigenvalues --   -0.11285  -0.11065  -0.04876  -0.04860  -0.03631
 Alpha virt. eigenvalues --   -0.03494  -0.02011  -0.01927  -0.00176   0.00634
 Alpha virt. eigenvalues --    0.00694   0.00859   0.01088   0.01458   0.01703

 Mulliken charges:
               1
     1  Mg  12.000136
     2  C    6.017738
     3  C    5.986106
     4  C    5.982686
     5  C    5.996487
     6  N    7.004892
     7  C    5.973947
     8  C    6.011630
     9  C    5.994417
    10  C    6.025666
    11  C    5.998293
    12  C    6.003780
    13  C    6.001957
    14  H    0.993542
    15  N    6.995778
    16  C    6.039661
    17  C    6.029822
    18  C    6.005866
    19  C    6.032753
    20  C    5.994379
    21  C    6.011620
    22  O    8.024596
    23  C    5.995847
    24  N    6.991577
    25  C    6.038011
    26  C    5.985689
    27  C    6.012712
    28  C    5.967086
    29  C    6.001059
    30  C    6.003863
    31  C    6.001419
    32  N    7.003230
    33  C    5.975529
    34  C    5.971747
    35  C    5.995396
    36  C    5.973675
    37  C    6.001863
    38  C    5.985880
    39  O    7.972399
    40  C    5.995438
    41  C    5.999100
    42  O    7.989394
    43  O    8.001550
    44  C    6.001891
    45  H    1.009722
    46  H    1.007955
    47  H    0.987209
    48  H    0.996348
    49  H    1.000634
    50  H    0.996272
    51  H    0.999105
    52  H    1.011703
    53  H    0.991318
    54  H    0.999578
    55  H    1.005161
    56  H    1.000367
    57  H    1.020313
    58  H    1.019678
    59  H    1.021146
    60  H    1.003443
    61  H    1.013184
    62  H    1.006466
    63  H    0.999791
    64  H    0.999512
    65  H    0.999804
    66  H    0.997175
    67  H    1.009923
    68  H    0.988087
    69  H    1.001491
    70  H    1.000788
    71  H    0.991719
    72  H    1.001638
    73  H    0.982610
    74  H    0.983337
    75  H    0.984302
    76  H    0.991692
    77  H    0.997097
    78  H    0.997269
    79  H    0.994056
    80  Mg  12.000009
    81  C    5.999803
    82  C    6.000273
    83  C    6.000276
    84  C    5.999983
    85  N    6.999894
    86  C    6.000342
    87  C    5.999888
    88  C    6.000035
    89  C    5.999617
    90  C    6.000006
    91  C    5.999958
    92  C    5.999968
    93  H    1.000027
    94  N    7.000127
    95  C    5.999287
    96  C    5.999835
    97  C    5.999609
    98  C    5.999646
    99  C    6.000103
   100  C    5.999718
   101  O    7.999716
   102  C    6.000050
   103  N    7.000130
   104  C    5.999522
   105  C    6.000124
   106  C    5.999820
   107  C    6.000362
   108  C    6.000044
   109  C    5.999961
   110  C    5.999935
   111  N    7.000090
   112  C    6.000399
   113  C    6.000452
   114  C    6.000040
   115  C    6.000267
   116  C    5.999929
   117  C    6.000104
   118  O    8.000370
   119  C    5.999997
   120  C    6.000133
   121  O    7.999995
   122  O    8.000048
   123  C    5.999983
   124  H    0.999862
   125  H    0.999881
   126  H    1.000108
   127  H    1.000013
   128  H    1.000032
   129  H    0.999982
   130  H    0.999852
   131  H    1.000040
   132  H    1.000111
   133  H    0.999937
   134  H    1.000061
   135  H    1.000007
   136  H    0.999759
   137  H    0.999752
   138  H    0.999740
   139  H    0.999864
   140  H    0.999834
   141  H    0.999989
   142  H    1.000015
   143  H    1.000019
   144  H    0.999850
   145  H    0.999996
   146  H    1.000010
   147  H    1.000139
   148  H    0.999962
   149  H    1.000120
   150  H    0.999952
   151  H    1.000079
   152  H    1.000288
   153  H    1.000281
   154  H    1.000314
   155  H    1.000150
   156  H    1.000023
   157  H    1.000078
   158  H    1.000023
 Sum of Mulliken charges = 624.00000

 Dipole moment (field-independent basis, Debye):
    X=              0.0636    Y=             -3.7045    Z=              9.4331  Tot=             10.1347
 Quadrupole moment (field-independent basis, Debye-Ang):
   XX=             -9.7634   YY=              1.9853   ZZ=              7.1283
   XY=            -94.7066   XZ=            236.3457   YZ=             -9.3496

 Normal termination of Gaussian 16 at Thu Oct 14 04:16:54 2021.
