 Gaussian 16, Revision A.03,
 Gaussian 16:  ES64L-G16RevA.03 25-Dec-2016

 --------------------------------------------------------
 #p PBE1PBE/Def2SVP td=(nstates=5) density=(transition=1)
 --------------------------------------------------------

 --------------------------------
 TDDFT excited states in gaussian
 --------------------------------
 Symbolic Z-matrix:
 Charge =  0 Multiplicity = 1

                         Standard orientation:
 ---------------------------------------------------------------------
 Center     Atomic      Atomic             Coordinates (Angstroms)
 Number     Number       Type             X           Y           Z
 ---------------------------------------------------------------------
      1         12           0       30.772653   -0.156901    0.349679
      2          6           0       27.443400    0.483373    0.077781
      3          6           0       30.111379   -3.526749   -0.496092
      4          6           0       34.003222   -0.497601   -0.425909
      5          6           0       31.404611    3.384752    0.665818
      6          7           0       28.991959   -1.318848   -0.109209
      7          6           0       27.763029   -0.928431   -0.186833
      8          6           0       26.739067   -2.114764   -0.282997
      9          6           0       27.623912   -3.414196   -0.170316
     10          6           0       29.045781   -2.756526   -0.225276
     11          6           0       27.278146   -4.375926    0.967382
     12          6           0       25.793448   -2.010880   -1.621624
     13          6           0       26.297868   -1.209790   -2.810984
     14          1           0       25.705033   -1.427965   -4.203038
     15          7           0       31.888559   -1.794711   -0.371878
     16          6           0       31.474479   -3.086989   -0.588545
     17          6           0       32.544345   -3.850206   -1.066327
     18          6           0       33.712123   -2.994496   -1.105077
     19          6           0       33.227284   -1.662896   -0.655607
     20          6           0       32.403320   -5.347644   -1.269308
     21          6           0       35.109744   -3.458601   -1.553498
     22          8           0       35.241344   -4.651391   -1.908930
     23          6           0       36.286964   -2.640682   -1.604562
     24          7           0       32.493112    1.316852   -0.012926
     25          6           0       33.691762    0.817840   -0.120048
     26          6           0       34.810879    1.890320    0.006987
     27          6           0       33.989023    3.133914    0.410724
     28          6           0       32.486405    2.638937    0.391141
     29          6           0       35.856065    1.576104    1.015731
     30          6           0       34.264014    4.395109   -0.536497
     31          6           0       35.031896    5.611552    0.126625
     32          7           0       29.716482    1.607830    0.491014
     33          6           0       30.057606    2.956775    0.650311
     34          6           0       28.798350    3.758231    0.751897
     35          6           0       27.792868    2.817195    0.488539
     36          6           0       28.384201    1.532489    0.302138
     37          6           0       28.631925    5.179544    0.989157
     38          6           0       26.415861    2.743403    0.307799
     39          8           0       25.495616    3.571320    0.376643
     40          6           0       26.108299    1.229592    0.128156
     41          6           0       25.098235    0.810829    1.222820
     42          8           0       24.024598    0.254001    1.068571
     43          8           0       25.538076    1.134729    2.488098
     44          6           0       24.651809    0.824787    3.616245
     45          1           0       29.811059   -4.529115   -0.807877
     46          1           0       35.088761   -0.580184   -0.508555
     47          1           0       31.604994    4.424532    0.932163
     48          1           0       26.176079   -2.104269    0.650678
     49          1           0       27.598498   -4.009160   -1.083791
     50          1           0       28.101252   -4.410111    1.680858
     51          1           0       27.125556   -5.396028    0.613050
     52          1           0       26.348137   -4.167997    1.496561
     53          1           0       24.864816   -1.633095   -1.193162
     54          1           0       25.592028   -2.957636   -2.123268
     55          1           0       27.361152   -1.447481   -2.829743
     56          1           0       26.216984   -0.166645   -2.504830
     57          1           0       33.077118   -6.031407   -0.752354
     58          1           0       32.402451   -5.553730   -2.339905
     59          1           0       31.407047   -5.653841   -0.950854
     60          1           0       36.647925   -2.208902   -0.671256
     61          1           0       36.089750   -1.728067   -2.166104
     62          1           0       37.114429   -3.097738   -2.146348
     63          1           0       35.420364    2.115739   -0.868024
     64          1           0       34.122903    3.418101    1.454544
     65          1           0       36.809582    1.245050    0.604555
     66          1           0       35.586960    0.684207    1.582727
     67          1           0       36.025973    2.437230    1.661817
     68          1           0       33.299281    4.820287   -0.816598
     69          1           0       34.892651    4.181488   -1.399893
     70          1           0       35.820995    5.953305   -0.541995
     71          1           0       35.564606    5.233507    0.999304
     72          1           0       34.283552    6.399707    0.211690
     73          1           0       29.483196    5.448778    1.614856
     74          1           0       27.706180    5.373115    1.532216
     75          1           0       28.549892    5.643896    0.006878
     76          1           0       25.451926    1.022006   -0.716623
     77          1           0       24.903196    1.491122    4.441631
     78          1           0       24.714313   -0.167554    4.062553
     79          1           0       23.590885    0.875340    3.369568
     80         12           0      -30.711044    0.409751    0.182811
     81          6           0      -27.902412   -1.719714    0.174842
     82          6           0      -28.630029    2.910417   -0.630015
     83          6           0      -33.431549    2.162028   -0.274343
     84          6           0      -32.685192   -2.564800    0.341722
     85          7           0      -28.516577    0.540173   -0.225309
     86          6           0      -27.542473   -0.392656   -0.104093
     87          6           0      -26.148097    0.148430   -0.346868
     88          6           0      -26.447985    1.701019   -0.325248
     89          6           0      -27.958312    1.775378   -0.412490
     90          6           0      -25.891831    2.470662    0.943090
     91          6           0      -25.295380   -0.271811   -1.622469
     92          6           0      -25.952684   -0.964045   -2.845938
     93          1           0      -25.366015   -0.651986   -4.273245
     94          7           0      -30.939075    2.363614   -0.259738
     95          6           0      -30.000219    3.207745   -0.665952
     96          6           0      -30.644050    4.488151   -1.067456
     97          6           0      -32.096038    4.298890   -0.789849
     98          6           0      -32.197357    2.883175   -0.434303
     99          6           0      -29.884689    5.730770   -1.447146
    100          6           0      -33.173294    5.331984   -0.993021
    101          8           0      -32.846578    6.462346   -1.346359
    102          6           0      -34.719561    5.078044   -0.852647
    103          7           0      -32.849398   -0.147836   -0.065488
    104          6           0      -33.674589    0.841189   -0.068687
    105          6           0      -35.143989    0.236050    0.048806
    106          6           0      -34.840481   -1.262543   -0.008415
    107          6           0      -33.329409   -1.358353    0.077662
    108          6           0      -36.028492    0.642183    1.239385
    109          6           0      -35.228666   -1.949141   -1.418595
    110          6           0      -36.375737   -2.975795   -1.389200
    111          7           0      -30.440001   -1.697576    0.183061
    112          6           0      -31.292391   -2.753085    0.372424
    113          6           0      -30.531313   -3.993942    0.670899
    114          6           0      -29.157885   -3.671809    0.479522
    115          6           0      -29.195682   -2.222218    0.294625
    116          6           0      -31.107069   -5.408649    0.903768
    117          6           0      -27.809336   -4.130345    0.442293
    118          8           0      -27.273445   -5.251813    0.449291
    119          6           0      -26.917165   -2.869035    0.318385
    120          6           0      -25.997652   -2.855229    1.542975
    121          8           0      -24.827092   -3.089083    1.686952
    122          8           0      -26.711278   -2.284240    2.602327
    123          6           0      -25.980244   -2.054367    3.887082
    124          1           0      -27.930279    3.703662   -0.901946
    125          1           0      -34.310722    2.799208   -0.397067
    126          1           0      -33.296831   -3.415227    0.648976
    127          1           0      -25.599771   -0.091927    0.563814
    128          1           0      -25.972924    2.170008   -1.187036
    129          1           0      -25.425858    1.779454    1.644571
    130          1           0      -26.816662    2.779630    1.429021
    131          1           0      -25.238085    3.281973    0.622422
    132          1           0      -24.488024   -0.909130   -1.261539
    133          1           0      -24.778292    0.609170   -2.004231
    134          1           0      -26.997323   -0.653162   -2.830675
    135          1           0      -25.812378   -2.044305   -2.868528
    136          1           0      -30.501521    6.629202   -1.446612
    137          1           0      -29.370959    5.500875   -2.381349
    138          1           0      -29.075520    5.768722   -0.717082
    139          1           0      -35.137067    4.626558    0.048115
    140          1           0      -35.014023    4.367765   -1.625246
    141          1           0      -35.296704    5.995760   -0.962081
    142          1           0      -35.770493    0.548088   -0.786112
    143          1           0      -35.306500   -1.922745    0.723892
    144          1           0      -35.527797    1.358055    1.891450
    145          1           0      -36.374414   -0.227032    1.799766
    146          1           0      -36.936540    1.168892    0.945897
    147          1           0      -34.388051   -2.493200   -1.847075
    148          1           0      -35.479073   -1.122355   -2.083645
    149          1           0      -36.290108   -3.796611   -2.101692
    150          1           0      -37.264560   -2.416183   -1.680492
    151          1           0      -36.352163   -3.345576   -0.364039
    152          1           0      -32.155799   -5.530400    0.634749
    153          1           0      -30.999635   -5.561595    1.977343
    154          1           0      -30.447543   -6.126999    0.417466
    155          1           0      -26.316581   -2.940042   -0.587853
    156          1           0      -25.167683   -2.730245    4.152703
    157          1           0      -26.749191   -2.222053    4.640971
    158          1           0      -25.609514   -1.052071    4.102668
 ---------------------------------------------------------------------

 SCF Done:  E(RPBE1PBE) =  -4067.32872024     A.U. after   19 cycles

 Excitation energies and oscillator strengths:

 Excited State   1:      Singlet-A      1.8537 eV  668.86 nm  f=0.4179  <S**2>=0.000
     309 -> 316       -0.15882
     311 -> 313        0.69710
     311 <- 313       -0.12237
 This state for optimization and/or second-order correction.
 Total Energy, E(TD-HF/TD-DFT) =  -4067.26059914
 Copying the excited state density for this state as the 1-particle RhoCI density.

 Excited State   2:      Singlet-A      1.9112 eV  648.73 nm  f=0.3968  <S**2>=0.000
     310 -> 315        0.17693
     312 -> 314        0.69115
     312 <- 314       -0.10569

 Excited State   3:      Singlet-A      1.9113 eV  648.68 nm  f=0.0000  <S**2>=0.000
     312 -> 313        0.70711

 Excited State   4:      Singlet-A      2.0898 eV  593.27 nm  f=0.0000  <S**2>=0.000
     311 -> 314        0.70711

 Excited State   5:      Singlet-A      2.2475 eV  551.65 nm  f=0.1102  <S**2>=0.000
     309 -> 313        0.65201
     311 -> 316        0.24626

 The electronic state is 1-A.
 Alpha  occ. eigenvalues --  -46.93707 -46.93450 -19.25475 -19.25202 -19.20568
 Alpha  occ. eigenvalues --  -19.20304 -19.19514 -19.19012 -19.18961 -19.17857
 Alpha  occ. eigenvalues --  -14.42692 -14.41820 -14.41399 -14.41295 -14.40105
 Alpha  occ. eigenvalues --  -14.40002 -14.39874 -14.39597 -10.36845 -10.36726
 Alpha  occ. eigenvalues --  -10.32909 -10.32655 -10.31642 -10.31586 -10.30544
 Alpha  occ. eigenvalues --  -10.29252 -10.29101 -10.29054 -10.28860 -10.28721
 Alpha  occ. eigenvalues --  -10.28679 -10.28677 -10.28669 -10.28588 -10.28565
 Alpha  occ. eigenvalues --  -10.28542 -10.28497 -10.27931 -10.27831 -10.27790
 Alpha  occ. eigenvalues --  -10.27623 -10.27619 -10.27125 -10.27063 -10.27039
 Alpha  occ. eigenvalues --  -10.26964 -10.26848 -10.26733 -10.26585 -10.26476
 Alpha  occ. eigenvalues --  -10.26322 -10.26298 -10.26155 -10.25883 -10.25844
 Alpha  occ. eigenvalues --  -10.25745 -10.25580 -10.25544 -10.25461 -10.25215
 Alpha  occ. eigenvalues --  -10.25133 -10.25055 -10.25039 -10.24932 -10.24805
 Alpha  occ. eigenvalues --  -10.24804 -10.24791 -10.24769 -10.24757 -10.24450
 Alpha  occ. eigenvalues --  -10.24387 -10.24374 -10.24133 -10.24120 -10.24027
 Alpha  occ. eigenvalues --  -10.24026 -10.23987 -10.23925 -10.23668 -10.23578
 Alpha  occ. eigenvalues --  -10.23520 -10.23204 -10.23078 -10.23072 -10.23005
 Alpha  occ. eigenvalues --  -10.22558  -3.15696  -3.15509  -1.88512  -1.88337
 Alpha  occ. eigenvalues --   -1.88103  -1.87884  -1.87882  -1.87735  -1.10845
 Alpha  occ. eigenvalues --   -1.10745  -1.04444  -1.03877  -1.03591  -1.02522
 Alpha  occ. eigenvalues --   -1.02136  -1.02053  -1.01392  -0.99592  -0.99420
 Alpha  occ. eigenvalues --   -0.99111  -0.98695  -0.98195  -0.98021  -0.97120
 Alpha  occ. eigenvalues --   -0.87838  -0.87231  -0.84164  -0.84025  -0.83728
 Alpha  occ. eigenvalues --   -0.83323  -0.83173  -0.82865  -0.82620  -0.82449
 Alpha  occ. eigenvalues --   -0.82088  -0.81098  -0.79885  -0.79750  -0.79183
 Alpha  occ. eigenvalues --   -0.79001  -0.78422  -0.78185  -0.77217  -0.77164
 Alpha  occ. eigenvalues --   -0.76816  -0.76017  -0.75680  -0.75106  -0.74776
 Alpha  occ. eigenvalues --   -0.74554  -0.72845  -0.72828  -0.71976  -0.71703
 Alpha  occ. eigenvalues --   -0.71325  -0.71251  -0.70935  -0.70645  -0.69781
 Alpha  occ. eigenvalues --   -0.69709  -0.67838  -0.67733  -0.66879  -0.66429
 Alpha  occ. eigenvalues --   -0.64003  -0.63972  -0.63574  -0.63268  -0.63058
 Alpha  occ. eigenvalues --   -0.62751  -0.62062  -0.61374  -0.61304  -0.60413
 Alpha  occ. eigenvalues --   -0.60157  -0.60143  -0.59989  -0.59405  -0.59360
 Alpha  occ. eigenvalues --   -0.59106  -0.57830  -0.57653  -0.55400  -0.55122
 Alpha  occ. eigenvalues --   -0.54884  -0.54578  -0.54038  -0.53580  -0.53172
 Alpha  occ. eigenvalues --   -0.53161  -0.52733  -0.52662  -0.51689  -0.51661
 Alpha  occ. eigenvalues --   -0.51016  -0.51014  -0.50404  -0.50255  -0.50133
 Alpha  occ. eigenvalues --   -0.49979  -0.49598  -0.49284  -0.49053  -0.48959
 Alpha  occ. eigenvalues --   -0.48503  -0.48415  -0.48266  -0.48043  -0.47765
 Alpha  occ. eigenvalues --   -0.47526  -0.47489  -0.47361  -0.47117  -0.46728
 Alpha  occ. eigenvalues --   -0.46609  -0.46293  -0.46097  -0.46087  -0.45741
 Alpha  occ. eigenvalues --   -0.45711  -0.45627  -0.45546  -0.45304  -0.45202
 Alpha  occ. eigenvalues --   -0.44842  -0.44649  -0.44504  -0.44411  -0.44184
 Alpha  occ. eigenvalues --   -0.44066  -0.43872  -0.43702  -0.43662  -0.43473
 Alpha  occ. eigenvalues --   -0.43426  -0.43273  -0.43214  -0.43136  -0.43013
 Alpha  occ. eigenvalues --   -0.42898  -0.42597  -0.42387  -0.42314  -0.42169
 Alpha  occ. eigenvalues --   -0.42100  -0.41898  -0.41880  -0.41684  -0.41549
 Alpha  occ. eigenvalues --   -0.41370  -0.41341  -0.41086  -0.40999  -0.40765
 Alpha  occ. eigenvalues --   -0.40671  -0.40576  -0.40490  -0.40223  -0.40112
 Alpha  occ. eigenvalues --   -0.40065  -0.39831  -0.39654  -0.39582  -0.39321
 Alpha  occ. eigenvalues --   -0.39147  -0.39011  -0.38799  -0.38559  -0.38495
 Alpha  occ. eigenvalues --   -0.38389  -0.38132  -0.37907  -0.37682  -0.37606
 Alpha  occ. eigenvalues --   -0.37473  -0.37191  -0.37038  -0.36959  -0.36846
 Alpha  occ. eigenvalues --   -0.36841  -0.36742  -0.36353  -0.36298  -0.36135
 Alpha  occ. eigenvalues --   -0.35823  -0.35803  -0.35703  -0.35588  -0.35568
 Alpha  occ. eigenvalues --   -0.34989  -0.34892  -0.34745  -0.34102  -0.34016
 Alpha  occ. eigenvalues --   -0.33812  -0.33591  -0.33258  -0.33037  -0.32882
 Alpha  occ. eigenvalues --   -0.32688  -0.31964  -0.31837  -0.31575  -0.31529
 Alpha  occ. eigenvalues --   -0.31305  -0.31300  -0.30048  -0.29779  -0.29628
 Alpha  occ. eigenvalues --   -0.29408  -0.29291  -0.29084  -0.27427  -0.27144
 Alpha  occ. eigenvalues --   -0.26574  -0.26384  -0.26142  -0.25888  -0.25855
 Alpha  occ. eigenvalues --   -0.25059  -0.25048  -0.24836  -0.21802  -0.21409
 Alpha  occ. eigenvalues --   -0.19317  -0.19177
 Alpha virt. eigenvalues --   -0.11936  -0.11421  -0.05523  -0.05429  -0.04771
 Alpha virt. eigenvalues --   -0.04190  -0.02647  -0.02361  -0.02037  -0.01442
 Alpha virt. eigenvalues --    0.00184   0.00486   0.00530   0.00843   0.01262

 Mulliken charges:
               1
     1  Mg  12.001148
     2  C    5.983476
     3  C    5.965411
     4  C    6.007046
     5  C    6.029780
     6  N    6.979518
     7  C    5.978613
     8  C    6.005960
     9  C    5.988961
    10  C    6.044559
    11  C    6.000646
    12  C    6.001239
    13  C    6.007855
    14  H    0.989259
    15  N    7.000431
    16  C    6.049146
    17  C    6.009352
    18  C    6.019584
    19  C    6.028270
    20  C    5.994340
    21  C    6.012662
    22  O    8.025664
    23  C    5.992466
    24  N    7.021146
    25  C    6.014905
    26  C    5.990642
    27  C    6.004739
    28  C    5.966101
    29  C    5.998271
    30  C    6.000011
    31  C    6.000201
    32  N    6.996785
    33  C    5.954448
    34  C    5.976617
    35  C    5.991127
    36  C    5.984832
    37  C    6.001219
    38  C    5.981684
    39  O    7.964918
    40  C    6.006939
    41  C    5.994998
    42  O    7.987678
    43  O    8.004140
    44  C    6.004289
    45  H    1.005886
    46  H    1.013601
    47  H    0.996047
    48  H    0.999512
    49  H    0.999566
    50  H    0.997851
    51  H    0.999762
    52  H    1.010276
    53  H    1.002793
    54  H    0.990801
    55  H    0.989448
    56  H    1.011046
    57  H    1.015442
    58  H    1.017310
    59  H    1.019464
    60  H    1.011417
    61  H    1.009783
    62  H    1.014323
    63  H    1.003566
    64  H    1.002039
    65  H    0.999317
    66  H    0.996892
    67  H    1.011876
    68  H    1.006549
    69  H    0.993092
    70  H    0.997378
    71  H    0.996352
    72  H    1.004324
    73  H    0.983749
    74  H    0.988141
    75  H    0.981901
    76  H    0.987525
    77  H    0.996011
    78  H    0.990648
    79  H    0.995235
    80  Mg  12.000006
    81  C    5.999979
    82  C    6.000036
    83  C    6.000010
    84  C    5.999967
    85  N    6.999973
    86  C    6.000053
    87  C    6.000003
    88  C    5.999999
    89  C    5.999992
    90  C    5.999996
    91  C    6.000000
    92  C    5.999994
    93  H    1.000010
    94  N    7.000001
    95  C    6.000019
    96  C    5.999992
    97  C    6.000011
    98  C    6.000027
    99  C    5.999988
   100  C    6.000006
   101  O    8.000016
   102  C    6.000000
   103  N    7.000011
   104  C    5.999992
   105  C    5.999985
   106  C    5.999989
   107  C    6.000005
   108  C    6.000000
   109  C    6.000017
   110  C    6.000003
   111  N    6.999993
   112  C    5.999950
   113  C    5.999991
   114  C    5.999973
   115  C    5.999969
   116  C    6.000015
   117  C    5.999988
   118  O    7.999998
   119  C    6.000006
   120  C    6.000000
   121  O    8.000012
   122  O    7.999995
   123  C    5.999999
   124  H    1.000037
   125  H    0.999982
   126  H    0.999972
   127  H    1.000014
   128  H    1.000021
   129  H    1.000030
   130  H    0.999987
   131  H    1.000036
   132  H    1.000020
   133  H    1.000016
   134  H    0.999980
   135  H    1.000000
   136  H    1.000021
   137  H    1.000033
   138  H    1.000042
   139  H    1.000007
   140  H    1.000000
   141  H    1.000001
   142  H    0.999990
   143  H    0.999989
   144  H    1.000006
   145  H    0.999993
   146  H    0.999986
   147  H    1.000005
   148  H    0.999983
   149  H    0.999983
   150  H    0.999980
   151  H    0.999994
   152  H    0.999963
   153  H    0.999972
   154  H    0.999975
   155  H    1.000002
   156  H    1.000010
   157  H    0.999986
   158  H    1.000012
 Sum of Mulliken charges = 624.00000

 Dipole moment (field-independent basis, Debye):
    X=              7.7473    Y=             -7.4415    Z=             -1.8712  Tot=             10.9040
 Quadrupole moment (field-independent basis, Debye-Ang):
   XX=            471.8609   YY=              2.6848   ZZ=             -0.3673
   XY=           -229.8951   XZ=            -59.5354   YZ=              1.7844

 Normal termination of Gaussian 16 at Thu Oct 14 06:19:12 2021.
