 Gaussian 16, Revision A.03,
 Gaussian 16:  ES64L-G16RevA.03 25-Dec-2016

 --------------------------------------------------------
 #p PBE1PBE/Def2SVP td=(nstates=5) density=(transition=1)
 --------------------------------------------------------

 --------------------------------
 TDDFT excited states in gaussian
 --------------------------------
 Symbolic Z-matrix:
 Charge =  0 Multiplicity = 1

                         Standard orientation:
 ---------------------------------------------------------------------
 Center     Atomic      Atomic             Coordinates (Angstroms)
 Number     Number       Type             X           Y           Z
 ---------------------------------------------------------------------
      1         12           0      -22.737374   -0.700469   -0.195378
      2          6           0      -24.340635    1.792817    1.490661
      3          6           0      -20.341877    1.674727   -1.260250
      4          6           0      -21.263721   -3.066012   -2.051661
      5          6           0      -25.084619   -2.929254    0.954290
      6          7           0      -22.543789    1.513591   -0.188865
      7          6           0      -23.287888    2.311327    0.689767
      8          6           0      -22.818875    3.793726    0.668021
      9          6           0      -21.598973    3.647527   -0.279956
     10          6           0      -21.503391    2.184034   -0.671597
     11          6           0      -21.424888    4.571490   -1.559801
     12          6           0      -22.432885    4.444154    2.068915
     13          6           0      -21.946805    5.910172    1.913991
     14          1           0      -22.953837    6.938248    2.431477
     15          7           0      -20.966798   -0.694718   -1.468252
     16          6           0      -20.036529    0.318739   -1.553310
     17          6           0      -19.026289   -0.150687   -2.494297
     18          6           0      -19.312442   -1.535005   -2.723479
     19          6           0      -20.539717   -1.846995   -2.061119
     20          6           0      -17.931881    0.739171   -2.942674
     21          6           0      -18.466582   -2.435505   -3.690022
     22          8           0      -18.821168   -3.572092   -4.063343
     23          6           0      -17.185496   -1.907436   -4.281164
     24          7           0      -23.112619   -2.593300   -0.511572
     25          6           0      -22.352697   -3.441573   -1.365230
     26          6           0      -23.074471   -4.746822   -1.612732
     27          6           0      -23.929673   -4.816759   -0.349036
     28          6           0      -24.032691   -3.372900    0.121468
     29          6           0      -23.926652   -4.735200   -2.926088
     30          6           0      -23.265293   -5.638347    0.778296
     31          6           0      -23.460431   -7.130762    0.788450
     32          7           0      -24.446061   -0.683608    0.958150
     33          6           0      -25.214511   -1.656552    1.473865
     34          6           0      -26.240499   -1.071741    2.285769
     35          6           0      -25.945071    0.273348    2.351207
     36          6           0      -24.805575    0.463949    1.554234
     37          6           0      -27.290824   -1.884626    2.958803
     38          6           0      -26.364455    1.483139    2.918717
     39          8           0      -27.269446    1.745825    3.687071
     40          6           0      -25.311968    2.558604    2.373568
     41          6           0      -26.072829    3.625240    1.668867
     42          8           0      -26.689400    3.520902    0.636523
     43          8           0      -25.882742    4.816063    2.244789
     44          6           0      -26.564157    5.996846    1.587002
     45          1           0      -19.563930    2.424811   -1.416259
     46          1           0      -20.790273   -3.849419   -2.646851
     47          1           0      -25.788747   -3.592701    1.460046
     48          1           0      -23.592826    4.392794    0.188103
     49          1           0      -20.680485    3.814054    0.283646
     50          1           0      -20.405966    4.875193   -1.801401
     51          1           0      -22.159717    5.376409   -1.536382
     52          1           0      -21.679238    3.916312   -2.392851
     53          1           0      -21.696430    3.750302    2.472400
     54          1           0      -23.311156    4.409178    2.713391
     55          1           0      -21.619021    6.086765    0.889551
     56          1           0      -21.071290    6.013067    2.554400
     57          1           0      -18.089605    0.956430   -3.999267
     58          1           0      -17.007450    0.243378   -2.646463
     59          1           0      -17.932283    1.669593   -2.374674
     60          1           0      -16.703575   -2.684210   -4.874868
     61          1           0      -16.536154   -1.772894   -3.415001
     62          1           0      -17.246661   -0.978186   -4.846999
     63          1           0      -22.372015   -5.577144   -1.690112
     64          1           0      -24.932378   -5.205489   -0.525540
     65          1           0      -24.829491   -4.138297   -2.802889
     66          1           0      -24.179421   -5.753699   -3.222015
     67          1           0      -23.275591   -4.305411   -3.686540
     68          1           0      -23.517176   -5.274072    1.773459
     69          1           0      -22.192284   -5.446174    0.782549
     70          1           0      -22.467401   -7.573846    0.718769
     71          1           0      -23.922190   -7.322930   -0.180153
     72          1           0      -24.072794   -7.502906    1.609964
     73          1           0      -27.010812   -2.084392    3.992377
     74          1           0      -27.660532   -2.776856    2.452554
     75          1           0      -28.159506   -1.228562    3.016869
     76          1           0      -24.783198    2.981575    3.228043
     77          1           0      -26.304235    5.963916    0.528729
     78          1           0      -26.214511    6.958989    1.962255
     79          1           0      -27.638460    5.883540    1.734035
     80         12           0       23.052737   -0.598531    0.530729
     81          6           0       22.866139    2.265459   -1.488629
     82          6           0       24.186570    1.200998    3.099314
     83          6           0       23.233268   -3.359231    2.209885
     84          6           0       22.828639   -2.474065   -2.554854
     85          7           0       23.561667    1.488959    0.690926
     86          6           0       23.270502    2.499324   -0.138046
     87          6           0       23.738003    3.825613    0.403466
     88          6           0       24.533637    3.400111    1.702188
     89          6           0       24.069003    1.965622    1.863281
     90          6           0       26.090747    3.537801    1.700632
     91          6           0       22.477192    4.746308    0.811024
     92          6           0       22.575965    6.210785    0.271301
     93          1           0       21.167242    7.002216    0.431064
     94          7           0       23.377431   -0.974396    2.410220
     95          6           0       23.808868   -0.087199    3.381561
     96          6           0       23.695891   -0.725833    4.663920
     97          6           0       23.370783   -2.132590    4.485128
     98          6           0       23.191146   -2.219047    2.985259
     99          6           0       24.089433    0.073849    5.939056
    100          6           0       23.170586   -3.333516    5.402522
    101          8           0       22.798580   -4.470453    5.060111
    102          6           0       23.357449   -2.992131    6.838440
    103          7           0       23.183129   -2.578435   -0.172946
    104          6           0       23.260453   -3.525985    0.817715
    105          6           0       23.411727   -4.926997    0.224035
    106          6           0       22.969257   -4.685186   -1.242985
    107          6           0       23.050183   -3.163226   -1.376381
    108          6           0       24.868479   -5.475239    0.496895
    109          6           0       21.538908   -5.246773   -1.642098
    110          6           0       21.302956   -5.543572   -3.131675
    111          7           0       22.843518   -0.233436   -1.603089
    112          6           0       22.769507   -1.084753   -2.663647
    113          6           0       22.495304   -0.369759   -3.889980
    114          6           0       22.458962    0.958411   -3.427307
    115          6           0       22.736947    1.002536   -2.053631
    116          6           0       22.284715   -0.848622   -5.344811
    117          6           0       22.233689    2.307543   -3.865562
    118          8           0       21.814470    2.786653   -4.886492
    119          6           0       22.666597    3.231455   -2.612316
    120          6           0       21.579504    4.213951   -2.610364
    121          8           0       20.428894    4.120659   -2.112928
    122          8           0       22.066272    5.270260   -3.284251
    123          6           0       21.189697    6.423861   -3.491313
    124          1           0       24.470489    1.794862    3.970786
    125          1           0       23.218236   -4.290030    2.781058
    126          1           0       22.671417   -3.093887   -3.440041
    127          1           0       24.334317    4.424375   -0.285566
    128          1           0       24.226011    3.880592    2.631146
    129          1           0       26.511555    2.532365    1.691191
    130          1           0       26.330523    4.034268    2.640751
    131          1           0       26.568256    4.064038    0.874839
    132          1           0       22.239828    4.784760    1.874827
    133          1           0       21.592175    4.221942    0.450453
    134          1           0       22.849138    6.211911   -0.783711
    135          1           0       23.270247    6.857291    0.807515
    136          1           0       23.196129    0.576760    6.306878
    137          1           0       24.691475    0.959492    5.732192
    138          1           0       24.720373   -0.433946    6.668175
    139          1           0       22.664765   -2.243517    7.221346
    140          1           0       24.402496   -2.680753    6.861059
    141          1           0       23.298418   -3.853094    7.504892
    142          1           0       22.703543   -5.547280    0.773580
    143          1           0       23.662999   -5.191438   -1.914139
    144          1           0       25.450847   -5.472260   -0.424398
    145          1           0       24.982986   -6.489144    0.879405
    146          1           0       25.507566   -4.870140    1.140292
    147          1           0       20.885535   -4.398332   -1.436943
    148          1           0       21.173882   -6.124474   -1.108281
    149          1           0       20.555397   -4.880659   -3.569269
    150          1           0       20.994694   -6.545231   -3.431964
    151          1           0       22.227006   -5.254621   -3.630446
    152          1           0       22.802679   -1.804932   -5.417541
    153          1           0       22.689945   -0.129301   -6.057706
    154          1           0       21.211811   -0.999412   -5.463678
    155          1           0       23.594478    3.753448   -2.846781
    156          1           0       21.561376    7.251847   -2.887916
    157          1           0       20.138582    6.174127   -3.350747
    158          1           0       21.318356    6.767234   -4.517709
 ---------------------------------------------------------------------

 SCF Done:  E(RPBE1PBE) =  -4067.39228328     A.U. after   16 cycles

 Excitation energies and oscillator strengths:

 Excited State   1:      Singlet-A      1.8106 eV  684.78 nm  f=0.3719  <S**2>=0.000
     309 -> 316       -0.15520
     312 -> 313        0.69950
     312 <- 313       -0.12510
 This state for optimization and/or second-order correction.
 Total Energy, E(TD-HF/TD-DFT) =  -4067.32574636
 Copying the excited state density for this state as the 1-particle RhoCI density.

 Excited State   2:      Singlet-A      1.8754 eV  661.10 nm  f=0.3720  <S**2>=0.000
     310 -> 315        0.18969
     311 -> 314        0.68799

 Excited State   3:      Singlet-A      1.9100 eV  649.15 nm  f=0.0000  <S**2>=0.000
     311 -> 313        0.70711

 Excited State   4:      Singlet-A      2.0301 eV  610.72 nm  f=0.0000  <S**2>=0.000
     312 -> 314        0.70711

 Excited State   5:      Singlet-A      2.2462 eV  551.98 nm  f=0.0666  <S**2>=0.000
     310 -> 314        0.63544
     311 -> 315       -0.29951

 The electronic state is 1-A.
 Alpha  occ. eigenvalues --  -46.91008 -46.90891 -19.25536 -19.25484 -19.19834
 Alpha  occ. eigenvalues --  -19.19467 -19.19312 -19.18875 -19.18871 -19.18705
 Alpha  occ. eigenvalues --  -14.42134 -14.42085 -14.41357 -14.41305 -14.39140
 Alpha  occ. eigenvalues --  -14.38585 -14.38449 -14.38113 -10.35577 -10.35442
 Alpha  occ. eigenvalues --  -10.33049 -10.32466 -10.31943 -10.31861 -10.29751
 Alpha  occ. eigenvalues --  -10.29467 -10.29463 -10.29017 -10.29005 -10.28507
 Alpha  occ. eigenvalues --  -10.28360 -10.28248 -10.28241 -10.28091 -10.27831
 Alpha  occ. eigenvalues --  -10.27743 -10.27625 -10.27323 -10.27142 -10.27045
 Alpha  occ. eigenvalues --  -10.26982 -10.26961 -10.26592 -10.26554 -10.26515
 Alpha  occ. eigenvalues --  -10.26379 -10.26238 -10.26199 -10.26180 -10.25688
 Alpha  occ. eigenvalues --  -10.25624 -10.25599 -10.25598 -10.25595 -10.25593
 Alpha  occ. eigenvalues --  -10.25585 -10.25564 -10.25528 -10.25218 -10.25209
 Alpha  occ. eigenvalues --  -10.25073 -10.25062 -10.24951 -10.24948 -10.24932
 Alpha  occ. eigenvalues --  -10.24534 -10.24469 -10.24260 -10.24152 -10.24124
 Alpha  occ. eigenvalues --  -10.24046 -10.24003 -10.23997 -10.23960 -10.23516
 Alpha  occ. eigenvalues --  -10.23508 -10.23394 -10.23278 -10.23265 -10.23243
 Alpha  occ. eigenvalues --  -10.23187 -10.23180 -10.22856 -10.22546 -10.22509
 Alpha  occ. eigenvalues --  -10.22253  -3.13421  -3.13246  -1.86249  -1.86091
 Alpha  occ. eigenvalues --   -1.85808  -1.85661  -1.85639  -1.85467  -1.11609
 Alpha  occ. eigenvalues --   -1.10729  -1.05585  -1.05060  -1.04046  -1.03083
 Alpha  occ. eigenvalues --   -1.01885  -1.00336  -1.00043  -0.99869  -0.99008
 Alpha  occ. eigenvalues --   -0.98511  -0.98293  -0.97724  -0.97057  -0.96711
 Alpha  occ. eigenvalues --   -0.87602  -0.87124  -0.83446  -0.83377  -0.83113
 Alpha  occ. eigenvalues --   -0.82922  -0.82552  -0.82374  -0.82183  -0.81814
 Alpha  occ. eigenvalues --   -0.81482  -0.81192  -0.80884  -0.80641  -0.78835
 Alpha  occ. eigenvalues --   -0.78628  -0.78257  -0.78139  -0.76794  -0.76711
 Alpha  occ. eigenvalues --   -0.76480  -0.75809  -0.75651  -0.75492  -0.74897
 Alpha  occ. eigenvalues --   -0.74646  -0.72731  -0.72481  -0.71851  -0.71655
 Alpha  occ. eigenvalues --   -0.71508  -0.71230  -0.70461  -0.70258  -0.69756
 Alpha  occ. eigenvalues --   -0.69578  -0.67628  -0.67268  -0.66618  -0.66249
 Alpha  occ. eigenvalues --   -0.63860  -0.63615  -0.63308  -0.63225  -0.62658
 Alpha  occ. eigenvalues --   -0.62326  -0.61642  -0.60549  -0.60500  -0.60228
 Alpha  occ. eigenvalues --   -0.60025  -0.59453  -0.59391  -0.59182  -0.59033
 Alpha  occ. eigenvalues --   -0.58687  -0.56615  -0.56375  -0.54800  -0.54798
 Alpha  occ. eigenvalues --   -0.54570  -0.54396  -0.53781  -0.53701  -0.53487
 Alpha  occ. eigenvalues --   -0.53285  -0.52885  -0.52647  -0.52398  -0.51582
 Alpha  occ. eigenvalues --   -0.51136  -0.50928  -0.50447  -0.50415  -0.50065
 Alpha  occ. eigenvalues --   -0.49650  -0.49223  -0.48900  -0.48812  -0.48511
 Alpha  occ. eigenvalues --   -0.48010  -0.47974  -0.47956  -0.47686  -0.47478
 Alpha  occ. eigenvalues --   -0.47385  -0.47267  -0.47116  -0.46795  -0.46789
 Alpha  occ. eigenvalues --   -0.46297  -0.46272  -0.46246  -0.45973  -0.45888
 Alpha  occ. eigenvalues --   -0.45611  -0.45244  -0.45058  -0.44999  -0.44877
 Alpha  occ. eigenvalues --   -0.44783  -0.44592  -0.44573  -0.44437  -0.44261
 Alpha  occ. eigenvalues --   -0.44048  -0.43812  -0.43740  -0.43566  -0.43538
 Alpha  occ. eigenvalues --   -0.43396  -0.43099  -0.42956  -0.42728  -0.42722
 Alpha  occ. eigenvalues --   -0.42658  -0.42359  -0.42140  -0.42133  -0.41986
 Alpha  occ. eigenvalues --   -0.41830  -0.41614  -0.41593  -0.41317  -0.41220
 Alpha  occ. eigenvalues --   -0.41121  -0.41112  -0.40836  -0.40621  -0.40549
 Alpha  occ. eigenvalues --   -0.40497  -0.40291  -0.40170  -0.39964  -0.39936
 Alpha  occ. eigenvalues --   -0.39669  -0.39419  -0.38985  -0.38933  -0.38599
 Alpha  occ. eigenvalues --   -0.38560  -0.38549  -0.38413  -0.38336  -0.38301
 Alpha  occ. eigenvalues --   -0.38203  -0.37953  -0.37727  -0.37695  -0.37675
 Alpha  occ. eigenvalues --   -0.37446  -0.37062  -0.36884  -0.36868  -0.36704
 Alpha  occ. eigenvalues --   -0.36699  -0.36531  -0.36346  -0.36249  -0.36035
 Alpha  occ. eigenvalues --   -0.35975  -0.35773  -0.35712  -0.35575  -0.35538
 Alpha  occ. eigenvalues --   -0.35317  -0.35219  -0.34911  -0.34728  -0.34536
 Alpha  occ. eigenvalues --   -0.33698  -0.33351  -0.32967  -0.32849  -0.32462
 Alpha  occ. eigenvalues --   -0.32458  -0.32036  -0.31969  -0.31666  -0.31488
 Alpha  occ. eigenvalues --   -0.30495  -0.30377  -0.29482  -0.29475  -0.29200
 Alpha  occ. eigenvalues --   -0.29100  -0.28460  -0.27890  -0.27053  -0.27001
 Alpha  occ. eigenvalues --   -0.26424  -0.26190  -0.25989  -0.25978  -0.25591
 Alpha  occ. eigenvalues --   -0.25398  -0.25229  -0.24799  -0.21454  -0.21128
 Alpha  occ. eigenvalues --   -0.18809  -0.18774
 Alpha virt. eigenvalues --   -0.11503  -0.11025  -0.05762  -0.05097  -0.04486
 Alpha virt. eigenvalues --   -0.03824  -0.02055  -0.01968   0.00150   0.00204
 Alpha virt. eigenvalues --    0.00822   0.00937   0.01006   0.01379   0.01471

 Mulliken charges:
               1
     1  Mg  11.998541
     2  C    5.975182
     3  C    5.995402
     4  C    6.029663
     5  C    6.013518
     6  N    6.988176
     7  C    6.038923
     8  C    5.985303
     9  C    6.006723
    10  C    5.975288
    11  C    6.004204
    12  C    5.997184
    13  C    6.002415
    14  H    0.995918
    15  N    7.006050
    16  C    5.963710
    17  C    5.976376
    18  C    5.992433
    19  C    5.955112
    20  C    6.004755
    21  C    5.987507
    22  O    7.974922
    23  C    6.005562
    24  N    7.017900
    25  C    5.961485
    26  C    6.007935
    27  C    5.994679
    28  C    6.020910
    29  C    6.001071
    30  C    5.992637
    31  C    5.999394
    32  N    6.996239
    33  C    6.022565
    34  C    6.034985
    35  C    5.998717
    36  C    6.031590
    37  C    5.995941
    38  C    6.015352
    39  O    8.026329
    40  C    6.002823
    41  C    6.001801
    42  O    8.003878
    43  O    8.001688
    44  C    5.999118
    45  H    0.983686
    46  H    0.995709
    47  H    1.013951
    48  H    1.001858
    49  H    0.998864
    50  H    0.999762
    51  H    0.985452
    52  H    1.001592
    53  H    1.005208
    54  H    0.992607
    55  H    1.006937
    56  H    1.002276
    57  H    0.981700
    58  H    0.982795
    59  H    0.984818
    60  H    0.986368
    61  H    0.994329
    62  H    0.994516
    63  H    1.001570
    64  H    1.001200
    65  H    0.987917
    66  H    0.994483
    67  H    1.007450
    68  H    0.995334
    69  H    1.015155
    70  H    1.007187
    71  H    1.004574
    72  H    0.999456
    73  H    1.022010
    74  H    1.017624
    75  H    1.015892
    76  H    1.007625
    77  H    1.005020
    78  H    1.004967
    79  H    1.000203
    80  Mg  12.000023
    81  C    6.000005
    82  C    6.000052
    83  C    5.999959
    84  C    5.999943
    85  N    7.000006
    86  C    6.000096
    87  C    5.999964
    88  C    6.000046
    89  C    5.999849
    90  C    6.000019
    91  C    5.999988
    92  C    5.999971
    93  H    1.000074
    94  N    6.999997
    95  C    5.999862
    96  C    5.999929
    97  C    5.999881
    98  C    6.000002
    99  C    6.000027
   100  C    5.999901
   101  O    7.999866
   102  C    6.000034
   103  N    6.999960
   104  C    5.999960
   105  C    6.000043
   106  C    5.999954
   107  C    6.000106
   108  C    6.000030
   109  C    5.999981
   110  C    5.999993
   111  N    7.000014
   112  C    6.000136
   113  C    6.000157
   114  C    5.999985
   115  C    6.000102
   116  C    6.000011
   117  C    6.000136
   118  O    8.000164
   119  C    5.999933
   120  C    6.000033
   121  O    8.000079
   122  O    7.999986
   123  C    5.999977
   124  H    0.999928
   125  H    0.999972
   126  H    1.000064
   127  H    0.999985
   128  H    0.999998
   129  H    0.999984
   130  H    0.999962
   131  H    0.999915
   132  H    1.000055
   133  H    1.000024
   134  H    0.999979
   135  H    0.999986
   136  H    0.999916
   137  H    0.999894
   138  H    0.999884
   139  H    0.999968
   140  H    0.999941
   141  H    0.999902
   142  H    1.000020
   143  H    0.999998
   144  H    0.999926
   145  H    0.999966
   146  H    0.999996
   147  H    1.000040
   148  H    1.000066
   149  H    1.000038
   150  H    1.000045
   151  H    0.999954
   152  H    1.000047
   153  H    1.000058
   154  H    1.000146
   155  H    1.000013
   156  H    1.000005
   157  H    1.000067
   158  H    1.000020
 Sum of Mulliken charges = 624.00000

 Dipole moment (field-independent basis, Debye):
    X=             -8.4757    Y=             -0.7013    Z=              6.0008  Tot=             10.4087
 Quadrupole moment (field-independent basis, Debye-Ang):
   XX=            381.9040   YY=              3.7971   ZZ=             -2.1930
   XY=             20.7972   XZ=           -137.0415   YZ=             -4.0429

 Normal termination of Gaussian 16 at Fri Oct 15 05:02:46 2021.
