 Gaussian 16, Revision A.03,
 Gaussian 16:  ES64L-G16RevA.03 25-Dec-2016

 --------------------------------------------------------
 #p PBE1PBE/Def2SVP td=(nstates=5) density=(transition=1)
 --------------------------------------------------------

 --------------------------------
 TDDFT excited states in gaussian
 --------------------------------
 Symbolic Z-matrix:
 Charge =  0 Multiplicity = 1

                         Standard orientation:
 ---------------------------------------------------------------------
 Center     Atomic      Atomic             Coordinates (Angstroms)
 Number     Number       Type             X           Y           Z
 ---------------------------------------------------------------------
      1         12           0       21.937602   -0.889141    0.007041
      2          6           0       22.711067    2.540438   -0.768807
      3          6           0       18.703805    0.112591    0.446282
      4          6           0       21.286982   -4.019203    1.022361
      5          6           0       25.272572   -1.543919   -0.013039
      6          7           0       20.804667    1.191066   -0.209410
      7          6           0       21.375807    2.375184   -0.575600
      8          6           0       20.275293    3.345332   -0.783016
      9          6           0       18.995891    2.630989   -0.266088
     10          6           0       19.471494    1.194264    0.083338
     11          6           0       18.402144    3.339177    0.993036
     12          6           0       20.126949    3.883615   -2.184087
     13          6           0       19.185783    5.050832   -2.434593
     14          1           0       19.721819    6.182190   -3.207007
     15          7           0       20.234805   -1.834468    0.529697
     16          6           0       18.974938   -1.214258    0.755219
     17          6           0       18.018959   -2.300575    1.040938
     18          6           0       18.790721   -3.433624    1.284832
     19          6           0       20.199079   -3.102736    1.001643
     20          6           0       16.539254   -2.021739    1.202867
     21          6           0       18.349752   -4.857972    1.685708
     22          8           0       19.127008   -5.739422    2.097582
     23          6           0       16.918788   -5.178970    1.535220
     24          7           0       23.116851   -2.573382    0.518918
     25          6           0       22.676580   -3.756989    0.893544
     26          6           0       23.812812   -4.778844    1.172567
     27          6           0       25.015159   -4.029259    0.594479
     28          6           0       24.437033   -2.661948    0.309959
     29          6           0       23.957486   -5.075517    2.703392
     30          6           0       25.678873   -4.635592   -0.621344
     31          6           0       27.217801   -4.636735   -0.639074
     32          7           0       23.614219    0.229237   -0.409922
     33          6           0       24.921886   -0.203821   -0.382884
     34          6           0       25.861951    0.879562   -0.800998
     35          6           0       24.968339    1.925099   -0.917569
     36          6           0       23.655634    1.530492   -0.632289
     37          6           0       27.313911    0.775754   -1.141635
     38          6           0       24.916232    3.343168   -1.241356
     39          8           0       25.843330    4.065013   -1.590834
     40          6           0       23.448003    3.821012   -1.165083
     41          6           0       23.443752    4.999729   -0.336751
     42          8           0       23.538609    5.043432    0.913535
     43          8           0       23.147602    6.099394   -1.083408
     44          6           0       22.825942    7.334839   -0.403031
     45          1           0       17.652120    0.399360    0.506812
     46          1           0       21.106452   -4.981256    1.506105
     47          1           0       26.306202   -1.793193    0.235042
     48          1           0       20.540253    4.155205   -0.104572
     49          1           0       18.205597    2.598862   -1.016291
     50          1           0       17.355628    3.632763    1.080839
     51          1           0       18.982319    4.258046    1.076257
     52          1           0       18.643522    2.866959    1.945700
     53          1           0       19.715120    3.129250   -2.854696
     54          1           0       21.089169    3.986779   -2.684910
     55          1           0       18.846792    5.480519   -1.493152
     56          1           0       18.450219    4.674926   -3.145275
     57          1           0       16.087096   -2.494510    2.074480
     58          1           0       15.937836   -2.301467    0.338147
     59          1           0       16.286276   -0.976551    1.382565
     60          1           0       16.608712   -4.903192    0.527201
     61          1           0       16.457308   -4.522460    2.272051
     62          1           0       16.840069   -6.263422    1.602403
     63          1           0       23.562568   -5.671720    0.598616
     64          1           0       25.837011   -3.837225    1.283658
     65          1           0       24.893290   -4.684094    3.101241
     66          1           0       23.989071   -6.147629    2.897579
     67          1           0       23.115078   -4.568707    3.174373
     68          1           0       25.332469   -4.172619   -1.544789
     69          1           0       25.167558   -5.589203   -0.748751
     70          1           0       27.521921   -5.486989   -1.248774
     71          1           0       27.657303   -4.585826    0.357570
     72          1           0       27.419683   -3.678732   -1.117750
     73          1           0       27.521845    0.737197   -2.211086
     74          1           0       27.690837   -0.046955   -0.534704
     75          1           0       27.853722    1.587402   -0.652271
     76          1           0       23.238269    4.203399   -2.163989
     77          1           0       22.738996    7.248190    0.680363
     78          1           0       21.948674    7.802210   -0.849483
     79          1           0       23.591590    8.096052   -0.555093
     80         12           0      -22.811080    0.187496   -0.128056
     81          6           0      -19.326998    0.088393   -0.158151
     82          6           0      -22.853032   -1.893407   -2.876267
     83          6           0      -26.077414    0.337353    0.149263
     84          6           0      -22.630857    1.436919    3.290862
     85          7           0      -21.159990   -0.752259   -1.427051
     86          6           0      -19.808055   -0.685075   -1.238947
     87          6           0      -19.084254   -1.410694   -2.317061
     88          6           0      -20.232911   -2.085576   -3.167864
     89          6           0      -21.549134   -1.559865   -2.472880
     90          6           0      -20.108997   -1.884113   -4.699172
     91          6           0      -18.080241   -2.457045   -1.775270
     92          6           0      -16.699983   -2.256619   -2.398627
     93          1           0      -16.027704   -3.492129   -3.069868
     94          7           0      -24.271953   -0.643329   -1.243411
     95          6           0      -24.120707   -1.442992   -2.375307
     96          6           0      -25.472674   -1.686404   -2.861488
     97          6           0      -26.454201   -1.005127   -2.002075
     98          6           0      -25.608862   -0.312156   -0.979105
     99          6           0      -25.763966   -2.620874   -3.926268
    100          6           0      -27.905194   -1.208812   -2.148283
    101          8           0      -28.415617   -1.886433   -3.015594
    102          6           0      -28.917462   -0.687635   -1.188828
    103          7           0      -24.088565    0.741754    1.460903
    104          6           0      -25.413604    0.975519    1.193167
    105          6           0      -26.111744    1.495586    2.432018
    106          6           0      -25.098872    1.356865    3.506293
    107          6           0      -23.881487    1.103431    2.765130
    108          6           0      -26.780940    2.922512    2.277491
    109          6           0      -25.335756    0.106081    4.420531
    110          6           0      -24.883242    0.210393    5.803335
    111          7           0      -21.309535    0.710999    1.316198
    112          6           0      -21.372606    1.255189    2.605686
    113          6           0      -20.069198    1.700305    2.987618
    114          6           0      -19.228277    1.240517    1.981052
    115          6           0      -20.034768    0.593829    0.977796
    116          6           0      -19.778717    2.431019    4.246377
    117          6           0      -17.881356    1.132020    1.582770
    118          8           0      -16.873120    1.521228    2.128669
    119          6           0      -17.886471    0.453132    0.194933
    120          6           0      -17.209626    1.331977   -0.772006
    121          8           0      -17.744935    2.253237   -1.411323
    122          8           0      -15.855820    1.086897   -0.747133
    123          6           0      -14.971538    1.757581   -1.686280
    124          1           0      -22.789232   -2.500625   -3.781015
    125          1           0      -27.139170    0.413561    0.396705
    126          1           0      -22.626208    1.835940    4.307356
    127          1           0      -18.745855   -0.620803   -2.988218
    128          1           0      -20.251547   -3.172180   -3.089749
    129          1           0      -19.060320   -1.606182   -4.811416
    130          1           0      -20.819125   -1.198190   -5.161167
    131          1           0      -20.260505   -2.834411   -5.210528
    132          1           0      -18.316055   -3.484262   -2.052724
    133          1           0      -18.070725   -2.335358   -0.692278
    134          1           0      -16.123901   -2.079824   -1.490467
    135          1           0      -16.754831   -1.367311   -3.024765
    136          1           0      -24.816784   -3.009308   -4.301132
    137          1           0      -26.234587   -2.200833   -4.815696
    138          1           0      -26.335016   -3.458578   -3.524410
    139          1           0      -28.560417    0.338754   -1.104093
    140          1           0      -28.810433   -1.222948   -0.245016
    141          1           0      -29.921985   -0.731508   -1.610228
    142          1           0      -26.940925    0.799624    2.553848
    143          1           0      -24.858548    2.240204    4.098038
    144          1           0      -26.788720    3.229365    1.231437
    145          1           0      -26.404115    3.683913    2.961299
    146          1           0      -27.858076    2.910489    2.441700
    147          1           0      -24.883408   -0.768701    3.953210
    148          1           0      -26.398352   -0.128192    4.482663
    149          1           0      -25.678640    0.663287    6.396218
    150          1           0      -23.946004    0.760764    5.892047
    151          1           0      -24.860304   -0.781069    6.256787
    152          1           0      -20.570176    3.142902    4.480328
    153          1           0      -18.808454    2.927859    4.256191
    154          1           0      -19.865865    1.660972    5.012942
    155          1           0      -17.243696   -0.426166    0.150728
    156          1           0      -14.760475    2.818403   -1.550953
    157          1           0      -15.321577    1.582152   -2.703329
    158          1           0      -14.004067    1.286865   -1.515541
 ---------------------------------------------------------------------

 SCF Done:  E(RPBE1PBE) =  -4067.36023894     A.U. after   16 cycles

 Excitation energies and oscillator strengths:

 Excited State   1:      Singlet-A      1.8164 eV  682.60 nm  f=0.0000  <S**2>=0.000
     312 -> 313        0.70711
 This state for optimization and/or second-order correction.
 Total Energy, E(TD-HF/TD-DFT) =  -4067.29348897
 Copying the excited state density for this state as the 1-particle RhoCI density.

 Excited State   2:      Singlet-A      1.8373 eV  674.82 nm  f=0.3568  <S**2>=0.000
     309 -> 315       -0.18253
     311 -> 313        0.68986
     311 <- 313       -0.10421

 Excited State   3:      Singlet-A      1.9171 eV  646.72 nm  f=0.3687  <S**2>=0.000
     310 -> 316        0.19062
     312 -> 314        0.68791

 Excited State   4:      Singlet-A      2.1967 eV  564.41 nm  f=0.0975  <S**2>=0.000
     309 -> 313        0.64584
     311 -> 315        0.27299

 Excited State   5:      Singlet-A      2.2450 eV  552.27 nm  f=0.0000  <S**2>=0.000
     311 -> 314        0.70711

 The electronic state is 1-A.
 Alpha  occ. eigenvalues --  -46.92344 -46.91903 -19.25820 -19.25548 -19.19607
 Alpha  occ. eigenvalues --  -19.19216 -19.19089 -19.18858 -19.18654 -19.17610
 Alpha  occ. eigenvalues --  -14.41856 -14.41474 -14.41410 -14.40620 -14.39943
 Alpha  occ. eigenvalues --  -14.39425 -14.39263 -14.38878 -10.36123 -10.36116
 Alpha  occ. eigenvalues --  -10.32334 -10.31647 -10.31379 -10.30825 -10.29351
 Alpha  occ. eigenvalues --  -10.29345 -10.29205 -10.28918 -10.28744 -10.28730
 Alpha  occ. eigenvalues --  -10.28457 -10.28439 -10.28407 -10.28270 -10.28263
 Alpha  occ. eigenvalues --  -10.28218 -10.28151 -10.28043 -10.27820 -10.27720
 Alpha  occ. eigenvalues --  -10.26858 -10.26639 -10.26525 -10.26424 -10.26224
 Alpha  occ. eigenvalues --  -10.26182 -10.26162 -10.26128 -10.26081 -10.26047
 Alpha  occ. eigenvalues --  -10.25910 -10.25829 -10.25776 -10.25773 -10.25705
 Alpha  occ. eigenvalues --  -10.25587 -10.25476 -10.25385 -10.25158 -10.25072
 Alpha  occ. eigenvalues --  -10.25015 -10.24966 -10.24952 -10.24949 -10.24923
 Alpha  occ. eigenvalues --  -10.24814 -10.24784 -10.24696 -10.24500 -10.24310
 Alpha  occ. eigenvalues --  -10.24123 -10.23969 -10.23874 -10.23719 -10.23681
 Alpha  occ. eigenvalues --  -10.23597 -10.23490 -10.23484 -10.23414 -10.23326
 Alpha  occ. eigenvalues --  -10.23175 -10.23006 -10.22537 -10.22494 -10.22352
 Alpha  occ. eigenvalues --  -10.22276  -3.14416  -3.14086  -1.87260  -1.86936
 Alpha  occ. eigenvalues --   -1.86799  -1.86629  -1.86452  -1.86322  -1.10891
 Alpha  occ. eigenvalues --   -1.10233  -1.04875  -1.04592  -1.04232  -1.03722
 Alpha  occ. eigenvalues --   -1.01524  -1.00743  -1.00437  -0.99616  -0.99317
 Alpha  occ. eigenvalues --   -0.98495  -0.97682  -0.97656  -0.96814  -0.96192
 Alpha  occ. eigenvalues --   -0.87556  -0.87049  -0.85133  -0.84431  -0.83882
 Alpha  occ. eigenvalues --   -0.83586  -0.83404  -0.82782  -0.82078  -0.81868
 Alpha  occ. eigenvalues --   -0.81630  -0.81397  -0.80979  -0.80577  -0.79552
 Alpha  occ. eigenvalues --   -0.78985  -0.78890  -0.78344  -0.77767  -0.77218
 Alpha  occ. eigenvalues --   -0.76826  -0.76751  -0.75761  -0.75595  -0.75278
 Alpha  occ. eigenvalues --   -0.75182  -0.73038  -0.72942  -0.72312  -0.72040
 Alpha  occ. eigenvalues --   -0.71766  -0.71439  -0.70878  -0.70651  -0.69766
 Alpha  occ. eigenvalues --   -0.69608  -0.67894  -0.67471  -0.66515  -0.66415
 Alpha  occ. eigenvalues --   -0.63934  -0.63827  -0.63657  -0.63498  -0.62501
 Alpha  occ. eigenvalues --   -0.62375  -0.61892  -0.60957  -0.60941  -0.60859
 Alpha  occ. eigenvalues --   -0.60440  -0.59855  -0.59836  -0.59661  -0.59302
 Alpha  occ. eigenvalues --   -0.59124  -0.57146  -0.56645  -0.55324  -0.54929
 Alpha  occ. eigenvalues --   -0.54507  -0.54101  -0.54068  -0.54038  -0.53661
 Alpha  occ. eigenvalues --   -0.53409  -0.52860  -0.52565  -0.52236  -0.51881
 Alpha  occ. eigenvalues --   -0.51066  -0.51015  -0.50418  -0.50259  -0.50098
 Alpha  occ. eigenvalues --   -0.50063  -0.49763  -0.49050  -0.48972  -0.48853
 Alpha  occ. eigenvalues --   -0.48577  -0.48447  -0.47947  -0.47931  -0.47751
 Alpha  occ. eigenvalues --   -0.47487  -0.47472  -0.47122  -0.46793  -0.46653
 Alpha  occ. eigenvalues --   -0.46509  -0.46497  -0.46361  -0.46304  -0.46237
 Alpha  occ. eigenvalues --   -0.45995  -0.45843  -0.45798  -0.45428  -0.45041
 Alpha  occ. eigenvalues --   -0.45039  -0.44874  -0.44678  -0.44596  -0.44245
 Alpha  occ. eigenvalues --   -0.44218  -0.44128  -0.43803  -0.43641  -0.43509
 Alpha  occ. eigenvalues --   -0.43286  -0.43248  -0.43132  -0.43034  -0.42998
 Alpha  occ. eigenvalues --   -0.42577  -0.42399  -0.42322  -0.42023  -0.41906
 Alpha  occ. eigenvalues --   -0.41862  -0.41749  -0.41711  -0.41522  -0.41300
 Alpha  occ. eigenvalues --   -0.41286  -0.41051  -0.40967  -0.40907  -0.40853
 Alpha  occ. eigenvalues --   -0.40526  -0.40394  -0.40109  -0.39958  -0.39882
 Alpha  occ. eigenvalues --   -0.39775  -0.39356  -0.39335  -0.39271  -0.38899
 Alpha  occ. eigenvalues --   -0.38772  -0.38566  -0.38546  -0.38517  -0.38247
 Alpha  occ. eigenvalues --   -0.38128  -0.38119  -0.38033  -0.37914  -0.37836
 Alpha  occ. eigenvalues --   -0.37443  -0.37353  -0.37212  -0.36982  -0.36925
 Alpha  occ. eigenvalues --   -0.36634  -0.36596  -0.36470  -0.36393  -0.36379
 Alpha  occ. eigenvalues --   -0.36170  -0.36082  -0.36081  -0.35987  -0.35745
 Alpha  occ. eigenvalues --   -0.35611  -0.35173  -0.35046  -0.34903  -0.34107
 Alpha  occ. eigenvalues --   -0.33745  -0.33551  -0.32919  -0.32704  -0.32340
 Alpha  occ. eigenvalues --   -0.32129  -0.32048  -0.31422  -0.31272  -0.31073
 Alpha  occ. eigenvalues --   -0.30993  -0.30595  -0.29554  -0.29076  -0.28947
 Alpha  occ. eigenvalues --   -0.28583  -0.28253  -0.28190  -0.27173  -0.27055
 Alpha  occ. eigenvalues --   -0.26202  -0.25881  -0.25744  -0.25721  -0.25512
 Alpha  occ. eigenvalues --   -0.25407  -0.25076  -0.24348  -0.21286  -0.21013
 Alpha  occ. eigenvalues --   -0.19246  -0.18610
 Alpha virt. eigenvalues --   -0.11638  -0.10699  -0.05991  -0.05244  -0.03971
 Alpha virt. eigenvalues --   -0.03510  -0.02072  -0.01921  -0.00218  -0.00134
 Alpha virt. eigenvalues --   -0.00074   0.00376   0.00717   0.01197   0.01443

 Mulliken charges:
               1
     1  Mg  12.000000
     2  C    6.000000
     3  C    6.000000
     4  C    6.000000
     5  C    6.000000
     6  N    7.000000
     7  C    6.000000
     8  C    6.000000
     9  C    6.000000
    10  C    6.000000
    11  C    6.000000
    12  C    6.000000
    13  C    6.000000
    14  H    1.000000
    15  N    7.000000
    16  C    6.000000
    17  C    6.000000
    18  C    6.000000
    19  C    6.000000
    20  C    6.000000
    21  C    6.000000
    22  O    8.000000
    23  C    6.000000
    24  N    7.000000
    25  C    6.000000
    26  C    6.000000
    27  C    6.000000
    28  C    6.000000
    29  C    6.000000
    30  C    6.000000
    31  C    6.000000
    32  N    7.000000
    33  C    6.000000
    34  C    6.000000
    35  C    6.000000
    36  C    6.000000
    37  C    6.000000
    38  C    6.000000
    39  O    8.000000
    40  C    6.000000
    41  C    6.000000
    42  O    8.000000
    43  O    8.000000
    44  C    6.000000
    45  H    1.000000
    46  H    1.000000
    47  H    1.000000
    48  H    1.000000
    49  H    1.000000
    50  H    1.000000
    51  H    1.000000
    52  H    1.000000
    53  H    1.000000
    54  H    1.000000
    55  H    1.000000
    56  H    1.000000
    57  H    1.000000
    58  H    1.000000
    59  H    1.000000
    60  H    1.000000
    61  H    1.000000
    62  H    1.000000
    63  H    1.000000
    64  H    1.000000
    65  H    1.000000
    66  H    1.000000
    67  H    1.000000
    68  H    1.000000
    69  H    1.000000
    70  H    1.000000
    71  H    1.000000
    72  H    1.000000
    73  H    1.000000
    74  H    1.000000
    75  H    1.000000
    76  H    1.000000
    77  H    1.000000
    78  H    1.000000
    79  H    1.000000
    80  Mg  12.000000
    81  C    6.000000
    82  C    6.000000
    83  C    6.000000
    84  C    6.000000
    85  N    7.000000
    86  C    6.000000
    87  C    6.000000
    88  C    6.000000
    89  C    6.000000
    90  C    6.000000
    91  C    6.000000
    92  C    6.000000
    93  H    1.000000
    94  N    7.000000
    95  C    6.000000
    96  C    6.000000
    97  C    6.000000
    98  C    6.000000
    99  C    6.000000
   100  C    6.000000
   101  O    8.000000
   102  C    6.000000
   103  N    7.000000
   104  C    6.000000
   105  C    6.000000
   106  C    6.000000
   107  C    6.000000
   108  C    6.000000
   109  C    6.000000
   110  C    6.000000
   111  N    7.000000
   112  C    6.000000
   113  C    6.000000
   114  C    6.000000
   115  C    6.000000
   116  C    6.000000
   117  C    6.000000
   118  O    8.000000
   119  C    6.000000
   120  C    6.000000
   121  O    8.000000
   122  O    8.000000
   123  C    6.000000
   124  H    1.000000
   125  H    1.000000
   126  H    1.000000
   127  H    1.000000
   128  H    1.000000
   129  H    1.000000
   130  H    1.000000
   131  H    1.000000
   132  H    1.000000
   133  H    1.000000
   134  H    1.000000
   135  H    1.000000
   136  H    1.000000
   137  H    1.000000
   138  H    1.000000
   139  H    1.000000
   140  H    1.000000
   141  H    1.000000
   142  H    1.000000
   143  H    1.000000
   144  H    1.000000
   145  H    1.000000
   146  H    1.000000
   147  H    1.000000
   148  H    1.000000
   149  H    1.000000
   150  H    1.000000
   151  H    1.000000
   152  H    1.000000
   153  H    1.000000
   154  H    1.000000
   155  H    1.000000
   156  H    1.000000
   157  H    1.000000
   158  H    1.000000
 Sum of Mulliken charges = 624.00000

 Dipole moment (field-independent basis, Debye):
    X=             -0.0000    Y=             -0.0000    Z=             -0.0000  Tot=              0.0000
 Quadrupole moment (field-independent basis, Debye-Ang):
   XX=              0.0000   YY=              0.0000   ZZ=             -0.0000
   XY=              0.0000   XZ=              0.0000   YZ=              0.0000

 Normal termination of Gaussian 16 at Fri Oct 15 05:24:42 2021.
