 Gaussian 16, Revision A.03,
 Gaussian 16:  ES64L-G16RevA.03 25-Dec-2016

 --------------------------------------------------------
 #p PBE1PBE/Def2SVP td=(nstates=5) density=(transition=1)
 --------------------------------------------------------

 --------------------------------
 TDDFT excited states in gaussian
 --------------------------------
 Symbolic Z-matrix:
 Charge =  0 Multiplicity = 1

                         Standard orientation:
 ---------------------------------------------------------------------
 Center     Atomic      Atomic             Coordinates (Angstroms)
 Number     Number       Type             X           Y           Z
 ---------------------------------------------------------------------
      1         12           0       -4.722145   -0.305866    0.846891
      2          6           0       -4.828180    3.061955    0.201662
      3          6           0       -1.891236    0.204968    2.713019
      4          6           0       -4.533855   -3.721650    1.417081
      5          6           0       -7.312104   -0.821075   -1.399670
      6          7           0       -3.427951    1.448295    1.378821
      7          6           0       -3.767773    2.728639    1.046159
      8          6           0       -2.829085    3.681029    1.611483
      9          6           0       -1.736923    2.841381    2.255062
     10          6           0       -2.336099    1.375442    2.100857
     11          6           0       -0.274865    2.951335    1.699873
     12          6           0       -3.532838    4.670952    2.601087
     13          6           0       -2.962256    6.129285    2.676383
     14          1           0       -1.465527    6.317171    2.359938
     15          7           0       -3.436973   -1.546098    2.025504
     16          6           0       -2.330210   -1.107371    2.731913
     17          6           0       -1.695510   -2.266027    3.392332
     18          6           0       -2.474929   -3.445390    3.021653
     19          6           0       -3.546115   -2.942200    2.144222
     20          6           0       -0.441923   -2.193475    4.248823
     21          6           0       -2.310550   -4.857037    3.534526
     22          8           0       -3.118914   -5.729290    3.170980
     23          6           0       -1.218832   -5.309241    4.430473
     24          7           0       -5.714644   -2.047696    0.062360
     25          6           0       -5.485677   -3.288282    0.502443
     26          6           0       -6.510160   -4.273114   -0.085149
     27          6           0       -7.607468   -3.327235   -0.821326
     28          6           0       -6.866678   -1.955821   -0.639056
     29          6           0       -5.823024   -5.322084   -1.012767
     30          6           0       -9.010532   -3.288231   -0.155969
     31          6           0      -10.147531   -3.934810   -0.961298
     32          7           0       -5.835072    0.843537   -0.435505
     33          6           0       -6.862576    0.502911   -1.318250
     34          6           0       -7.370998    1.713966   -1.999862
     35          6           0       -6.560054    2.715627   -1.416023
     36          6           0       -5.648636    2.139985   -0.490823
     37          6           0       -8.457146    1.825029   -2.952466
     38          6           0       -6.371255    4.179010   -1.338480
     39          8           0       -6.962313    5.089466   -1.855648
     40          6           0       -5.209496    4.443123   -0.315623
     41          6           0       -4.188044    5.271537   -0.976030
     42          8           0       -3.463337    4.786458   -1.859787
     43          8           0       -4.028608    6.515589   -0.446804
     44          6           0       -2.906521    7.331642   -0.899724
     45          1           0       -0.992477    0.401828    3.301191
     46          1           0       -4.435511   -4.797290    1.579152
     47          1           0       -8.205438   -1.015814   -1.996565
     48          1           0       -2.400624    4.255272    0.789319
     49          1           0       -1.734379    2.957288    3.339505
     50          1           0       -0.016769    3.632432    0.888300
     51          1           0        0.038813    1.955490    1.387786
     52          1           0        0.467171    3.163427    2.470009
     53          1           0       -3.591777    4.218058    3.590864
     54          1           0       -4.603137    4.669231    2.395647
     55          1           0       -3.147563    6.551504    3.664458
     56          1           0       -3.391521    6.792091    1.925619
     57          1           0       -0.112724   -1.174075    4.447228
     58          1           0        0.401092   -2.674457    3.751957
     59          1           0       -0.661402   -2.531936    5.261272
     60          1           0       -1.438613   -6.346726    4.680497
     61          1           0       -1.126632   -4.714329    5.340084
     62          1           0       -0.258674   -5.157268    3.937124
     63          1           0       -7.042618   -4.713057    0.758182
     64          1           0       -7.692707   -3.538289   -1.887238
     65          1           0       -6.109088   -6.350591   -0.792271
     66          1           0       -4.738031   -5.272882   -0.916774
     67          1           0       -6.093427   -4.999261   -2.018417
     68          1           0       -9.350538   -2.279003    0.073289
     69          1           0       -9.011460   -3.777124    0.818487
     70          1           0       -9.739637   -4.719824   -1.598173
     71          1           0      -10.583609   -3.167635   -1.600350
     72          1           0      -10.906105   -4.235963   -0.239994
     73          1           0       -8.844567    2.840274   -3.034886
     74          1           0       -9.295773    1.165866   -2.729032
     75          1           0       -8.035106    1.692700   -3.948802
     76          1           0       -5.748612    4.965671    0.475295
     77          1           0       -2.967393    7.637739   -1.944447
     78          1           0       -1.955702    6.854560   -0.662350
     79          1           0       -2.904216    8.277018   -0.357400
     80         12           0        4.107291   -0.872449   -0.940652
     81          6           0        6.997506    0.831299   -0.329466
     82          6           0        2.389470    2.219829   -0.969397
     83          6           0        1.214784   -2.518872   -1.309336
     84          6           0        5.891084   -3.807854   -0.956560
     85          7           0        4.554853    1.229792   -0.375100
     86          6           0        5.871675    1.696017   -0.271776
     87          6           0        5.929555    3.239314   -0.090561
     88          6           0        4.418441    3.557613   -0.243577
     89          6           0        3.701429    2.241837   -0.486386
     90          6           0        3.636235    4.418427    0.837706
     91          6           0        6.834471    4.048633   -1.120454
     92          6           0        6.782661    5.578219   -0.861290
     93          1           0        8.076249    6.133734   -0.263897
     94          7           0        2.043094   -0.206892   -1.167163
     95          6           0        1.631896    1.091072   -1.381486
     96          6           0        0.180413    1.029654   -1.507295
     97          6           0       -0.150080   -0.360832   -1.597116
     98          6           0        1.045745   -1.112991   -1.381431
     99          6           0       -0.627716    2.265498   -1.608459
    100          6           0       -1.622535   -0.883667   -1.735332
    101          8           0       -1.946190   -2.081376   -1.602397
    102          6           0       -2.747709    0.090718   -1.967812
    103          7           0        3.642853   -2.767370   -1.071666
    104          6           0        2.320275   -3.272357   -1.218491
    105          6           0        2.283799   -4.767005   -0.993578
    106          6           0        3.722703   -5.122491   -1.362868
    107          6           0        4.495356   -3.824333   -1.177100
    108          6           0        1.918094   -5.155438    0.478370
    109          6           0        3.871692   -5.558038   -2.837787
    110          6           0        3.622835   -7.000537   -3.188146
    111          7           0        6.052139   -1.497413   -0.662247
    112          6           0        6.672056   -2.674921   -0.841902
    113          6           0        8.072277   -2.519823   -0.578905
    114          6           0        8.270691   -1.168365   -0.391776
    115          6           0        7.006093   -0.568246   -0.494699
    116          6           0        9.030206   -3.658050   -0.640129
    117          6           0        9.259848   -0.207657   -0.146510
    118          8           0       10.466665   -0.300062   -0.030614
    119          6           0        8.458630    1.176865   -0.094641
    120          6           0        8.735313    1.815338    1.220283
    121          8           0        8.383576    1.427772    2.307874
    122          8           0        9.324539    3.004836    1.066054
    123          6           0        9.611552    3.781669    2.333104
    124          1           0        1.960441    3.212622   -1.119269
    125          1           0        0.280302   -3.069183   -1.435953
    126          1           0        6.541357   -4.676928   -1.073189
    127          1           0        6.253476    3.454580    0.927741
    128          1           0        4.255852    4.104003   -1.173103
    129          1           0        2.873106    5.096742    0.455172
    130          1           0        4.343623    4.858877    1.540573
    131          1           0        3.045314    3.681808    1.381881
    132          1           0        6.456719    3.728377   -2.090678
    133          1           0        7.859373    3.689680   -1.027382
    134          1           0        5.887549    5.828608   -0.291918
    135          1           0        6.686306    6.052353   -1.837585
    136          1           0       -1.215668    2.355918   -0.694893
    137          1           0       -1.154039    2.197568   -2.560559
    138          1           0        0.014157    3.139809   -1.717487
    139          1           0       -3.685005   -0.450050   -2.098790
    140          1           0       -2.527349    0.512098   -2.949579
    141          1           0       -2.868508    0.891620   -1.238855
    142          1           0        1.552982   -5.246007   -1.645752
    143          1           0        4.157391   -5.889629   -0.722379
    144          1           0        2.753048   -4.968681    1.152582
    145          1           0        1.612635   -6.200878    0.528939
    146          1           0        1.062314   -4.532098    0.735227
    147          1           0        4.835470   -5.284640   -3.265427
    148          1           0        3.218224   -4.949492   -3.463045
    149          1           0        2.806034   -7.008058   -3.909302
    150          1           0        3.191721   -7.403272   -2.271474
    151          1           0        4.511212   -7.553002   -3.494632
    152          1           0        9.525918   -3.684138   -1.609757
    153          1           0        8.685380   -4.644095   -0.327307
    154          1           0        9.811836   -3.406187    0.076824
    155          1           0        8.824345    1.812788   -0.901167
    156          1           0        8.683177    3.811737    2.903893
    157          1           0        9.894889    4.818005    2.147325
    158          1           0       10.393244    3.251076    2.877176
 ---------------------------------------------------------------------

 SCF Done:  E(RPBE1PBE) =  -4067.44138254     A.U. after   17 cycles

 Excitation energies and oscillator strengths:

 Excited State   1:      Singlet-A      1.4846 eV  835.16 nm  f=0.0000  <S**2>=0.000
     312 -> 313        0.70614
 This state for optimization and/or second-order correction.
 Total Energy, E(TD-HF/TD-DFT) =  -4067.38682587
 Copying the excited state density for this state as the 1-particle RhoCI density.

 Excited State   2:      Singlet-A      1.7955 eV  690.51 nm  f=0.0250  <S**2>=0.000
     311 -> 313        0.19637
     311 -> 314        0.67645

 Excited State   3:      Singlet-A      1.8004 eV  688.64 nm  f=0.4107  <S**2>=0.000
     309 -> 315       -0.13333
     311 -> 313        0.67069
     311 -> 314       -0.19633
     311 <- 313       -0.11814

 Excited State   4:      Singlet-A      1.8802 eV  659.41 nm  f=0.3360  <S**2>=0.000
     310 -> 316        0.16182
     312 -> 314        0.68731
     312 <- 314       -0.10236

 Excited State   5:      Singlet-A      2.0961 eV  591.49 nm  f=0.0002  <S**2>=0.000
     310 -> 313        0.70622

 The electronic state is 1-A.
 Alpha  occ. eigenvalues --  -46.92101 -46.90901 -19.26984 -19.25570 -19.20004
 Alpha  occ. eigenvalues --  -19.19477 -19.19321 -19.18962 -19.18726 -19.18407
 Alpha  occ. eigenvalues --  -14.42172 -14.41360 -14.41277 -14.41072 -14.38931
 Alpha  occ. eigenvalues --  -14.38818 -14.38547 -14.38461 -10.36965 -10.35522
 Alpha  occ. eigenvalues --  -10.32198 -10.32102 -10.31957 -10.31895 -10.29966
 Alpha  occ. eigenvalues --  -10.29758 -10.29570 -10.29004 -10.28562 -10.28412
 Alpha  occ. eigenvalues --  -10.28348 -10.28185 -10.28132 -10.27844 -10.27611
 Alpha  occ. eigenvalues --  -10.27609 -10.27530 -10.27281 -10.27099 -10.27058
 Alpha  occ. eigenvalues --  -10.27045 -10.26681 -10.26546 -10.26497 -10.26461
 Alpha  occ. eigenvalues --  -10.26359 -10.26221 -10.26198 -10.26019 -10.25809
 Alpha  occ. eigenvalues --  -10.25705 -10.25679 -10.25628 -10.25581 -10.25574
 Alpha  occ. eigenvalues --  -10.25419 -10.25266 -10.25261 -10.25233 -10.25090
 Alpha  occ. eigenvalues --  -10.25055 -10.25010 -10.24982 -10.24954 -10.24546
 Alpha  occ. eigenvalues --  -10.24514 -10.24353 -10.24305 -10.24017 -10.23994
 Alpha  occ. eigenvalues --  -10.23653 -10.23517 -10.23511 -10.23496 -10.23478
 Alpha  occ. eigenvalues --  -10.23421 -10.23377 -10.23213 -10.23207 -10.23181
 Alpha  occ. eigenvalues --  -10.23002 -10.22673 -10.22608 -10.22557 -10.22540
 Alpha  occ. eigenvalues --  -10.22495  -3.14105  -3.13257  -1.86966  -1.86465
 Alpha  occ. eigenvalues --   -1.86335  -1.86103  -1.85650  -1.85477  -1.11694
 Alpha  occ. eigenvalues --   -1.11596  -1.05791  -1.05074  -1.03440  -1.02884
 Alpha  occ. eigenvalues --   -1.02341  -1.01972  -1.00044  -0.99831  -0.98626
 Alpha  occ. eigenvalues --   -0.98549  -0.97878  -0.97721  -0.96671  -0.95367
 Alpha  occ. eigenvalues --   -0.87619  -0.86921  -0.83582  -0.83379  -0.83113
 Alpha  occ. eigenvalues --   -0.82988  -0.82442  -0.82197  -0.81884  -0.81433
 Alpha  occ. eigenvalues --   -0.81397  -0.81016  -0.80604  -0.80276  -0.78651
 Alpha  occ. eigenvalues --   -0.78322  -0.78275  -0.77757  -0.76828  -0.76628
 Alpha  occ. eigenvalues --   -0.75935  -0.75696  -0.75542  -0.75504  -0.74863
 Alpha  occ. eigenvalues --   -0.74649  -0.72662  -0.72607  -0.71961  -0.71861
 Alpha  occ. eigenvalues --   -0.71602  -0.71415  -0.70549  -0.70521  -0.69546
 Alpha  occ. eigenvalues --   -0.69112  -0.67595  -0.66983  -0.66292  -0.65911
 Alpha  occ. eigenvalues --   -0.63878  -0.63664  -0.63363  -0.62671  -0.62620
 Alpha  occ. eigenvalues --   -0.62461  -0.61283  -0.60453  -0.60351  -0.60246
 Alpha  occ. eigenvalues --   -0.59650  -0.59621  -0.59393  -0.59189  -0.58849
 Alpha  occ. eigenvalues --   -0.58665  -0.57457  -0.56670  -0.54751  -0.54579
 Alpha  occ. eigenvalues --   -0.54419  -0.53972  -0.53808  -0.53671  -0.53524
 Alpha  occ. eigenvalues --   -0.53346  -0.52880  -0.52797  -0.52409  -0.51766
 Alpha  occ. eigenvalues --   -0.51073  -0.50643  -0.50578  -0.50504  -0.49850
 Alpha  occ. eigenvalues --   -0.49546  -0.49496  -0.49281  -0.48950  -0.48797
 Alpha  occ. eigenvalues --   -0.48041  -0.48028  -0.47996  -0.47492  -0.47361
 Alpha  occ. eigenvalues --   -0.47304  -0.47017  -0.46825  -0.46658  -0.46447
 Alpha  occ. eigenvalues --   -0.46338  -0.46264  -0.46156  -0.46006  -0.45946
 Alpha  occ. eigenvalues --   -0.45871  -0.45803  -0.44997  -0.44840  -0.44728
 Alpha  occ. eigenvalues --   -0.44627  -0.44472  -0.44353  -0.44276  -0.44186
 Alpha  occ. eigenvalues --   -0.44096  -0.43877  -0.43539  -0.43515  -0.43420
 Alpha  occ. eigenvalues --   -0.43211  -0.42978  -0.42842  -0.42829  -0.42707
 Alpha  occ. eigenvalues --   -0.42382  -0.42348  -0.42035  -0.41960  -0.41850
 Alpha  occ. eigenvalues --   -0.41749  -0.41630  -0.41578  -0.41297  -0.41158
 Alpha  occ. eigenvalues --   -0.41076  -0.40780  -0.40650  -0.40618  -0.40556
 Alpha  occ. eigenvalues --   -0.40476  -0.40278  -0.40197  -0.39981  -0.39928
 Alpha  occ. eigenvalues --   -0.39709  -0.39424  -0.39278  -0.39055  -0.38969
 Alpha  occ. eigenvalues --   -0.38595  -0.38553  -0.38470  -0.38389  -0.38346
 Alpha  occ. eigenvalues --   -0.38219  -0.38130  -0.37901  -0.37771  -0.37688
 Alpha  occ. eigenvalues --   -0.37509  -0.37151  -0.36900  -0.36818  -0.36628
 Alpha  occ. eigenvalues --   -0.36509  -0.36355  -0.36197  -0.36080  -0.35856
 Alpha  occ. eigenvalues --   -0.35782  -0.35643  -0.35522  -0.35453  -0.35319
 Alpha  occ. eigenvalues --   -0.35090  -0.34966  -0.34804  -0.34715  -0.34298
 Alpha  occ. eigenvalues --   -0.33374  -0.33047  -0.32981  -0.32536  -0.32471
 Alpha  occ. eigenvalues --   -0.32270  -0.32027  -0.31969  -0.31650  -0.31644
 Alpha  occ. eigenvalues --   -0.31558  -0.31022  -0.29455  -0.29133  -0.29120
 Alpha  occ. eigenvalues --   -0.29072  -0.28599  -0.28522  -0.27055  -0.26617
 Alpha  occ. eigenvalues --   -0.26183  -0.25992  -0.25813  -0.25590  -0.25501
 Alpha  occ. eigenvalues --   -0.25161  -0.24921  -0.24618  -0.21467  -0.20679
 Alpha  occ. eigenvalues --   -0.18756  -0.18399
 Alpha virt. eigenvalues --   -0.11481  -0.10680  -0.05128  -0.05070  -0.03781
 Alpha virt. eigenvalues --   -0.03639  -0.01991  -0.01766  -0.00591   0.00159
 Alpha virt. eigenvalues --    0.00334   0.00925   0.01037   0.01284   0.01640

 Mulliken charges:
               1
     1  Mg  12.000475
     2  C    6.000209
     3  C    5.999959
     4  C    5.999880
     5  C    5.999616
     6  N    7.000043
     7  C    5.999082
     8  C    6.000296
     9  C    6.000025
    10  C    6.000470
    11  C    5.998971
    12  C    5.999881
    13  C    6.000046
    14  H    0.999811
    15  N    7.000019
    16  C    6.000014
    17  C    6.000560
    18  C    6.000060
    19  C    6.000008
    20  C    5.999915
    21  C    6.000108
    22  O    8.000240
    23  C    5.999966
    24  N    6.999697
    25  C    6.000328
    26  C    5.999966
    27  C    6.000003
    28  C    6.000285
    29  C    5.999932
    30  C    6.000018
    31  C    5.999978
    32  N    6.999858
    33  C    5.999742
    34  C    6.000202
    35  C    6.000028
    36  C    5.999859
    37  C    5.999985
    38  C    5.999857
    39  O    7.999996
    40  C    5.999998
    41  C    6.000032
    42  O    7.999923
    43  O    8.000018
    44  C    6.000024
    45  H    0.999980
    46  H    1.000046
    47  H    0.999887
    48  H    1.000238
    49  H    1.000120
    50  H    1.000934
    51  H    0.999840
    52  H    1.000356
    53  H    0.999770
    54  H    0.999914
    55  H    0.999982
    56  H    0.999977
    57  H    1.000163
    58  H    1.000106
    59  H    1.000165
    60  H    1.000120
    61  H    1.000044
    62  H    1.000094
    63  H    1.000002
    64  H    1.000065
    65  H    1.000033
    66  H    0.999982
    67  H    1.000044
    68  H    0.999999
    69  H    0.999957
    70  H    0.999991
    71  H    1.000029
    72  H    0.999998
    73  H    0.999984
    74  H    1.000007
    75  H    1.000003
    76  H    1.000006
    77  H    1.000000
    78  H    0.999929
    79  H    1.000019
    80  Mg  12.000021
    81  C    6.000151
    82  C    5.999695
    83  C    5.999741
    84  C    5.999680
    85  N    6.999969
    86  C    5.999736
    87  C    6.000109
    88  C    6.000005
    89  C    6.000206
    90  C    5.999845
    91  C    6.000026
    92  C    5.999984
    93  H    1.000029
    94  N    6.999955
    95  C    6.000815
    96  C    6.000159
    97  C    5.999371
    98  C    6.000540
    99  C    6.000033
   100  C    6.000180
   101  O    8.000028
   102  C    5.999836
   103  N    6.999659
   104  C    6.000350
   105  C    5.999958
   106  C    6.000076
   107  C    5.999927
   108  C    6.000048
   109  C    6.000054
   110  C    6.000012
   111  N    6.999994
   112  C    5.999811
   113  C    5.999695
   114  C    6.000024
   115  C    5.999776
   116  C    6.000064
   117  C    5.999788
   118  O    7.999724
   119  C    6.000013
   120  C    5.999972
   121  O    7.999945
   122  O    7.999985
   123  C    6.000010
   124  H    0.999930
   125  H    1.000058
   126  H    0.999842
   127  H    0.999967
   128  H    1.000003
   129  H    1.000017
   130  H    1.000201
   131  H    1.000033
   132  H    0.999962
   133  H    1.000072
   134  H    0.999920
   135  H    0.999973
   136  H    1.000627
   137  H    1.000189
   138  H    1.000244
   139  H    0.999922
   140  H    0.999933
   141  H    1.000073
   142  H    0.999985
   143  H    0.999975
   144  H    1.000066
   145  H    1.000012
   146  H    0.999780
   147  H    1.000051
   148  H    0.999865
   149  H    0.999933
   150  H    0.999945
   151  H    1.000001
   152  H    0.999793
   153  H    0.999829
   154  H    0.999850
   155  H    0.999906
   156  H    0.999939
   157  H    0.999949
   158  H    0.999989
 Sum of Mulliken charges = 624.00000

 Dipole moment (field-independent basis, Debye):
    X=             -0.0915    Y=              0.0064    Z=              0.0266  Tot=              0.0955
 Quadrupole moment (field-independent basis, Debye-Ang):
   XX=             -0.9628   YY=             -0.0523   ZZ=              0.1160
   XY=              0.3366   XZ=             -0.0410   YZ=             -0.1723

 Normal termination of Gaussian 16 at Fri Oct 15 03:08:32 2021.
