 Gaussian 16, Revision A.03,
 Gaussian 16:  ES64L-G16RevA.03 25-Dec-2016

 ---------------------------------------------------
 #p PBE1PBE/Def2SVP td=(nstates=5) density=(current)
 ---------------------------------------------------

 --------------------------------
 TDDFT excited states in gaussian
 --------------------------------
 Symbolic Z-matrix:
 Charge =  0 Multiplicity = 1

                         Standard orientation:
 ---------------------------------------------------------------------
 Center     Atomic      Atomic             Coordinates (Angstroms)
 Number     Number       Type             X           Y           Z
 ---------------------------------------------------------------------
      1         12           0       -0.672979    0.022169   -0.520114
      2          6           0        2.703075    0.420386    0.191734
      3          6           0       -0.269851   -3.475553   -0.117634
      4          6           0       -3.964897   -0.309561   -0.053869
      5          6           0       -1.021102    3.516280   -0.206010
      6          7           0        1.022119   -1.365831    0.347177
      7          6           0        2.328922   -0.944624    0.290758
      8          6           0        3.280694   -2.075041    0.527113
      9          6           0        2.370019   -3.338670    0.171735
     10          6           0        0.920170   -2.737585    0.151289
     11          6           0        2.730120   -4.104134   -1.199785
     12          6           0        3.918068   -1.982596    2.007873
     13          6           0        5.212472   -2.607543    2.149899
     14          1           0        5.268515   -3.665954    3.271832
     15          7           0       -1.968521   -1.638565   -0.321540
     16          6           0       -1.605633   -3.007271   -0.180200
     17          6           0       -2.834149   -3.780977   -0.118424
     18          6           0       -3.937890   -2.893769   -0.119480
     19          6           0       -3.314592   -1.534408   -0.254954
     20          6           0       -2.829341   -5.248755    0.095389
     21          6           0       -5.448834   -3.346365    0.046476
     22          8           0       -5.658099   -4.552781    0.163771
     23          6           0       -6.611881   -2.403558   -0.242507
     24          7           0       -2.196956    1.421596   -0.084544
     25          6           0       -3.486715    0.999588   -0.067404
     26          6           0       -4.552962    2.216501    0.269746
     27          6           0       -3.608609    3.484230    0.000200
     28          6           0       -2.194822    2.835022   -0.133615
     29          6           0       -5.837499    2.276329   -0.640754
     30          6           0       -3.647682    4.514234    1.130683
     31          6           0       -4.072929    5.976814    0.857082
     32          7           0        0.594863    1.646424   -0.385173
     33          6           0        0.311598    2.979090   -0.306723
     34          6           0        1.539762    3.723902   -0.348104
     35          6           0        2.523869    2.696985   -0.089540
     36          6           0        1.852625    1.462347   -0.083755
     37          6           0        1.679396    5.218689   -0.329005
     38          6           0        3.922687    2.488974    0.221692
     39          8           0        4.842853    3.246706    0.162304
     40          6           0        4.164259    0.936820    0.375758
     41          6           0        5.072896    0.313925   -0.706930
     42          8           0        4.932737    0.475083   -1.900224
     43          8           0        6.136134   -0.377746   -0.090752
     44          6           0        7.169808   -0.869678   -0.950686
     45          1           0       -0.067729   -4.546021   -0.053331
     46          1           0       -4.986683   -0.348944    0.328903
     47          1           0       -1.176000    4.594275   -0.132580
     48          1           0        4.030369   -2.158555   -0.260405
     49          1           0        2.446838   -4.050063    0.994791
     50          1           0        2.975529   -5.122879   -0.900000
     51          1           0        3.555309   -3.641151   -1.740021
     52          1           0        1.817764   -4.102499   -1.796896
     53          1           0        3.197681   -2.521203    2.623313
     54          1           0        3.833660   -0.913009    2.202011
     55          1           0        5.913142   -1.801406    2.364066
     56          1           0        5.475101   -3.136060    1.233536
     57          1           0       -1.837784   -5.674334   -0.057850
     58          1           0       -3.446713   -5.736313   -0.659504
     59          1           0       -3.135421   -5.502215    1.110636
     60          1           0       -6.686943   -1.570711    0.457369
     61          1           0       -7.525081   -2.999447   -0.229805
     62          1           0       -6.483773   -2.036473   -1.260872
     63          1           0       -4.734791    2.096607    1.337413
     64          1           0       -3.743068    3.958866   -0.972024
     65          1           0       -6.720989    2.049494   -0.044729
     66          1           0       -5.751508    1.537522   -1.438443
     67          1           0       -5.888787    3.290118   -1.039325
     68          1           0       -2.714024    4.529576    1.692496
     69          1           0       -4.270714    4.234575    1.980073
     70          1           0       -3.303614    6.746391    0.925963
     71          1           0       -4.784538    6.212511    1.648753
     72          1           0       -4.524847    6.079262   -0.130249
     73          1           0        2.687057    5.447718   -0.676683
     74          1           0        1.810143    5.658158    0.659368
     75          1           0        0.883678    5.763137   -0.836759
     76          1           0        4.674747    0.866649    1.336676
     77          1           0        7.524619   -1.714138   -0.358953
     78          1           0        8.025375   -0.195615   -0.988616
     79          1           0        6.783396   -1.069515   -1.949310
 ---------------------------------------------------------------------

 SCF Done:  E(RPBE1PBE) =  -2033.65906804     A.U. after   16 cycles

 Excitation energies and oscillator strengths:

 Excited State   1:      Singlet-A      1.8323 eV  676.65 nm  f=0.3811  <S**2>=0.000
     155 ->158        -0.16922
     156 ->157         0.69535
     156 <-157        -0.11106
 This state for optimization and/or second-order correction.
 Total Energy, E(TD-HF/TD-DFT) =  -2033.59173151
 Copying the excited state density for this state as the 1-particle RhoCI density.

 Excited State   2:      Singlet-A      2.2474 eV  551.67 nm  f=0.1026  <S**2>=0.000
     155 ->157         0.64693
     156 ->158         0.27103

 Excited State   3:      Singlet-A      2.8816 eV  430.27 nm  f=0.0001  <S**2>=0.000
     153 ->157         0.47788
     154 ->157         0.48935

 Excited State   4:      Singlet-A      2.9911 eV  414.51 nm  f=0.0033  <S**2>=0.000
     152 ->157        -0.16248
     153 ->157        -0.47416
     154 ->157         0.48432

 Excited State   5:      Singlet-A      3.0859 eV  401.78 nm  f=0.0068  <S**2>=0.000
     152 ->157         0.66808
     153 ->157        -0.12254
     156 ->158        -0.12812

 The electronic state is 1-A.
 Alpha  occ. eigenvalues --  -46.93192 -19.25825 -19.20974 -19.19742 -19.18635
 Alpha  occ. eigenvalues --  -14.41711 -14.41655 -14.39749 -14.38836 -10.37152
 Alpha  occ. eigenvalues --  -10.33403 -10.31309 -10.29399 -10.29189 -10.28706
 Alpha  occ. eigenvalues --  -10.28547 -10.28467 -10.28420 -10.28410 -10.27665
 Alpha  occ. eigenvalues --  -10.27102 -10.26559 -10.26258 -10.26243 -10.26038
 Alpha  occ. eigenvalues --  -10.25973 -10.25869 -10.25688 -10.25640 -10.25599
 Alpha  occ. eigenvalues --  -10.25493 -10.25344 -10.24303 -10.24234 -10.24214
 Alpha  occ. eigenvalues --  -10.24138 -10.24135 -10.24127 -10.23914 -10.23347
 Alpha  occ. eigenvalues --  -10.23342 -10.22705 -10.22620  -3.15192  -1.87979
 Alpha  occ. eigenvalues --   -1.87621  -1.87380  -1.10866  -1.05721  -1.04867
 Alpha  occ. eigenvalues --   -1.03598  -0.99820  -0.97403  -0.96946  -0.96180
 Alpha  occ. eigenvalues --   -0.86693  -0.83527  -0.82611  -0.82429  -0.81186
 Alpha  occ. eigenvalues --   -0.80809  -0.80086  -0.78314  -0.77677  -0.76913
 Alpha  occ. eigenvalues --   -0.76370  -0.75490  -0.74632  -0.72226  -0.71583
 Alpha  occ. eigenvalues --   -0.71026  -0.70493  -0.69277  -0.67155  -0.65785
 Alpha  occ. eigenvalues --   -0.63618  -0.62938  -0.61864  -0.60841  -0.60319
 Alpha  occ. eigenvalues --   -0.59346  -0.58882  -0.58705  -0.57429  -0.54232
 Alpha  occ. eigenvalues --   -0.54080  -0.53553  -0.53071  -0.52633  -0.52045
 Alpha  occ. eigenvalues --   -0.50847  -0.49963  -0.49572  -0.49267  -0.48616
 Alpha  occ. eigenvalues --   -0.47863  -0.47347  -0.47142  -0.46956  -0.46595
 Alpha  occ. eigenvalues --   -0.46309  -0.46194  -0.45661  -0.45476  -0.44777
 Alpha  occ. eigenvalues --   -0.44496  -0.44284  -0.44185  -0.43902  -0.43839
 Alpha  occ. eigenvalues --   -0.43424  -0.43135  -0.42695  -0.42534  -0.42064
 Alpha  occ. eigenvalues --   -0.41682  -0.41571  -0.41146  -0.40877  -0.40624
 Alpha  occ. eigenvalues --   -0.40406  -0.39969  -0.39747  -0.39564  -0.39345
 Alpha  occ. eigenvalues --   -0.38840  -0.38679  -0.38454  -0.38232  -0.37925
 Alpha  occ. eigenvalues --   -0.37568  -0.37471  -0.37320  -0.37055  -0.36385
 Alpha  occ. eigenvalues --   -0.35969  -0.35888  -0.35346  -0.34785  -0.33616
 Alpha  occ. eigenvalues --   -0.33156  -0.32757  -0.32085  -0.31645  -0.31259
 Alpha  occ. eigenvalues --   -0.30694  -0.29781  -0.29416  -0.28886  -0.26899
 Alpha  occ. eigenvalues --   -0.26198  -0.25596  -0.25105  -0.24972  -0.21208
 Alpha  occ. eigenvalues --   -0.18804
 Alpha virt. eigenvalues --   -0.11279  -0.05162  -0.03775  -0.02325  -0.01450
 Alpha virt. eigenvalues --   -0.00130   0.00377   0.01665   0.02687   0.04169
 Alpha virt. eigenvalues --    0.04663   0.05536   0.05775   0.06009   0.06794

 Mulliken charges:
               1
     1  Mg   0.954809
     2  C   -0.083756
     3  C   -0.071406
     4  C   -0.084958
     5  C   -0.080650
     6  N   -0.372217
     7  C    0.012152
     8  C   -0.117069
     9  C   -0.160263
    10  C    0.062471
    11  C    0.003472
    12  C    0.036515
    13  C   -0.111024
    14  H    0.029867
    15  N   -0.494563
    16  C    0.182357
    17  C   -0.180948
    18  C   -0.101648
    19  C    0.206922
    20  C    0.086378
    21  C    0.074583
    22  O   -0.243739
    23  C   -0.038991
    24  N   -0.441372
    25  C    0.093553
    26  C   -0.148673
    27  C   -0.053321
    28  C    0.056279
    29  C    0.011631
    30  C   -0.039931
    31  C   -0.070911
    32  N   -0.456794
    33  C    0.151692
    34  C   -0.157461
    35  C   -0.093107
    36  C    0.245293
    37  C    0.056238
    38  C    0.126917
    39  O   -0.190758
    40  C   -0.117103
    41  C    0.295491
    42  O   -0.226426
    43  O   -0.389511
    44  C    0.116300
    45  H    0.015265
    46  H   -0.004636
    47  H    0.000812
    48  H    0.054357
    49  H    0.050516
    50  H    0.050113
    51  H    0.056957
    52  H    0.052582
    53  H    0.047709
    54  H    0.051354
    55  H    0.069514
    56  H    0.057641
    57  H    0.013553
    58  H    0.058798
    59  H    0.066765
    60  H    0.070944
    61  H    0.056687
    62  H    0.070781
    63  H    0.068008
    64  H    0.057198
    65  H    0.046214
    66  H    0.053864
    67  H    0.051487
    68  H    0.040444
    69  H    0.028655
    70  H    0.045988
    71  H    0.040547
    72  H    0.039850
    73  H    0.056293
    74  H    0.049941
    75  H    0.049213
    76  H    0.077504
    77  H    0.049748
    78  H    0.058501
    79  H    0.070513
 Sum of Mulliken charges =  -0.00000

 Dipole moment (field-independent basis, Debye):
    X=             -2.0772    Y=              0.7329    Z=              0.1603  Tot=              2.2085
 Quadrupole moment (field-independent basis, Debye-Ang):
   XX=           -253.0790   YY=           -255.6930   ZZ=           -258.5802
   XY=            -50.7691   XZ=              3.0516   YZ=              6.2481

 Normal termination of Gaussian 16 at Wed Oct 13 16:33:27 2021.
