 Gaussian 16, Revision A.03,
 Gaussian 16:  ES64L-G16RevA.03 25-Dec-2016

 --------------------------------------------------------
 #p PBE1PBE/Def2SVP td=(nstates=5) density=(transition=1)
 --------------------------------------------------------

 --------------------------------
 TDDFT excited states in gaussian
 --------------------------------
 Symbolic Z-matrix:
 Charge =  0 Multiplicity = 1

                         Standard orientation:
 ---------------------------------------------------------------------
 Center     Atomic      Atomic             Coordinates (Angstroms)
 Number     Number       Type             X           Y           Z
 ---------------------------------------------------------------------
      1         12           0       16.373538   -0.489270    0.276063
      2          6           0       15.649299    2.552171   -1.241326
      3          6           0       18.414255    1.094648    2.438512
      4          6           0       17.652673   -3.476684    1.213241
      5          6           0       14.906500   -2.133052   -2.498739
      6          7           0       16.826777    1.573185    0.541136
      7          6           0       16.338400    2.717563   -0.050822
      8          6           0       16.990654    3.977963    0.581196
      9          6           0       18.215365    3.349977    1.315287
     10          6           0       17.747850    1.920711    1.547611
     11          6           0       19.552484    3.365934    0.494033
     12          6           0       15.894779    4.741624    1.347014
     13          6           0       15.940149    6.211704    1.170489
     14          1           0       14.694940    6.909388    1.484824
     15          7           0       17.654135   -1.076820    1.781075
     16          6           0       18.349107   -0.251924    2.606332
     17          6           0       18.855905   -1.031350    3.707752
     18          6           0       18.622630   -2.405772    3.340764
     19          6           0       18.016792   -2.364477    2.006625
     20          6           0       19.583262   -0.447576    4.865586
     21          6           0       19.045019   -3.743146    4.031811
     22          8           0       18.751328   -4.851527    3.579348
     23          6           0       19.716878   -3.747411    5.376488
     24          7           0       16.552994   -2.468537   -0.755325
     25          6           0       17.042233   -3.587829   -0.028124
     26          6           0       16.769949   -4.895115   -0.695707
     27          6           0       15.712407   -4.403159   -1.736631
     28          6           0       15.664851   -2.882244   -1.616264
     29          6           0       18.038006   -5.581080   -1.307857
     30          6           0       14.277864   -5.002652   -1.501602
     31          6           0       13.714932   -4.854857   -0.065064
     32          7           0       15.367038    0.045951   -1.459385
     33          6           0       14.780905   -0.730851   -2.470693
     34          6           0       14.203773    0.175309   -3.391571
     35          6           0       14.501838    1.449030   -2.923569
     36          6           0       15.207485    1.308378   -1.774307
     37          6           0       13.391695   -0.203376   -4.588977
     38          6           0       14.403111    2.795342   -3.244189
     39          8           0       13.873106    3.336414   -4.231702
     40          6           0       15.129721    3.661571   -2.171573
     41          6           0       13.990576    4.565299   -1.604837
     42          8           0       13.034808    4.172676   -0.912270
     43          8           0       14.234174    5.871565   -2.015096
     44          6           0       13.155617    6.891449   -1.817345
     45          1           0       19.112633    1.705781    3.014180
     46          1           0       17.851336   -4.527319    1.438142
     47          1           0       14.263643   -2.581794   -3.258960
     48          1           0       17.286364    4.681067   -0.196730
     49          1           0       18.328826    3.825094    2.289255
     50          1           0       19.520075    3.878789   -0.467657
     51          1           0       19.830327    2.355620    0.196480
     52          1           0       20.311274    3.891053    1.073832
     53          1           0       16.115052    4.585523    2.402124
     54          1           0       14.932406    4.324893    1.048671
     55          1           0       16.120978    6.373187    0.107664
     56          1           0       16.803488    6.597957    1.711940
     57          1           0       19.388418    0.620389    4.961631
     58          1           0       20.618481   -0.787708    4.822414
     59          1           0       19.183484   -0.868290    5.788299
     60          1           0       20.267674   -4.688006    5.399371
     61          1           0       18.979196   -3.772346    6.178880
     62          1           0       20.428510   -2.927913    5.481691
     63          1           0       16.291169   -5.631034   -0.048205
     64          1           0       16.056234   -4.670819   -2.736272
     65          1           0       18.810852   -4.826308   -1.455700
     66          1           0       17.910954   -6.079055   -2.269225
     67          1           0       18.497940   -6.361855   -0.701407
     68          1           0       14.329685   -6.036027   -1.844886
     69          1           0       13.668470   -4.490304   -2.245999
     70          1           0       12.779931   -4.295010   -0.035986
     71          1           0       14.487312   -4.357690    0.522414
     72          1           0       13.506708   -5.815237    0.405594
     73          1           0       13.884747    0.266976   -5.439676
     74          1           0       12.372926    0.146350   -4.422005
     75          1           0       13.373106   -1.267341   -4.825380
     76          1           0       15.858728    4.290975   -2.681275
     77          1           0       12.296614    6.534872   -2.385283
     78          1           0       13.360072    7.913875   -2.134911
     79          1           0       13.062239    6.773254   -0.737767
     80         12           0      -15.927252   -0.775848   -0.066775
     81          6           0      -17.887636    1.832808    1.023828
     82          6           0      -13.419854    1.552470   -0.808715
     83          6           0      -13.973099   -3.264130   -1.243263
     84          6           0      -18.526927   -2.921931    0.324722
     85          7           0      -15.812352    1.501243   -0.141660
     86          6           0      -16.681145    2.316919    0.593957
     87          6           0      -16.092797    3.721346    0.834046
     88          6           0      -14.699937    3.578857    0.116907
     89          6           0      -14.567234    2.124382   -0.280434
     90          6           0      -14.540111    4.519592   -1.070704
     91          6           0      -15.951893    4.261982    2.300988
     92          6           0      -16.888795    5.521025    2.718974
     93          1           0      -16.042962    6.720826    3.156629
     94          7           0      -14.052095   -0.851098   -0.987133
     95          6           0      -13.129251    0.203510   -1.077169
     96          6           0      -11.800756   -0.281228   -1.465901
     97          6           0      -11.924110   -1.756287   -1.697047
     98          6           0      -13.341913   -2.060166   -1.249907
     99          6           0      -10.602406    0.628123   -1.625901
    100          6           0      -10.963987   -2.742038   -2.171973
    101          8           0      -11.330910   -3.908207   -2.378594
    102          6           0       -9.521019   -2.401849   -2.501256
    103          7           0      -16.263312   -2.712823   -0.463356
    104          6           0      -15.264197   -3.632343   -0.832740
    105          6           0      -15.710811   -5.149942   -0.810887
    106          6           0      -17.235531   -4.957755   -0.314077
    107          6           0      -17.338605   -3.427677   -0.122536
    108          6           0      -15.587547   -5.903265   -2.226004
    109          6           0      -17.524947   -5.767452    0.996455
    110          6           0      -18.865928   -6.416711    1.138562
    111          7           0      -17.890347   -0.547974    0.464899
    112          6           0      -18.846184   -1.553266    0.637218
    113          6           0      -20.025989   -1.035312    1.241203
    114          6           0      -19.644264    0.331419    1.508270
    115          6           0      -18.382535    0.549214    0.940495
    116          6           0      -21.278702   -1.691497    1.646352
    117          6           0      -20.146326    1.583717    1.980474
    118          8           0      -21.189968    1.957716    2.526860
    119          6           0      -19.047490    2.652857    1.537217
    120          6           0      -19.659437    3.588905    0.557291
    121          8           0      -19.574616    3.582674   -0.607557
    122          8           0      -20.302130    4.629710    1.223557
    123          6           0      -20.420761    5.859998    0.468934
    124          1           0      -12.611957    2.272692   -0.953966
    125          1           0      -13.423737   -4.162131   -1.533299
    126          1           0      -19.312225   -3.631860    0.592465
    127          1           0      -16.684098    4.444723    0.273661
    128          1           0      -13.878573    3.883406    0.766124
    129          1           0      -14.476911    3.924732   -1.981492
    130          1           0      -13.582427    4.997257   -0.867430
    131          1           0      -15.280594    5.315259   -1.149774
    132          1           0      -14.909917    4.544926    2.452498
    133          1           0      -16.211813    3.495740    3.031475
    134          1           0      -17.401233    5.138246    3.601754
    135          1           0      -17.548340    5.794374    1.895637
    136          1           0      -10.761218    1.191655   -2.546143
    137          1           0       -9.716882    0.001857   -1.722732
    138          1           0      -10.530023    1.392091   -0.851512
    139          1           0       -9.163296   -3.224933   -3.120196
    140          1           0       -8.891259   -2.255688   -1.623057
    141          1           0       -9.346524   -1.575269   -3.189753
    142          1           0      -15.193101   -5.675028   -0.008821
    143          1           0      -17.994014   -5.326722   -1.004865
    144          1           0      -16.449191   -6.561352   -2.340132
    145          1           0      -14.767307   -6.611868   -2.334217
    146          1           0      -15.530279   -5.216847   -3.071018
    147          1           0      -17.335742   -5.208253    1.912605
    148          1           0      -16.884764   -6.643965    1.094553
    149          1           0      -19.348104   -5.871144    1.949555
    150          1           0      -18.952040   -7.426880    1.538879
    151          1           0      -19.429956   -6.303948    0.212102
    152          1           0      -21.063055   -2.738471    1.861296
    153          1           0      -21.905162   -1.633928    0.756303
    154          1           0      -21.759995   -1.080905    2.410548
    155          1           0      -18.712000    3.223831    2.402612
    156          1           0      -21.233845    5.659634   -0.227980
    157          1           0      -19.478370    5.964969   -0.068397
    158          1           0      -20.684545    6.700978    1.110878
 ---------------------------------------------------------------------

 SCF Done:  E(RPBE1PBE) =  -4067.36937404     A.U. after   16 cycles

 Excitation energies and oscillator strengths:

 Excited State   1:      Singlet-A      1.8150 eV  683.12 nm  f=0.4272  <S**2>=0.000
     309 -> 315        0.14780
     311 -> 313        0.68751
     312 -> 314        0.10739
     311 <- 313       -0.11391
 This state for optimization and/or second-order correction.
 Total Energy, E(TD-HF/TD-DFT) =  -4067.30267506
 Copying the excited state density for this state as the 1-particle RhoCI density.

 Excited State   2:      Singlet-A      1.8239 eV  679.78 nm  f=0.3302  <S**2>=0.000
     310 -> 316        0.15259
     311 -> 313       -0.10709
     312 -> 314        0.68853
     312 <- 314       -0.11630

 Excited State   3:      Singlet-A      1.8475 eV  671.09 nm  f=0.0000  <S**2>=0.000
     312 -> 313        0.70710

 Excited State   4:      Singlet-A      1.9546 eV  634.31 nm  f=0.0000  <S**2>=0.000
     311 -> 314        0.70710

 Excited State   5:      Singlet-A      2.1896 eV  566.24 nm  f=0.1139  <S**2>=0.000
     309 -> 313        0.65558
     311 -> 315       -0.22812

 The electronic state is 1-A.
 Alpha  occ. eigenvalues --  -46.91763 -46.91343 -19.25461 -19.22880 -19.20284
 Alpha  occ. eigenvalues --  -19.19789 -19.19038 -19.18865 -19.18433 -19.17914
 Alpha  occ. eigenvalues --  -14.42028 -14.41599 -14.41542 -14.40975 -14.39856
 Alpha  occ. eigenvalues --  -14.39076 -14.38352 -14.38208 -10.37126 -10.35142
 Alpha  occ. eigenvalues --  -10.32514 -10.32208 -10.31537 -10.30786 -10.29412
 Alpha  occ. eigenvalues --  -10.29231 -10.28823 -10.28713 -10.28620 -10.28528
 Alpha  occ. eigenvalues --  -10.28441 -10.28420 -10.28181 -10.28160 -10.28056
 Alpha  occ. eigenvalues --  -10.27912 -10.27878 -10.27819 -10.27318 -10.27085
 Alpha  occ. eigenvalues --  -10.27041 -10.27005 -10.26995 -10.26187 -10.26147
 Alpha  occ. eigenvalues --  -10.26090 -10.26059 -10.26040 -10.25988 -10.25820
 Alpha  occ. eigenvalues --  -10.25767 -10.25677 -10.25563 -10.25523 -10.25443
 Alpha  occ. eigenvalues --  -10.25382 -10.25355 -10.25116 -10.25054 -10.25049
 Alpha  occ. eigenvalues --  -10.25035 -10.24893 -10.24889 -10.24843 -10.24526
 Alpha  occ. eigenvalues --  -10.24391 -10.24323 -10.24239 -10.24181 -10.24071
 Alpha  occ. eigenvalues --  -10.23950 -10.23926 -10.23865 -10.23641 -10.23575
 Alpha  occ. eigenvalues --  -10.23545 -10.23402 -10.23351 -10.23337 -10.23299
 Alpha  occ. eigenvalues --  -10.23280 -10.23150 -10.23031 -10.22803 -10.22508
 Alpha  occ. eigenvalues --  -10.21441  -3.13937  -3.13677  -1.86757  -1.86488
 Alpha  occ. eigenvalues --   -1.86315  -1.86162  -1.86062  -1.85919  -1.11577
 Alpha  occ. eigenvalues --   -1.09202  -1.04277  -1.04057  -1.03051  -1.02669
 Alpha  occ. eigenvalues --   -1.02626  -1.01500  -0.99494  -0.99481  -0.98647
 Alpha  occ. eigenvalues --   -0.98213  -0.98062  -0.96903  -0.96599  -0.95080
 Alpha  occ. eigenvalues --   -0.87071  -0.86938  -0.83510  -0.83447  -0.83360
 Alpha  occ. eigenvalues --   -0.82941  -0.82895  -0.82735  -0.82162  -0.81750
 Alpha  occ. eigenvalues --   -0.81551  -0.81484  -0.80893  -0.80772  -0.78935
 Alpha  occ. eigenvalues --   -0.78450  -0.77847  -0.77811  -0.76647  -0.76512
 Alpha  occ. eigenvalues --   -0.75923  -0.75843  -0.75305  -0.75225  -0.74771
 Alpha  occ. eigenvalues --   -0.74589  -0.72932  -0.72600  -0.71730  -0.71416
 Alpha  occ. eigenvalues --   -0.71265  -0.70996  -0.70382  -0.69873  -0.69606
 Alpha  occ. eigenvalues --   -0.69564  -0.67726  -0.67552  -0.66520  -0.66096
 Alpha  occ. eigenvalues --   -0.64182  -0.63600  -0.63238  -0.63111  -0.62408
 Alpha  occ. eigenvalues --   -0.62029  -0.61924  -0.60988  -0.60108  -0.59902
 Alpha  occ. eigenvalues --   -0.59785  -0.59433  -0.59129  -0.59075  -0.58609
 Alpha  occ. eigenvalues --   -0.58495  -0.56211  -0.55468  -0.54607  -0.54503
 Alpha  occ. eigenvalues --   -0.54359  -0.53981  -0.53811  -0.53596  -0.53155
 Alpha  occ. eigenvalues --   -0.53137  -0.52865  -0.52218  -0.52210  -0.51406
 Alpha  occ. eigenvalues --   -0.51031  -0.50607  -0.50191  -0.50083  -0.49922
 Alpha  occ. eigenvalues --   -0.49767  -0.49511  -0.49357  -0.48505  -0.48296
 Alpha  occ. eigenvalues --   -0.48112  -0.47749  -0.47697  -0.47599  -0.47559
 Alpha  occ. eigenvalues --   -0.47479  -0.47301  -0.47066  -0.46787  -0.46535
 Alpha  occ. eigenvalues --   -0.46388  -0.46195  -0.46165  -0.46076  -0.45965
 Alpha  occ. eigenvalues --   -0.45814  -0.45376  -0.45137  -0.45106  -0.44988
 Alpha  occ. eigenvalues --   -0.44765  -0.44455  -0.44389  -0.44189  -0.44111
 Alpha  occ. eigenvalues --   -0.44080  -0.43878  -0.43639  -0.43459  -0.43416
 Alpha  occ. eigenvalues --   -0.43253  -0.43236  -0.43229  -0.42786  -0.42753
 Alpha  occ. eigenvalues --   -0.42702  -0.42659  -0.42383  -0.42109  -0.41915
 Alpha  occ. eigenvalues --   -0.41723  -0.41639  -0.41529  -0.41374  -0.41153
 Alpha  occ. eigenvalues --   -0.41093  -0.40947  -0.40787  -0.40751  -0.40585
 Alpha  occ. eigenvalues --   -0.40313  -0.40136  -0.40047  -0.39788  -0.39437
 Alpha  occ. eigenvalues --   -0.39426  -0.39212  -0.39038  -0.38992  -0.38572
 Alpha  occ. eigenvalues --   -0.38420  -0.38358  -0.38333  -0.38270  -0.38134
 Alpha  occ. eigenvalues --   -0.38019  -0.37893  -0.37783  -0.37749  -0.37635
 Alpha  occ. eigenvalues --   -0.37224  -0.37159  -0.36829  -0.36794  -0.36586
 Alpha  occ. eigenvalues --   -0.36557  -0.36430  -0.36274  -0.36038  -0.36018
 Alpha  occ. eigenvalues --   -0.35904  -0.35809  -0.35540  -0.35513  -0.35153
 Alpha  occ. eigenvalues --   -0.35081  -0.34927  -0.34824  -0.34051  -0.33994
 Alpha  occ. eigenvalues --   -0.33688  -0.33253  -0.33075  -0.32785  -0.32691
 Alpha  occ. eigenvalues --   -0.32443  -0.32139  -0.31963  -0.31675  -0.31159
 Alpha  occ. eigenvalues --   -0.31053  -0.29827  -0.29656  -0.29348  -0.29169
 Alpha  occ. eigenvalues --   -0.29158  -0.28763  -0.28600  -0.27080  -0.27040
 Alpha  occ. eigenvalues --   -0.26039  -0.25699  -0.25513  -0.25365  -0.25237
 Alpha  occ. eigenvalues --   -0.25075  -0.24849  -0.24799  -0.21275  -0.21212
 Alpha  occ. eigenvalues --   -0.19062  -0.18890
 Alpha virt. eigenvalues --   -0.11689  -0.11474  -0.05775  -0.05179  -0.04243
 Alpha virt. eigenvalues --   -0.03713  -0.02178  -0.02068  -0.00559  -0.00535
 Alpha virt. eigenvalues --    0.00326   0.00681   0.00830   0.01217   0.01700

 Mulliken charges:
               1
     1  Mg  12.000447
     2  C    5.996288
     3  C    6.000435
     4  C    6.004766
     5  C    6.002541
     6  N    6.996739
     7  C    6.004930
     8  C    5.999517
     9  C    6.001007
    10  C    5.996506
    11  C    6.000545
    12  C    5.999129
    13  C    6.000077
    14  H    0.999882
    15  N    7.001030
    16  C    5.994566
    17  C    5.996972
    18  C    5.998005
    19  C    5.994309
    20  C    6.000532
    21  C    5.998021
    22  O    7.995499
    23  C    6.000773
    24  N    7.002573
    25  C    5.993655
    26  C    6.002284
    27  C    5.998818
    28  C    6.002715
    29  C    5.999946
    30  C    5.998838
    31  C    5.999131
    32  N    6.999673
    33  C    6.004216
    34  C    6.004745
    35  C    6.000072
    36  C    6.004206
    37  C    5.999573
    38  C    6.002297
    39  O    8.004572
    40  C    6.000558
    41  C    6.000476
    42  O    8.000709
    43  O    8.000179
    44  C    5.999886
    45  H    0.997709
    46  H    0.999345
    47  H    1.002606
    48  H    0.999720
    49  H    0.999726
    50  H    0.997519
    51  H    1.000058
    52  H    0.999364
    53  H    1.001781
    54  H    0.999247
    55  H    0.999416
    56  H    1.000710
    57  H    0.997754
    58  H    0.997019
    59  H    0.997266
    60  H    0.997910
    61  H    0.998351
    62  H    0.999316
    63  H    0.999887
    64  H    1.000421
    65  H    0.999984
    66  H    0.998560
    67  H    1.000441
    68  H    1.001496
    69  H    0.999150
    70  H    0.999811
    71  H    1.001948
    72  H    1.001060
    73  H    1.002643
    74  H    1.003162
    75  H    1.002531
    76  H    1.001159
    77  H    1.000040
    78  H    1.000583
    79  H    1.000668
    80  Mg  12.002292
    81  C    5.990541
    82  C    6.010521
    83  C    6.014924
    84  C    5.993289
    85  N    6.995078
    86  C    6.024222
    87  C    5.988256
    88  C    6.008311
    89  C    5.975276
    90  C    6.001012
    91  C    5.998941
    92  C    5.996283
    93  H    1.008336
    94  N    7.000512
    95  C    5.966519
    96  C    5.971651
    97  C    5.987728
    98  C    5.972321
    99  C    6.001988
   100  C    5.988934
   101  O    7.970377
   102  C    6.006265
   103  N    7.001344
   104  C    5.967799
   105  C    6.013121
   106  C    5.987871
   107  C    6.030473
   108  C    6.002597
   109  C    5.994545
   110  C    6.000342
   111  N    7.000635
   112  C    6.034566
   113  C    6.026804
   114  C    6.004702
   115  C    6.024430
   116  C    5.999924
   117  C    6.015991
   118  O    8.031983
   119  C    5.999617
   120  C    6.000774
   121  O    8.007981
   122  O    7.999672
   123  C    5.998021
   124  H    0.991915
   125  H    0.993532
   126  H    1.009423
   127  H    1.002591
   128  H    1.000156
   129  H    1.002846
   130  H    1.000051
   131  H    0.987807
   132  H    1.008935
   133  H    0.997458
   134  H    0.997162
   135  H    0.997996
   136  H    0.980620
   137  H    0.986220
   138  H    0.980945
   139  H    0.986707
   140  H    0.990143
   141  H    0.992343
   142  H    0.997543
   143  H    1.003269
   144  H    0.989730
   145  H    1.001707
   146  H    1.001482
   147  H    1.000628
   148  H    1.011002
   149  H    0.995211
   150  H    1.004905
   151  H    1.000110
   152  H    1.017163
   153  H    1.017665
   154  H    1.012539
   155  H    1.010844
   156  H    1.002110
   157  H    1.005963
   158  H    1.004509
 Sum of Mulliken charges = 624.00000

 Dipole moment (field-independent basis, Debye):
    X=            -10.7814    Y=              1.3533    Z=              2.4625  Tot=             11.1416
 Quadrupole moment (field-independent basis, Debye-Ang):
   XX=            279.8139   YY=              1.3675   ZZ=             -1.2548
   XY=             -4.7834   XZ=            -78.3527   YZ=             -1.3977

 Normal termination of Gaussian 16 at Thu Oct 14 17:11:52 2021.
