 Gaussian 16, Revision A.03,
 Gaussian 16:  ES64L-G16RevA.03 25-Dec-2016

 --------------------------------------------------------
 #p PBE1PBE/Def2SVP td=(nstates=5) density=(transition=1)
 --------------------------------------------------------

 --------------------------------
 TDDFT excited states in gaussian
 --------------------------------
 Symbolic Z-matrix:
 Charge =  0 Multiplicity = 1

                         Standard orientation:
 ---------------------------------------------------------------------
 Center     Atomic      Atomic             Coordinates (Angstroms)
 Number     Number       Type             X           Y           Z
 ---------------------------------------------------------------------
      1         12           0       16.630071   -0.358469    0.320147
      2          6           0       15.145212    2.076800   -1.526514
      3          6           0       17.787686    1.851816    2.702927
      4          6           0       18.212845   -2.950338    1.901415
      5          6           0       15.856441   -2.703145   -2.324636
      6          7           0       16.649119    1.732289    0.427937
      7          6           0       15.739855    2.553145   -0.319941
      8          6           0       15.598927    3.885435    0.300448
      9          6           0       16.770454    3.852971    1.381500
     10          6           0       17.130623    2.393543    1.548643
     11          6           0       18.059530    4.713128    0.944917
     12          6           0       14.154885    4.236482    0.773826
     13          6           0       13.684913    5.611287    0.422393
     14          1           0       14.754879    6.765851    0.552916
     15          7           0       17.776115   -0.536196    2.105522
     16          6           0       18.121341    0.522734    2.891556
     17          6           0       18.868761    0.014122    3.990152
     18          6           0       18.954510   -1.426866    3.858163
     19          6           0       18.221566   -1.750538    2.588560
     20          6           0       19.524985    0.940222    5.037397
     21          6           0       19.549605   -2.499660    4.715671
     22          8           0       19.666846   -3.705028    4.467870
     23          6           0       20.041942   -2.025034    6.135094
     24          7           0       17.092951   -2.556910   -0.194594
     25          6           0       17.651618   -3.375575    0.661670
     26          6           0       17.507383   -4.838760    0.248242
     27          6           0       16.750206   -4.737702   -1.106699
     28          6           0       16.559678   -3.228329   -1.242721
     29          6           0       18.914501   -5.615415    0.115195
     30          6           0       15.369008   -5.519790   -0.980789
     31          6           0       14.245090   -5.010380   -0.044934
     32          7           0       15.834265   -0.310363   -1.628078
     33          6           0       15.548692   -1.330556   -2.515698
     34          6           0       14.756591   -0.724071   -3.604983
     35          6           0       14.532125    0.588131   -3.314673
     36          6           0       15.230982    0.789546   -2.069409
     37          6           0       14.419135   -1.419525   -4.878660
     38          6           0       13.912021    1.843896   -3.736610
     39          8           0       13.260906    2.124871   -4.728848
     40          6           0       14.312939    2.849781   -2.570070
     41          6           0       15.154655    3.902595   -3.174022
     42          8           0       16.206745    3.763882   -3.821969
     43          8           0       14.498167    5.075967   -2.862457
     44          6           0       15.242686    6.296316   -3.199632
     45          1           0       18.126675    2.510493    3.505042
     46          1           0       18.637649   -3.746793    2.517016
     47          1           0       15.546300   -3.410939   -3.095378
     48          1           0       15.839023    4.582627   -0.503285
     49          1           0       16.368587    4.232632    2.320402
     50          1           0       17.870522    5.392332    0.113617
     51          1           0       18.766244    3.999634    0.521379
     52          1           0       18.403625    5.144065    1.884209
     53          1           0       14.091866    4.144588    1.858153
     54          1           0       13.548019    3.496344    0.252471
     55          1           0       12.893946    5.972223    1.078634
     56          1           0       13.217917    5.826939   -0.538700
     57          1           0       18.852633    1.367521    5.781254
     58          1           0       20.020550    1.681633    4.410860
     59          1           0       20.215112    0.414604    5.697013
     60          1           0       20.960549   -1.450460    6.015976
     61          1           0       20.032401   -2.888929    6.799444
     62          1           0       19.316994   -1.406289    6.664362
     63          1           0       16.872142   -5.341922    0.976823
     64          1           0       17.297115   -5.167470   -1.945970
     65          1           0       18.973630   -6.273325    0.982977
     66          1           0       19.740834   -4.904948    0.154698
     67          1           0       19.090742   -6.272126   -0.735772
     68          1           0       15.459602   -6.582466   -0.756400
     69          1           0       14.970315   -5.393255   -1.987860
     70          1           0       13.451948   -4.756243   -0.748236
     71          1           0       14.561688   -4.173443    0.576220
     72          1           0       13.881274   -5.760091    0.657645
     73          1           0       13.456820   -0.980205   -5.139620
     74          1           0       14.360063   -2.502481   -4.768368
     75          1           0       15.064539   -1.005703   -5.652352
     76          1           0       13.327643    3.258692   -2.347843
     77          1           0       14.510158    7.074957   -2.985012
     78          1           0       15.396612    6.261706   -4.278158
     79          1           0       16.230013    6.390150   -2.746967
     80         12           0      -16.146749   -0.821865    0.165291
     81          6           0      -18.151234    1.920928    0.998826
     82          6           0      -13.712480    1.194968   -0.715884
     83          6           0      -14.547146   -3.472002   -1.325295
     84          6           0      -18.928884   -2.946523    0.624711
     85          7           0      -15.969890    1.276115    0.257662
     86          6           0      -16.850067    2.247695    0.680798
     87          6           0      -16.185962    3.616185    0.760852
     88          6           0      -14.850918    3.360888   -0.009613
     89          6           0      -14.784174    1.874532   -0.070177
     90          6           0      -14.596083    4.069871   -1.322213
     91          6           0      -16.043602    4.194150    2.205128
     92          6           0      -15.401216    5.582886    2.291843
     93          1           0      -16.174308    6.627837    3.082983
     94          7           0      -14.309769   -1.093852   -0.984903
     95          6           0      -13.377314   -0.125264   -1.099290
     96          6           0      -12.196871   -0.674943   -1.706223
     97          6           0      -12.470878   -2.023800   -1.990878
     98          6           0      -13.834865   -2.239397   -1.435977
     99          6           0      -10.953390    0.131624   -2.015691
    100          6           0      -11.593692   -3.071097   -2.594762
    101          8           0      -11.950141   -4.225460   -2.952878
    102          6           0      -10.106021   -2.804042   -2.788389
    103          7           0      -16.673604   -2.861808   -0.299043
    104          6           0      -15.863639   -3.711744   -0.972253
    105          6           0      -16.492961   -5.206998   -0.933567
    106          6           0      -17.655559   -5.042662    0.107271
    107          6           0      -17.749318   -3.555765    0.231835
    108          6           0      -16.945703   -5.612720   -2.390532
    109          6           0      -17.225348   -5.590447    1.517011
    110          6           0      -15.921124   -5.112094    2.135827
    111          7           0      -18.191221   -0.610582    0.773598
    112          6           0      -19.147783   -1.580044    0.900911
    113          6           0      -20.309024   -0.951263    1.331528
    114          6           0      -20.051730    0.448750    1.388787
    115          6           0      -18.737489    0.608412    1.035957
    116          6           0      -21.653301   -1.537617    1.583399
    117          6           0      -20.583961    1.805210    1.650955
    118          8           0      -21.695142    2.235141    1.938681
    119          6           0      -19.314407    2.810112    1.499534
    120          6           0      -19.686157    4.002845    0.692707
    121          8           0      -20.481817    3.990250   -0.293044
    122          8           0      -19.171727    5.059673    1.306929
    123          6           0      -19.798751    6.316768    0.946060
    124          1           0      -12.830515    1.806894   -0.916831
    125          1           0      -14.037554   -4.333487   -1.763411
    126          1           0      -19.725472   -3.647171    0.879791
    127          1           0      -16.900827    4.283614    0.279221
    128          1           0      -13.967408    3.628545    0.570949
    129          1           0      -15.186794    4.963961   -1.521525
    130          1           0      -14.714077    3.358112   -2.139707
    131          1           0      -13.517697    4.208415   -1.402121
    132          1           0      -15.494579    3.488516    2.829159
    133          1           0      -17.030938    4.251043    2.662254
    134          1           0      -15.509777    6.129130    1.355030
    135          1           0      -14.358150    5.518561    2.603044
    136          1           0      -11.053209    1.205679   -1.859473
    137          1           0      -10.659573    0.167010   -3.064464
    138          1           0      -10.076462   -0.189300   -1.452616
    139          1           0      -10.001657   -2.052564   -3.570514
    140          1           0       -9.604309   -3.632799   -3.287421
    141          1           0       -9.581768   -2.590252   -1.856261
    142          1           0      -15.723908   -5.918775   -0.633472
    143          1           0      -18.532132   -5.464287   -0.384574
    144          1           0      -16.549104   -4.958831   -3.167416
    145          1           0      -18.024925   -5.595673   -2.543358
    146          1           0      -16.587209   -6.593082   -2.701029
    147          1           0      -17.187955   -6.653533    1.278990
    148          1           0      -17.969347   -5.460722    2.302393
    149          1           0      -15.328791   -4.575579    1.394305
    150          1           0      -15.329869   -5.861182    2.661379
    151          1           0      -16.271076   -4.475735    2.948688
    152          1           0      -21.654966   -2.373204    2.283772
    153          1           0      -21.972831   -1.930164    0.618478
    154          1           0      -22.382032   -0.792936    1.901909
    155          1           0      -19.127248    3.140185    2.521032
    156          1           0      -19.960266    6.922937    1.838326
    157          1           0      -20.780282    6.250189    0.477345
    158          1           0      -19.089974    6.825539    0.291878
 ---------------------------------------------------------------------

 SCF Done:  E(RPBE1PBE) =  -4067.38264120     A.U. after   17 cycles

 Excitation energies and oscillator strengths:

 Excited State   1:      Singlet-A      1.7819 eV  695.80 nm  f=0.0000  <S**2>=0.000
     312 -> 313        0.70710
 This state for optimization and/or second-order correction.
 Total Energy, E(TD-HF/TD-DFT) =  -4067.31715753
 Copying the excited state density for this state as the 1-particle RhoCI density.

 Excited State   2:      Singlet-A      1.8381 eV  674.52 nm  f=0.3839  <S**2>=0.000
     309 -> 315       -0.17903
     312 -> 314        0.68949
     312 <- 314       -0.10327

 Excited State   3:      Singlet-A      1.8528 eV  669.18 nm  f=0.3683  <S**2>=0.000
     310 -> 316       -0.15588
     311 -> 313        0.69389
     311 <- 313       -0.11127

 Excited State   4:      Singlet-A      2.1255 eV  583.31 nm  f=0.0000  <S**2>=0.000
     311 -> 314        0.70710

 Excited State   5:      Singlet-A      2.2558 eV  549.62 nm  f=0.0502  <S**2>=0.000
     309 -> 314        0.62863
     312 -> 315        0.31580

 The electronic state is 1-A.
 Alpha  occ. eigenvalues --  -46.92789 -46.92711 -19.27366 -19.26430 -19.20626
 Alpha  occ. eigenvalues --  -19.20012 -19.19615 -19.19439 -19.19127 -19.18937
 Alpha  occ. eigenvalues --  -14.42366 -14.42042 -14.41645 -14.41405 -14.39295
 Alpha  occ. eigenvalues --  -14.39264 -14.39152 -14.37898 -10.36676 -10.36345
 Alpha  occ. eigenvalues --  -10.32785 -10.32731 -10.32685 -10.32233 -10.29708
 Alpha  occ. eigenvalues --  -10.29658 -10.29625 -10.29301 -10.29159 -10.28893
 Alpha  occ. eigenvalues --  -10.28722 -10.28578 -10.28200 -10.28178 -10.28056
 Alpha  occ. eigenvalues --  -10.28003 -10.27990 -10.27677 -10.27408 -10.27086
 Alpha  occ. eigenvalues --  -10.26799 -10.26796 -10.26720 -10.26666 -10.26377
 Alpha  occ. eigenvalues --  -10.26377 -10.26250 -10.26226 -10.26170 -10.26117
 Alpha  occ. eigenvalues --  -10.26018 -10.25952 -10.25851 -10.25822 -10.25696
 Alpha  occ. eigenvalues --  -10.25640 -10.25640 -10.25584 -10.25493 -10.25459
 Alpha  occ. eigenvalues --  -10.25444 -10.25258 -10.25245 -10.25153 -10.25037
 Alpha  occ. eigenvalues --  -10.25010 -10.24797 -10.24716 -10.24545 -10.24289
 Alpha  occ. eigenvalues --  -10.24244 -10.24239 -10.24149 -10.23904 -10.23793
 Alpha  occ. eigenvalues --  -10.23765 -10.23399 -10.23230 -10.23194 -10.23161
 Alpha  occ. eigenvalues --  -10.23069 -10.23013 -10.22889 -10.22731 -10.22557
 Alpha  occ. eigenvalues --  -10.22315  -3.14762  -3.14700  -1.87611  -1.87543
 Alpha  occ. eigenvalues --   -1.87106  -1.87063  -1.86998  -1.86922  -1.12989
 Alpha  occ. eigenvalues --   -1.10846  -1.05166  -1.04221  -1.03768  -1.02865
 Alpha  occ. eigenvalues --   -1.02400  -1.00813  -0.99921  -0.99838  -0.98963
 Alpha  occ. eigenvalues --   -0.98665  -0.98124  -0.97508  -0.97242  -0.96390
 Alpha  occ. eigenvalues --   -0.86897  -0.86320  -0.83858  -0.83587  -0.83475
 Alpha  occ. eigenvalues --   -0.83173  -0.82621  -0.82370  -0.82169  -0.81786
 Alpha  occ. eigenvalues --   -0.81469  -0.81324  -0.80470  -0.80246  -0.79129
 Alpha  occ. eigenvalues --   -0.79020  -0.78111  -0.77752  -0.77194  -0.76757
 Alpha  occ. eigenvalues --   -0.76076  -0.75953  -0.75666  -0.75555  -0.74875
 Alpha  occ. eigenvalues --   -0.74201  -0.72958  -0.72413  -0.71973  -0.71751
 Alpha  occ. eigenvalues --   -0.71700  -0.71544  -0.70536  -0.70225  -0.69604
 Alpha  occ. eigenvalues --   -0.69380  -0.67298  -0.67012  -0.66724  -0.66172
 Alpha  occ. eigenvalues --   -0.64255  -0.64202  -0.63724  -0.63601  -0.62920
 Alpha  occ. eigenvalues --   -0.62663  -0.62276  -0.61906  -0.59901  -0.59886
 Alpha  occ. eigenvalues --   -0.59825  -0.59551  -0.59310  -0.59296  -0.59088
 Alpha  occ. eigenvalues --   -0.59013  -0.57384  -0.57199  -0.55430  -0.54900
 Alpha  occ. eigenvalues --   -0.54304  -0.54071  -0.53898  -0.53571  -0.53456
 Alpha  occ. eigenvalues --   -0.53183  -0.52580  -0.52185  -0.52169  -0.51905
 Alpha  occ. eigenvalues --   -0.50812  -0.50628  -0.50570  -0.50350  -0.50168
 Alpha  occ. eigenvalues --   -0.50040  -0.49958  -0.49603  -0.49522  -0.49104
 Alpha  occ. eigenvalues --   -0.48956  -0.48200  -0.48057  -0.48002  -0.47749
 Alpha  occ. eigenvalues --   -0.47536  -0.47319  -0.47090  -0.47054  -0.46988
 Alpha  occ. eigenvalues --   -0.46550  -0.46385  -0.46334  -0.46287  -0.46176
 Alpha  occ. eigenvalues --   -0.45724  -0.45633  -0.45475  -0.45251  -0.44878
 Alpha  occ. eigenvalues --   -0.44714  -0.44608  -0.44358  -0.44129  -0.44038
 Alpha  occ. eigenvalues --   -0.43718  -0.43547  -0.43541  -0.43331  -0.43279
 Alpha  occ. eigenvalues --   -0.43278  -0.43186  -0.43075  -0.42939  -0.42830
 Alpha  occ. eigenvalues --   -0.42738  -0.42411  -0.42159  -0.42076  -0.42030
 Alpha  occ. eigenvalues --   -0.41676  -0.41674  -0.41535  -0.41408  -0.41205
 Alpha  occ. eigenvalues --   -0.41045  -0.40951  -0.40764  -0.40679  -0.40677
 Alpha  occ. eigenvalues --   -0.40384  -0.40225  -0.40027  -0.40016  -0.39608
 Alpha  occ. eigenvalues --   -0.39573  -0.39375  -0.39229  -0.39073  -0.38823
 Alpha  occ. eigenvalues --   -0.38670  -0.38556  -0.38326  -0.38197  -0.38084
 Alpha  occ. eigenvalues --   -0.38059  -0.37810  -0.37754  -0.37725  -0.37591
 Alpha  occ. eigenvalues --   -0.37497  -0.37309  -0.37168  -0.37135  -0.37057
 Alpha  occ. eigenvalues --   -0.36956  -0.36929  -0.36574  -0.36502  -0.36490
 Alpha  occ. eigenvalues --   -0.36275  -0.36178  -0.35740  -0.35713  -0.35439
 Alpha  occ. eigenvalues --   -0.35355  -0.34804  -0.34554  -0.34551  -0.34217
 Alpha  occ. eigenvalues --   -0.33657  -0.32929  -0.32862  -0.32595  -0.32361
 Alpha  occ. eigenvalues --   -0.32222  -0.32011  -0.31809  -0.31656  -0.31553
 Alpha  occ. eigenvalues --   -0.31452  -0.31373  -0.29705  -0.29452  -0.29310
 Alpha  occ. eigenvalues --   -0.29230  -0.29090  -0.28270  -0.27394  -0.26947
 Alpha  occ. eigenvalues --   -0.26409  -0.26379  -0.26021  -0.25722  -0.25629
 Alpha  occ. eigenvalues --   -0.25506  -0.25273  -0.24437  -0.21369  -0.21016
 Alpha  occ. eigenvalues --   -0.19340  -0.18733
 Alpha virt. eigenvalues --   -0.11778  -0.11135  -0.05863  -0.04929  -0.04521
 Alpha virt. eigenvalues --   -0.04133  -0.02344  -0.02076  -0.01058  -0.00945
 Alpha virt. eigenvalues --   -0.00282  -0.00004   0.00510   0.00726   0.00970

 Mulliken charges:
               1
     1  Mg  12.000000
     2  C    6.000000
     3  C    6.000000
     4  C    6.000000
     5  C    6.000000
     6  N    7.000000
     7  C    6.000000
     8  C    6.000000
     9  C    6.000000
    10  C    6.000000
    11  C    6.000000
    12  C    6.000000
    13  C    6.000000
    14  H    1.000000
    15  N    7.000000
    16  C    6.000000
    17  C    6.000000
    18  C    6.000000
    19  C    6.000000
    20  C    6.000000
    21  C    6.000000
    22  O    8.000000
    23  C    6.000000
    24  N    7.000000
    25  C    6.000000
    26  C    6.000000
    27  C    6.000000
    28  C    6.000000
    29  C    6.000000
    30  C    6.000000
    31  C    6.000000
    32  N    7.000000
    33  C    6.000000
    34  C    6.000000
    35  C    6.000000
    36  C    6.000000
    37  C    6.000000
    38  C    6.000000
    39  O    8.000000
    40  C    6.000000
    41  C    6.000000
    42  O    8.000000
    43  O    8.000000
    44  C    6.000000
    45  H    1.000000
    46  H    1.000000
    47  H    1.000000
    48  H    1.000000
    49  H    1.000000
    50  H    1.000000
    51  H    1.000000
    52  H    1.000000
    53  H    1.000000
    54  H    1.000000
    55  H    1.000000
    56  H    1.000000
    57  H    1.000000
    58  H    1.000000
    59  H    1.000000
    60  H    1.000000
    61  H    1.000000
    62  H    1.000000
    63  H    1.000000
    64  H    1.000000
    65  H    1.000000
    66  H    1.000000
    67  H    1.000000
    68  H    1.000000
    69  H    1.000000
    70  H    1.000000
    71  H    1.000000
    72  H    1.000000
    73  H    1.000000
    74  H    1.000000
    75  H    1.000000
    76  H    1.000000
    77  H    1.000000
    78  H    1.000000
    79  H    1.000000
    80  Mg  12.000000
    81  C    6.000000
    82  C    6.000000
    83  C    6.000000
    84  C    6.000000
    85  N    7.000000
    86  C    6.000000
    87  C    6.000000
    88  C    6.000000
    89  C    6.000000
    90  C    6.000000
    91  C    6.000000
    92  C    6.000000
    93  H    1.000000
    94  N    7.000000
    95  C    6.000000
    96  C    6.000000
    97  C    6.000000
    98  C    6.000000
    99  C    6.000000
   100  C    6.000000
   101  O    8.000000
   102  C    6.000000
   103  N    7.000000
   104  C    6.000000
   105  C    6.000000
   106  C    6.000000
   107  C    6.000000
   108  C    6.000000
   109  C    6.000000
   110  C    6.000000
   111  N    7.000000
   112  C    6.000000
   113  C    6.000000
   114  C    6.000000
   115  C    6.000000
   116  C    6.000000
   117  C    6.000000
   118  O    8.000000
   119  C    6.000000
   120  C    6.000000
   121  O    8.000000
   122  O    8.000000
   123  C    6.000000
   124  H    1.000000
   125  H    1.000000
   126  H    1.000000
   127  H    1.000000
   128  H    1.000000
   129  H    1.000000
   130  H    1.000000
   131  H    1.000000
   132  H    1.000000
   133  H    1.000000
   134  H    1.000000
   135  H    1.000000
   136  H    1.000000
   137  H    1.000000
   138  H    1.000000
   139  H    1.000000
   140  H    1.000000
   141  H    1.000000
   142  H    1.000000
   143  H    1.000000
   144  H    1.000000
   145  H    1.000000
   146  H    1.000000
   147  H    1.000000
   148  H    1.000000
   149  H    1.000000
   150  H    1.000000
   151  H    1.000000
   152  H    1.000000
   153  H    1.000000
   154  H    1.000000
   155  H    1.000000
   156  H    1.000000
   157  H    1.000000
   158  H    1.000000
 Sum of Mulliken charges = 624.00000

 Dipole moment (field-independent basis, Debye):
    X=              0.0000    Y=             -0.0000    Z=              0.0000  Tot=              0.0000
 Quadrupole moment (field-independent basis, Debye-Ang):
   XX=              0.0000   YY=             -0.0000   ZZ=              0.0000
   XY=             -0.0000   XZ=              0.0000   YZ=             -0.0000

 Normal termination of Gaussian 16 at Wed Oct 13 21:04:39 2021.
