 Gaussian 16, Revision A.03,
 Gaussian 16:  ES64L-G16RevA.03 25-Dec-2016

 --------------------------------------------------------
 #p PBE1PBE/Def2SVP td=(nstates=5) density=(transition=1)
 --------------------------------------------------------

 --------------------------------
 TDDFT excited states in gaussian
 --------------------------------
 Symbolic Z-matrix:
 Charge =  0 Multiplicity = 1

                         Standard orientation:
 ---------------------------------------------------------------------
 Center     Atomic      Atomic             Coordinates (Angstroms)
 Number     Number       Type             X           Y           Z
 ---------------------------------------------------------------------
      1         12           0       19.162248   -0.196286   -0.067904
      2          6           0       15.880194   -0.960280   -0.825443
      3          6           0       19.048326    2.254630   -2.482517
      4          6           0       22.188255    0.961111    1.073549
      5          6           0       19.159179   -2.590959    2.405298
      6          7           0       17.597669    0.686028   -1.336462
      7          6           0       16.343125    0.136113   -1.511957
      8          6           0       15.539626    0.879967   -2.575386
      9          6           0       16.680763    1.668487   -3.319810
     10          6           0       17.813350    1.569041   -2.308402
     11          6           0       17.039261    1.210718   -4.805796
     12          6           0       14.349051    1.751834   -2.063212
     13          6           0       13.055747    1.619882   -2.839431
     14          1           0       12.728015    2.879583   -3.625910
     15          7           0       20.388710    1.382491   -0.634702
     16          6           0       20.189121    2.239638   -1.642250
     17          6           0       21.328432    3.127361   -1.797620
     18          6           0       22.284723    2.854287   -0.833825
     19          6           0       21.638594    1.728668   -0.031429
     20          6           0       21.362800    4.304351   -2.884626
     21          6           0       23.698764    3.512206   -0.691984
     22          8           0       24.007748    4.457032   -1.472011
     23          6           0       24.656666    3.094330    0.357027
     24          7           0       20.438376   -0.588398    1.725512
     25          6           0       21.659989   -0.124524    1.855361
     26          6           0       22.487915   -0.917545    2.844851
     27          6           0       21.555183   -2.044444    3.404929
     28          6           0       20.308825   -1.813903    2.422835
     29          6           0       23.962638   -1.300476    2.500235
     30          6           0       21.121806   -2.042349    4.899602
     31          6           0       20.590925   -3.382996    5.363520
     32          7           0       17.772344   -1.532599    0.675438
     33          6           0       17.934792   -2.537120    1.657380
     34          6           0       16.731351   -3.322819    1.686772
     35          6           0       15.875919   -2.775601    0.699602
     36          6           0       16.567244   -1.685149    0.179061
     37          6           0       16.524396   -4.636161    2.426455
     38          6           0       14.644782   -2.957623    0.107755
     39          8           0       13.695111   -3.665641    0.304993
     40          6           0       14.504145   -1.663067   -0.849915
     41          6           0       13.594605   -0.721629   -0.061892
     42          8           0       13.942082    0.000285    0.852811
     43          8           0       12.318725   -0.873586   -0.580355
     44          6           0       11.260460   -0.139059    0.105347
     45          1           0       19.145921    2.903949   -3.354865
     46          1           0       23.154048    1.371399    1.374783
     47          1           0       19.063856   -3.469565    3.046697
     48          1           0       15.167426    0.137157   -3.280341
     49          1           0       16.423745    2.725950   -3.248109
     50          1           0       18.064279    1.568526   -4.902189
     51          1           0       16.513413    1.764003   -5.584305
     52          1           0       16.946134    0.148095   -5.029569
     53          1           0       14.734210    2.768262   -2.147120
     54          1           0       14.155178    1.742697   -0.990829
     55          1           0       12.268229    1.396834   -2.119233
     56          1           0       13.087177    0.810378   -3.568956
     57          1           0       20.455247    4.414151   -3.479748
     58          1           0       22.199398    4.167014   -3.570527
     59          1           0       21.410567    5.296837   -2.438677
     60          1           0       24.894043    2.038241    0.232806
     61          1           0       24.330371    3.410002    1.348066
     62          1           0       25.596705    3.549198    0.047216
     63          1           0       22.677116   -0.426148    3.799450
     64          1           0       21.841438   -3.036092    3.053716
     65          1           0       24.228197   -0.704528    1.625977
     66          1           0       24.127865   -2.373805    2.399766
     67          1           0       24.688468   -1.016537    3.262376
     68          1           0       20.408436   -1.224917    5.003650
     69          1           0       22.015218   -1.722142    5.435585
     70          1           0       20.836586   -3.483787    6.420978
     71          1           0       21.006492   -4.252113    4.852203
     72          1           0       19.501383   -3.359438    5.340926
     73          1           0       15.610621   -5.160840    2.147333
     74          1           0       16.543345   -4.418836    3.493616
     75          1           0       17.348310   -5.326376    2.244806
     76          1           0       14.186302   -1.944157   -1.854412
     77          1           0       11.141716   -0.531851    1.115292
     78          1           0       10.324465   -0.161875   -0.451721
     79          1           0       11.564605    0.899498    0.232629
     80         12           0      -18.870354    0.359089    0.416219
     81          6           0      -15.821124   -0.593677   -1.072623
     82          6           0      -20.126942   -2.691810   -0.612190
     83          6           0      -21.918080    1.194435    1.707789
     84          6           0      -17.625981    3.411415    1.051917
     85          7           0      -18.040948   -1.473794   -0.698000
     86          6           0      -16.731174   -1.710630   -1.097502
     87          6           0      -16.551743   -3.163822   -1.488403
     88          6           0      -18.025061   -3.682201   -1.666634
     89          6           0      -18.754226   -2.571524   -0.944518
     90          6           0      -18.482638   -3.949200   -3.154111
     91          6           0      -15.833914   -3.995413   -0.414935
     92          6           0      -14.882973   -5.073869   -0.945042
     93          1           0      -15.491395   -6.310785   -1.662631
     94          7           0      -20.727214   -0.631720    0.616241
     95          6           0      -20.987669   -1.844964    0.077078
     96          6           0      -22.368737   -2.143502    0.275636
     97          6           0      -22.952475   -1.109507    1.086277
     98          6           0      -21.889445   -0.120457    1.115015
     99          6           0      -23.002249   -3.395706   -0.264024
    100          6           0      -24.360016   -0.931885    1.655924
    101          8           0      -24.625598   -0.033428    2.484653
    102          6           0      -25.543341   -1.777396    1.198849
    103          7           0      -19.618179    2.008562    1.328912
    104          6           0      -20.937572    2.187739    1.733512
    105          6           0      -21.107699    3.585967    2.232350
    106          6           0      -19.739928    4.350476    2.118385
    107          6           0      -18.903789    3.213741    1.508553
    108          6           0      -22.343657    4.338160    1.653452
    109          6           0      -19.148080    4.859920    3.450427
    110          6           0      -19.473208    6.337560    3.742531
    111          7           0      -17.157945    1.280030    0.055006
    112          6           0      -16.702505    2.546388    0.419190
    113          6           0      -15.257507    2.774487    0.045378
    114          6           0      -14.944007    1.549612   -0.565799
    115          6           0      -16.074659    0.674012   -0.492368
    116          6           0      -14.437989    4.027173    0.296295
    117          6           0      -13.842446    0.860380   -1.220699
    118          8           0      -12.704077    1.238942   -1.499725
    119          6           0      -14.370303   -0.618013   -1.457610
    120          6           0      -14.102057   -0.909327   -2.947230
    121          8           0      -14.252266   -0.137475   -3.871817
    122          8           0      -13.493689   -2.158709   -3.051955
    123          6           0      -13.188741   -2.531413   -4.433456
    124          1           0      -20.467776   -3.693734   -0.880620
    125          1           0      -22.842841    1.562472    2.156528
    126          1           0      -17.341292    4.457364    1.181165
    127          1           0      -16.031301   -3.319002   -2.433154
    128          1           0      -18.232952   -4.637223   -1.184048
    129          1           0      -17.702935   -3.853635   -3.910325
    130          1           0      -19.263788   -3.299562   -3.548199
    131          1           0      -18.823599   -4.977625   -3.273338
    132          1           0      -16.545936   -4.487569    0.247167
    133          1           0      -15.192323   -3.362075    0.198046
    134          1           0      -14.198956   -5.427782   -0.173825
    135          1           0      -14.171992   -4.657433   -1.658314
    136          1           0      -22.665308   -3.384244   -1.300685
    137          1           0      -24.090718   -3.439579   -0.298702
    138          1           0      -22.653602   -4.319940    0.196210
    139          1           0      -25.607513   -1.799595    0.110840
    140          1           0      -26.381923   -1.259001    1.663538
    141          1           0      -25.440586   -2.809986    1.532443
    142          1           0      -21.459493    3.506449    3.261400
    143          1           0      -19.724881    5.168836    1.397397
    144          1           0      -22.816659    3.682817    0.921763
    145          1           0      -21.999413    5.236132    1.141078
    146          1           0      -22.979988    4.504812    2.523240
    147          1           0      -18.088702    4.604332    3.451713
    148          1           0      -19.621485    4.365793    4.299135
    149          1           0      -20.375823    6.629611    3.205428
    150          1           0      -18.746470    7.074623    3.400425
    151          1           0      -19.687866    6.428792    4.807698
    152          1           0      -14.227163    4.064081    1.365220
    153          1           0      -14.927949    4.968584    0.048516
    154          1           0      -13.520018    3.896428   -0.276491
    155          1           0      -13.893786   -1.391617   -0.855768
    156          1           0      -13.984884   -3.069641   -4.948699
    157          1           0      -12.284393   -3.133141   -4.344110
    158          1           0      -12.973636   -1.748349   -5.160515
 ---------------------------------------------------------------------

 SCF Done:  E(RPBE1PBE) =  -4067.40493871     A.U. after   18 cycles

 Excitation energies and oscillator strengths:

 Excited State   1:      Singlet-A      1.8492 eV  670.49 nm  f=0.3777  <S**2>=0.000
     310 -> 316        0.18097
     312 -> 314        0.69133
     312 <- 314       -0.10447
 This state for optimization and/or second-order correction.
 Total Energy, E(TD-HF/TD-DFT) =  -4067.33698335
 Copying the excited state density for this state as the 1-particle RhoCI density.

 Excited State   2:      Singlet-A      1.8858 eV  657.48 nm  f=0.3513  <S**2>=0.000
     309 -> 315        0.14492
     311 -> 313        0.69232

 Excited State   3:      Singlet-A      1.9771 eV  627.09 nm  f=0.0000  <S**2>=0.000
     312 -> 313        0.70710

 Excited State   4:      Singlet-A      2.0468 eV  605.75 nm  f=0.0000  <S**2>=0.000
     311 -> 314        0.70710

 Excited State   5:      Singlet-A      2.2265 eV  556.85 nm  f=0.0985  <S**2>=0.000
     310 -> 314        0.64895
     312 -> 316       -0.27352

 The electronic state is 1-A.
 Alpha  occ. eigenvalues --  -46.92766 -46.91053 -19.26382 -19.25282 -19.20592
 Alpha  occ. eigenvalues --  -19.20237 -19.20050 -19.19345 -19.19316 -19.18443
 Alpha  occ. eigenvalues --  -14.42012 -14.41694 -14.41557 -14.40946 -14.39949
 Alpha  occ. eigenvalues --  -14.39574 -14.39048 -14.38389 -10.36683 -10.36265
 Alpha  occ. eigenvalues --  -10.33805 -10.32878 -10.32253 -10.30912 -10.30195
 Alpha  occ. eigenvalues --  -10.29657 -10.29279 -10.28982 -10.28682 -10.28514
 Alpha  occ. eigenvalues --  -10.28438 -10.28431 -10.28348 -10.28205 -10.28175
 Alpha  occ. eigenvalues --  -10.28141 -10.28092 -10.27817 -10.27058 -10.27053
 Alpha  occ. eigenvalues --  -10.26838 -10.26812 -10.26606 -10.26575 -10.26439
 Alpha  occ. eigenvalues --  -10.26376 -10.26337 -10.26156 -10.26131 -10.26115
 Alpha  occ. eigenvalues --  -10.26092 -10.26026 -10.25992 -10.25791 -10.25742
 Alpha  occ. eigenvalues --  -10.25501 -10.25372 -10.25296 -10.25236 -10.25104
 Alpha  occ. eigenvalues --  -10.25096 -10.25021 -10.24954 -10.24537 -10.24528
 Alpha  occ. eigenvalues --  -10.24504 -10.24499 -10.24483 -10.24476 -10.24430
 Alpha  occ. eigenvalues --  -10.24296 -10.24264 -10.24026 -10.24005 -10.23915
 Alpha  occ. eigenvalues --  -10.23809 -10.23763 -10.23720 -10.23592 -10.23592
 Alpha  occ. eigenvalues --  -10.23485 -10.23318 -10.23151 -10.23092 -10.23016
 Alpha  occ. eigenvalues --  -10.21412  -3.14787  -3.13409  -1.87611  -1.87165
 Alpha  occ. eigenvalues --   -1.87014  -1.86250  -1.85761  -1.85678  -1.11024
 Alpha  occ. eigenvalues --   -1.10330  -1.05005  -1.03980  -1.03524  -1.03458
 Alpha  occ. eigenvalues --   -1.02973  -1.02853  -0.99237  -0.99136  -0.98350
 Alpha  occ. eigenvalues --   -0.98221  -0.97871  -0.97790  -0.97183  -0.96078
 Alpha  occ. eigenvalues --   -0.86916  -0.86204  -0.83655  -0.83450  -0.83299
 Alpha  occ. eigenvalues --   -0.82728  -0.82567  -0.82149  -0.81802  -0.81351
 Alpha  occ. eigenvalues --   -0.81200  -0.80549  -0.80479  -0.80333  -0.78623
 Alpha  occ. eigenvalues --   -0.78621  -0.77906  -0.77875  -0.77205  -0.76558
 Alpha  occ. eigenvalues --   -0.76321  -0.75825  -0.75236  -0.75162  -0.74567
 Alpha  occ. eigenvalues --   -0.74370  -0.72680  -0.71956  -0.71773  -0.71544
 Alpha  occ. eigenvalues --   -0.71321  -0.70899  -0.70441  -0.69718  -0.69455
 Alpha  occ. eigenvalues --   -0.69390  -0.67139  -0.66914  -0.66086  -0.66056
 Alpha  occ. eigenvalues --   -0.64062  -0.63690  -0.63453  -0.63242  -0.62622
 Alpha  occ. eigenvalues --   -0.62450  -0.61653  -0.61581  -0.60157  -0.59993
 Alpha  occ. eigenvalues --   -0.59906  -0.59887  -0.59189  -0.58987  -0.58752
 Alpha  occ. eigenvalues --   -0.58679  -0.57127  -0.56364  -0.54876  -0.54607
 Alpha  occ. eigenvalues --   -0.54331  -0.54120  -0.53540  -0.53493  -0.53142
 Alpha  occ. eigenvalues --   -0.52963  -0.52497  -0.52260  -0.52035  -0.52014
 Alpha  occ. eigenvalues --   -0.50807  -0.50605  -0.50100  -0.49993  -0.49708
 Alpha  occ. eigenvalues --   -0.49663  -0.49035  -0.48691  -0.48360  -0.48310
 Alpha  occ. eigenvalues --   -0.48070  -0.48060  -0.48002  -0.47733  -0.47678
 Alpha  occ. eigenvalues --   -0.47467  -0.47188  -0.47134  -0.46673  -0.46579
 Alpha  occ. eigenvalues --   -0.46402  -0.46185  -0.46178  -0.45787  -0.45680
 Alpha  occ. eigenvalues --   -0.45442  -0.45196  -0.45110  -0.44716  -0.44610
 Alpha  occ. eigenvalues --   -0.44556  -0.44513  -0.44383  -0.44240  -0.43980
 Alpha  occ. eigenvalues --   -0.43949  -0.43716  -0.43675  -0.43496  -0.43347
 Alpha  occ. eigenvalues --   -0.43224  -0.43128  -0.42845  -0.42776  -0.42690
 Alpha  occ. eigenvalues --   -0.42234  -0.42174  -0.42087  -0.41988  -0.41579
 Alpha  occ. eigenvalues --   -0.41475  -0.41362  -0.41232  -0.41224  -0.41008
 Alpha  occ. eigenvalues --   -0.40966  -0.40792  -0.40612  -0.40571  -0.40232
 Alpha  occ. eigenvalues --   -0.40057  -0.39995  -0.39899  -0.39712  -0.39548
 Alpha  occ. eigenvalues --   -0.39409  -0.39387  -0.39275  -0.39170  -0.39009
 Alpha  occ. eigenvalues --   -0.38848  -0.38778  -0.38479  -0.38381  -0.38287
 Alpha  occ. eigenvalues --   -0.38224  -0.37939  -0.37907  -0.37828  -0.37474
 Alpha  occ. eigenvalues --   -0.37456  -0.37355  -0.37155  -0.37141  -0.37038
 Alpha  occ. eigenvalues --   -0.36833  -0.36742  -0.36539  -0.36424  -0.36390
 Alpha  occ. eigenvalues --   -0.36052  -0.35869  -0.35818  -0.35433  -0.35339
 Alpha  occ. eigenvalues --   -0.35157  -0.35069  -0.34867  -0.34646  -0.34164
 Alpha  occ. eigenvalues --   -0.33918  -0.33682  -0.33308  -0.33005  -0.32917
 Alpha  occ. eigenvalues --   -0.32406  -0.32205  -0.31837  -0.31652  -0.31515
 Alpha  occ. eigenvalues --   -0.31387  -0.30449  -0.30332  -0.29838  -0.29615
 Alpha  occ. eigenvalues --   -0.29225  -0.28672  -0.28420  -0.27191  -0.26743
 Alpha  occ. eigenvalues --   -0.26683  -0.26365  -0.26300  -0.26044  -0.25770
 Alpha  occ. eigenvalues --   -0.25512  -0.25277  -0.24903  -0.20839  -0.20839
 Alpha  occ. eigenvalues --   -0.18918  -0.18680
 Alpha virt. eigenvalues --   -0.11065  -0.11042  -0.05446  -0.05227  -0.04209
 Alpha virt. eigenvalues --   -0.03885  -0.02614  -0.02487  -0.00905   0.00325
 Alpha virt. eigenvalues --    0.00536   0.00921   0.01296   0.01354   0.01676

 Mulliken charges:
               1
     1  Mg  11.999976
     2  C    5.999860
     3  C    6.000329
     4  C    6.000091
     5  C    5.999761
     6  N    7.000003
     7  C    6.000395
     8  C    5.999885
     9  C    6.000128
    10  C    5.999506
    11  C    6.000008
    12  C    5.999924
    13  C    5.999884
    14  H    1.000279
    15  N    7.000101
    16  C    5.999489
    17  C    5.999674
    18  C    5.999866
    19  C    5.999479
    20  C    6.000028
    21  C    5.999818
    22  O    7.999663
    23  C    6.000103
    24  N    6.999930
    25  C    5.999534
    26  C    6.000266
    27  C    5.999923
    28  C    6.000455
    29  C    6.000027
    30  C    5.999942
    31  C    5.999993
    32  N    7.000001
    33  C    6.000542
    34  C    6.000350
    35  C    6.000169
    36  C    6.000290
    37  C    6.000006
    38  C    6.000187
    39  O    8.000531
    40  C    6.000069
    41  C    6.000035
    42  O    8.000089
    43  O    8.000045
    44  C    5.999900
    45  H    0.999927
    46  H    0.999809
    47  H    1.000007
    48  H    1.000009
    49  H    1.000051
    50  H    1.000015
    51  H    0.999976
    52  H    0.999844
    53  H    1.000148
    54  H    1.000001
    55  H    1.000088
    56  H    1.000003
    57  H    0.999791
    58  H    0.999737
    59  H    0.999777
    60  H    0.999845
    61  H    0.999863
    62  H    0.999755
    63  H    0.999843
    64  H    0.999912
    65  H    1.000067
    66  H    0.999812
    67  H    0.999878
    68  H    1.000073
    69  H    1.000066
    70  H    0.999996
    71  H    0.999960
    72  H    0.999960
    73  H    1.000190
    74  H    1.000230
    75  H    1.000181
    76  H    1.000199
    77  H    1.000051
    78  H    1.000284
    79  H    1.000120
    80  Mg  12.000495
    81  C    6.017007
    82  C    5.989648
    83  C    5.982721
    84  C    6.009195
    85  N    7.006267
    86  C    5.968371
    87  C    6.009366
    88  C    5.989621
    89  C    6.031800
    90  C    5.996976
    91  C    6.003120
    92  C    6.001269
    93  H    0.990706
    94  N    6.996252
    95  C    6.034651
    96  C    6.024383
    97  C    6.013087
    98  C    6.028635
    99  C    5.997920
   100  C    6.011051
   101  O    8.026466
   102  C    5.996758
   103  N    6.994138
   104  C    6.032261
   105  C    5.991182
   106  C    6.011164
   107  C    5.969548
   108  C    5.998081
   109  C    6.003685
   110  C    6.000060
   111  N    6.999602
   112  C    5.965934
   113  C    5.967740
   114  C    6.000980
   115  C    5.970801
   116  C    5.999325
   117  C    5.983555
   118  O    7.970920
   119  C    5.999983
   120  C    5.993745
   121  O    7.997694
   122  O    7.997760
   123  C    6.002315
   124  H    1.009635
   125  H    1.006137
   126  H    0.990646
   127  H    0.999585
   128  H    1.000841
   129  H    1.013092
   130  H    0.999028
   131  H    1.002204
   132  H    0.988537
   133  H    1.006475
   134  H    0.999541
   135  H    1.003878
   136  H    1.015413
   137  H    1.014951
   138  H    1.020655
   139  H    1.006561
   140  H    1.012581
   141  H    1.007454
   142  H    1.000960
   143  H    0.998710
   144  H    0.995162
   145  H    1.010248
   146  H    1.001367
   147  H    1.005627
   148  H    0.990128
   149  H    0.994096
   150  H    1.001656
   151  H    0.995866
   152  H    0.982132
   153  H    0.982283
   154  H    0.988505
   155  H    0.992091
   156  H    0.992999
   157  H    0.996449
   158  H    0.998270
 Sum of Mulliken charges = 624.00000

 Dipole moment (field-independent basis, Debye):
    X=             -9.2330    Y=             -4.6482    Z=              0.9335  Tot=             10.3791
 Quadrupole moment (field-independent basis, Debye-Ang):
   XX=            339.1844   YY=             -4.3018   ZZ=             -0.4762
   XY=             83.3318   XZ=            -17.6449   YZ=             -1.5615

 Normal termination of Gaussian 16 at Thu Oct 14 18:16:14 2021.
