 Gaussian 16, Revision A.03,
 Gaussian 16:  ES64L-G16RevA.03 25-Dec-2016

 --------------------------------------------------------
 #p PBE1PBE/Def2SVP td=(nstates=5) density=(transition=1)
 --------------------------------------------------------

 --------------------------------
 TDDFT excited states in gaussian
 --------------------------------
 Symbolic Z-matrix:
 Charge =  0 Multiplicity = 1

                         Standard orientation:
 ---------------------------------------------------------------------
 Center     Atomic      Atomic             Coordinates (Angstroms)
 Number     Number       Type             X           Y           Z
 ---------------------------------------------------------------------
      1         12           0      -30.285481   -0.426286    0.560369
      2          6           0      -30.527535    2.428045   -1.289997
      3          6           0      -27.914869   -1.635820   -1.770113
      4          6           0      -30.189151   -3.335310    2.216126
      5          6           0      -32.546714    0.879404    2.792134
      6          7           0      -29.565296    0.153751   -1.460638
      7          6           0      -29.731921    1.454814   -1.952099
      8          6           0      -28.952418    1.679541   -3.278684
      9          6           0      -28.220729    0.313664   -3.363590
     10          6           0      -28.631420   -0.495805   -2.146864
     11          6           0      -28.288011   -0.585984   -4.670542
     12          6           0      -27.950499    2.916041   -3.320815
     13          6           0      -27.206545    3.014301   -4.679624
     14          1           0      -27.681426    4.182320   -5.545110
     15          7           0      -29.133729   -2.255663    0.273960
     16          6           0      -28.075003   -2.415972   -0.593871
     17          6           0      -27.609477   -3.784241   -0.400149
     18          6           0      -28.288230   -4.271795    0.762749
     19          6           0      -29.239637   -3.284000    1.164431
     20          6           0      -26.560899   -4.361814   -1.270499
     21          6           0      -28.085898   -5.721183    1.327480
     22          8           0      -28.816496   -6.230934    2.201156
     23          6           0      -27.007792   -6.606200    0.758341
     24          7           0      -31.200089   -1.102032    2.151109
     25          6           0      -31.022768   -2.403151    2.700134
     26          6           0      -32.081994   -2.701861    3.736812
     27          6           0      -32.426049   -1.280136    4.176713
     28          6           0      -31.999091   -0.405567    3.006434
     29          6           0      -33.311687   -3.473316    3.150328
     30          6           0      -31.630196   -0.830131    5.422264
     31          6           0      -32.168905   -1.181714    6.783024
     32          7           0      -31.417862    1.281408    0.788441
     33          6           0      -32.168711    1.756718    1.795120
     34          6           0      -32.665656    3.054670    1.445538
     35          6           0      -32.045867    3.385955    0.259394
     36          6           0      -31.250957    2.283009   -0.089278
     37          6           0      -33.576356    3.829862    2.332466
     38          6           0      -31.927839    4.406301   -0.692715
     39          8           0      -32.409873    5.521180   -0.748081
     40          6           0      -30.905704    3.817855   -1.774617
     41          6           0      -31.579612    3.843901   -3.100663
     42          8           0      -32.525916    3.181783   -3.451218
     43          8           0      -30.912857    4.612345   -3.967155
     44          6           0      -31.470483    4.679452   -5.372791
     45          1           0      -27.083315   -1.871689   -2.437233
     46          1           0      -30.163529   -4.275814    2.770137
     47          1           0      -33.167071    1.410949    3.516263
     48          1           0      -29.673600    1.766011   -4.091472
     49          1           0      -27.151735    0.465511   -3.211304
     50          1           0      -27.378489   -1.127743   -4.931456
     51          1           0      -28.745951   -0.022064   -5.483378
     52          1           0      -28.972053   -1.390349   -4.400347
     53          1           0      -27.313371    2.751404   -2.452739
     54          1           0      -28.525078    3.825227   -3.144260
     55          1           0      -27.228307    2.049258   -5.185909
     56          1           0      -26.164893    3.231247   -4.444818
     57          1           0      -27.022483   -5.140517   -1.877975
     58          1           0      -25.743241   -4.638301   -0.604830
     59          1           0      -26.132837   -3.597976   -1.919825
     60          1           0      -26.972366   -7.546987    1.307680
     61          1           0      -26.083059   -6.091680    1.023155
     62          1           0      -27.034553   -6.792437   -0.314978
     63          1           0      -31.678540   -3.306231    4.549727
     64          1           0      -33.489156   -1.129811    4.363495
     65          1           0      -33.937209   -2.815243    2.548455
     66          1           0      -33.894090   -3.923936    3.954415
     67          1           0      -32.886343   -4.270925    2.542226
     68          1           0      -31.417543    0.238162    5.426496
     69          1           0      -30.612525   -1.215969    5.360851
     70          1           0      -31.405339   -1.785781    7.272265
     71          1           0      -32.974473   -1.879400    6.553598
     72          1           0      -32.523639   -0.330642    7.364577
     73          1           0      -33.008156    4.543078    2.928337
     74          1           0      -34.307530    3.284379    2.929860
     75          1           0      -34.179478    4.435220    1.655571
     76          1           0      -30.023235    4.457801   -1.793260
     77          1           0      -31.616848    3.651564   -5.705368
     78          1           0      -30.786452    5.141317   -6.085229
     79          1           0      -32.416652    5.219252   -5.328474
     80         12           0       30.864050    0.459535   -0.040367
     81          6           0       28.145973   -1.591285   -0.656588
     82          6           0       28.827112    2.561004    1.803127
     83          6           0       33.647575    1.964793    1.134802
     84          6           0       32.816867   -1.986417   -1.665628
     85          7           0       28.771169    0.319973    0.746177
     86          6           0       27.870624   -0.492990    0.186776
     87          6           0       26.469338   -0.263447    0.832837
     88          6           0       26.635141    1.226198    1.396673
     89          6           0       28.189340    1.448465    1.252765
     90          6           0       25.707385    2.244654    0.691317
     91          6           0       26.247952   -1.233157    1.971285
     92          6           0       24.848562   -1.820285    2.069252
     93          1           0       24.133598   -2.096473    3.445361
     94          7           0       31.141025    2.190297    1.178854
     95          6           0       30.229448    2.868247    1.897307
     96          6           0       30.908053    3.939952    2.550840
     97          6           0       32.299517    3.902176    2.232588
     98          6           0       32.439482    2.669522    1.447464
     99          6           0       30.167112    5.013718    3.258194
    100          6           0       33.314687    4.819941    2.815299
    101          8           0       32.967305    5.739259    3.537865
    102          6           0       34.795467    4.689781    2.479248
    103          7           0       33.022841    0.058966   -0.333050
    104          6           0       33.920677    0.824346    0.348378
    105          6           0       35.288518    0.228079    0.270401
    106          6           0       34.998582   -1.059427   -0.637137
    107          6           0       33.532830   -1.011321   -0.990745
    108          6           0       36.379957    1.181011   -0.251885
    109          6           0       35.434795   -2.461081   -0.019056
    110          6           0       36.319703   -3.436613   -0.830163
    111          7           0       30.587479   -1.362132   -0.981523
    112          6           0       31.443874   -2.184776   -1.643410
    113          6           0       30.728551   -3.087506   -2.431398
    114          6           0       29.387902   -2.908278   -2.120017
    115          6           0       29.359935   -1.904710   -1.184363
    116          6           0       31.377023   -4.164296   -3.349981
    117          6           0       28.086571   -3.319124   -2.371418
    118          8           0       27.711956   -4.269428   -3.049459
    119          6           0       27.109928   -2.513332   -1.386041
    120          6           0       26.213565   -1.674353   -2.096364
    121          8           0       26.393387   -0.589754   -2.655297
    122          8           0       24.976794   -2.310421   -2.050829
    123          6           0       23.812887   -1.720857   -2.690036
    124          1           0       28.168504    3.307468    2.251479
    125          1           0       34.628342    2.344758    1.429931
    126          1           0       33.506877   -2.629371   -2.216233
    127          1           0       25.717695   -0.402994    0.056376
    128          1           0       26.508904    1.309167    2.475667
    129          1           0       25.173179    1.793932   -0.144858
    130          1           0       26.297552    3.091951    0.340733
    131          1           0       25.022326    2.637103    1.442481
    132          1           0       26.511234   -0.901743    2.975954
    133          1           0       27.016618   -1.993031    1.830523
    134          1           0       24.851655   -2.724125    1.460257
    135          1           0       24.271725   -1.075449    1.521027
    136          1           0       30.126126    5.806209    2.511180
    137          1           0       30.683778    5.325907    4.165973
    138          1           0       29.160079    4.718413    3.552980
    139          1           0       35.168653    3.880855    3.107502
    140          1           0       35.266153    5.586801    2.880889
    141          1           0       34.936578    4.517777    1.412273
    142          1           0       35.441910   -0.025005    1.318961
    143          1           0       35.604794   -1.055612   -1.543022
    144          1           0       36.977856    1.453001    0.618593
    145          1           0       35.972968    2.059275   -0.754061
    146          1           0       37.037225    0.638301   -0.930837
    147          1           0       34.531821   -3.021675    0.222328
    148          1           0       36.023724   -2.357077    0.892497
    149          1           0       35.539945   -4.005771   -1.336098
    150          1           0       36.861109   -4.103326   -0.160240
    151          1           0       36.902338   -3.073756   -1.676801
    152          1           0       31.781227   -4.955469   -2.719795
    153          1           0       32.238237   -3.840900   -3.934961
    154          1           0       30.636205   -4.601701   -4.019857
    155          1           0       26.626639   -3.269709   -0.767443
    156          1           0       23.178838   -2.544823   -3.015942
    157          1           0       24.030789   -0.991320   -3.470486
    158          1           0       23.225483   -1.232977   -1.912070
 ---------------------------------------------------------------------

 SCF Done:  E(RPBE1PBE) =  -4067.37818025     A.U. after   16 cycles

 Excitation energies and oscillator strengths:

 Excited State   1:      Singlet-A      1.8106 eV  684.79 nm  f=0.3719  <S**2>=0.000
     310 -> 316        0.15511
     312 -> 314        0.69952
     312 <- 314       -0.12511
 This state for optimization and/or second-order correction.
 Total Energy, E(TD-HF/TD-DFT) =  -4067.31164354
 Copying the excited state density for this state as the 1-particle RhoCI density.

 Excited State   2:      Singlet-A      1.8605 eV  666.39 nm  f=0.3891  <S**2>=0.000
     309 -> 315        0.17801
     311 -> 313        0.69232
     311 <- 313       -0.11025

 Excited State   3:      Singlet-A      1.8798 eV  659.57 nm  f=0.0000  <S**2>=0.000
     312 -> 313        0.70711

 Excited State   4:      Singlet-A      2.0389 eV  608.09 nm  f=0.0000  <S**2>=0.000
     311 -> 314        0.70711

 Excited State   5:      Singlet-A      2.2365 eV  554.37 nm  f=0.0962  <S**2>=0.000
     309 -> 313        0.64815
     311 -> 315       -0.26579

 The electronic state is 1-A.
 Alpha  occ. eigenvalues --  -46.93082 -46.90909 -19.25499 -19.25283 -19.20360
 Alpha  occ. eigenvalues --  -19.19532 -19.19484 -19.18891 -19.18891 -19.18620
 Alpha  occ. eigenvalues --  -14.42151 -14.41896 -14.41521 -14.41375 -14.39485
 Alpha  occ. eigenvalues --  -14.38897 -14.38603 -14.38467 -10.36536 -10.35458
 Alpha  occ. eigenvalues --  -10.32487 -10.32378 -10.31959 -10.31802 -10.29769
 Alpha  occ. eigenvalues --  -10.29482 -10.29291 -10.29167 -10.29061 -10.29035
 Alpha  occ. eigenvalues --  -10.28888 -10.28795 -10.28643 -10.28377 -10.27849
 Alpha  occ. eigenvalues --  -10.27501 -10.27341 -10.27160 -10.27136 -10.26978
 Alpha  occ. eigenvalues --  -10.26572 -10.26533 -10.26396 -10.26349 -10.26330
 Alpha  occ. eigenvalues --  -10.26221 -10.26197 -10.26165 -10.26138 -10.26021
 Alpha  occ. eigenvalues --  -10.26005 -10.25975 -10.25680 -10.25616 -10.25613
 Alpha  occ. eigenvalues --  -10.25609 -10.25603 -10.25493 -10.25476 -10.25226
 Alpha  occ. eigenvalues --  -10.25091 -10.25080 -10.24965 -10.24949 -10.24641
 Alpha  occ. eigenvalues --  -10.24553 -10.24479 -10.24388 -10.24374 -10.24281
 Alpha  occ. eigenvalues --  -10.24064 -10.24020 -10.23971 -10.23657 -10.23524
 Alpha  occ. eigenvalues --  -10.23372 -10.23368 -10.23329 -10.23283 -10.23261
 Alpha  occ. eigenvalues --  -10.23204 -10.23202 -10.22563 -10.22552 -10.22526
 Alpha  occ. eigenvalues --  -10.22411  -3.14991  -3.13264  -1.87844  -1.87359
 Alpha  occ. eigenvalues --   -1.87206  -1.86109  -1.85656  -1.85485  -1.11625
 Alpha  occ. eigenvalues --   -1.10451  -1.05076  -1.04811  -1.04771  -1.03103
 Alpha  occ. eigenvalues --   -1.02285  -1.01901  -1.00214  -1.00060  -0.98728
 Alpha  occ. eigenvalues --   -0.98529  -0.98501  -0.97741  -0.97328  -0.96729
 Alpha  occ. eigenvalues --   -0.88296  -0.87619  -0.83829  -0.83407  -0.83395
 Alpha  occ. eigenvalues --   -0.83131  -0.82939  -0.82708  -0.82264  -0.82200
 Alpha  occ. eigenvalues --   -0.81500  -0.81259  -0.80903  -0.80574  -0.79737
 Alpha  occ. eigenvalues --   -0.78921  -0.78646  -0.78274  -0.77348  -0.76811
 Alpha  occ. eigenvalues --   -0.76493  -0.75848  -0.75828  -0.75509  -0.75108
 Alpha  occ. eigenvalues --   -0.74916  -0.72749  -0.72542  -0.71951  -0.71868
 Alpha  occ. eigenvalues --   -0.71526  -0.70891  -0.70806  -0.70478  -0.69596
 Alpha  occ. eigenvalues --   -0.69556  -0.67955  -0.67646  -0.66893  -0.66267
 Alpha  occ. eigenvalues --   -0.64347  -0.63877  -0.63682  -0.63325  -0.62675
 Alpha  occ. eigenvalues --   -0.62567  -0.61791  -0.60576  -0.60567  -0.60349
 Alpha  occ. eigenvalues --   -0.60246  -0.60080  -0.59444  -0.59409  -0.59199
 Alpha  occ. eigenvalues --   -0.58705  -0.57258  -0.56631  -0.55074  -0.54818
 Alpha  occ. eigenvalues --   -0.54588  -0.54530  -0.53725  -0.53719  -0.53529
 Alpha  occ. eigenvalues --   -0.53505  -0.52903  -0.52845  -0.52639  -0.52415
 Alpha  occ. eigenvalues --   -0.51154  -0.50961  -0.50676  -0.50463  -0.50115
 Alpha  occ. eigenvalues --   -0.49669  -0.49387  -0.49240  -0.48939  -0.48829
 Alpha  occ. eigenvalues --   -0.48250  -0.48027  -0.48010  -0.47991  -0.47405
 Alpha  occ. eigenvalues --   -0.47285  -0.47186  -0.46925  -0.46812  -0.46741
 Alpha  occ. eigenvalues --   -0.46536  -0.46372  -0.46315  -0.46290  -0.46123
 Alpha  occ. eigenvalues --   -0.45905  -0.45872  -0.45026  -0.45017  -0.44895
 Alpha  occ. eigenvalues --   -0.44743  -0.44593  -0.44558  -0.44454  -0.44279
 Alpha  occ. eigenvalues --   -0.44266  -0.44097  -0.43829  -0.43731  -0.43691
 Alpha  occ. eigenvalues --   -0.43585  -0.43414  -0.43055  -0.42974  -0.42968
 Alpha  occ. eigenvalues --   -0.42740  -0.42376  -0.42224  -0.42152  -0.41848
 Alpha  occ. eigenvalues --   -0.41617  -0.41611  -0.41535  -0.41438  -0.41351
 Alpha  occ. eigenvalues --   -0.41335  -0.41129  -0.40854  -0.40853  -0.40701
 Alpha  occ. eigenvalues --   -0.40566  -0.40547  -0.40251  -0.40187  -0.40109
 Alpha  occ. eigenvalues --   -0.39953  -0.39812  -0.39511  -0.39436  -0.39320
 Alpha  occ. eigenvalues --   -0.39002  -0.38721  -0.38577  -0.38566  -0.38472
 Alpha  occ. eigenvalues --   -0.38353  -0.38285  -0.38220  -0.37990  -0.37808
 Alpha  occ. eigenvalues --   -0.37712  -0.37054  -0.36900  -0.36887  -0.36818
 Alpha  occ. eigenvalues --   -0.36717  -0.36697  -0.36549  -0.36397  -0.36362
 Alpha  occ. eigenvalues --   -0.35994  -0.35897  -0.35791  -0.35592  -0.35335
 Alpha  occ. eigenvalues --   -0.35224  -0.34928  -0.34745  -0.34669  -0.33369
 Alpha  occ. eigenvalues --   -0.33283  -0.33191  -0.32984  -0.32984  -0.32480
 Alpha  occ. eigenvalues --   -0.32441  -0.32264  -0.31986  -0.31684  -0.31504
 Alpha  occ. eigenvalues --   -0.31170  -0.30709  -0.29828  -0.29575  -0.29500
 Alpha  occ. eigenvalues --   -0.29118  -0.29060  -0.28477  -0.27459  -0.27070
 Alpha  occ. eigenvalues --   -0.26435  -0.26207  -0.25994  -0.25940  -0.25516
 Alpha  occ. eigenvalues --   -0.25419  -0.25108  -0.24818  -0.21525  -0.21472
 Alpha  occ. eigenvalues --   -0.19230  -0.18792
 Alpha virt. eigenvalues --   -0.11667  -0.11521  -0.05782  -0.05115  -0.04422
 Alpha virt. eigenvalues --   -0.03842  -0.02119  -0.02074  -0.00443  -0.00230
 Alpha virt. eigenvalues --    0.00187   0.00463   0.00989   0.01357   0.01362

 Mulliken charges:
               1
     1  Mg  12.001491
     2  C    6.024791
     3  C    6.004358
     4  C    5.970373
     5  C    5.986172
     6  N    7.011863
     7  C    5.960972
     8  C    6.014743
     9  C    5.993411
    10  C    6.024699
    11  C    5.995794
    12  C    6.002819
    13  C    5.997505
    14  H    1.004094
    15  N    6.994029
    16  C    6.036170
    17  C    6.023741
    18  C    6.007422
    19  C    6.044705
    20  C    5.995284
    21  C    6.012554
    22  O    8.025212
    23  C    5.994462
    24  N    6.982603
    25  C    6.038607
    26  C    5.991957
    27  C    6.005236
    28  C    5.979300
    29  C    5.998923
    30  C    6.007361
    31  C    6.000627
    32  N    7.003478
    33  C    5.977276
    34  C    5.964625
    35  C    6.001454
    36  C    5.968716
    37  C    6.004091
    38  C    5.984564
    39  O    7.973861
    40  C    5.997164
    41  C    5.998193
    42  O    7.996133
    43  O    7.998243
    44  C    6.000892
    45  H    1.016392
    46  H    1.004264
    47  H    0.986081
    48  H    0.998095
    49  H    1.001087
    50  H    1.000222
    51  H    1.014533
    52  H    0.998390
    53  H    0.994771
    54  H    1.007390
    55  H    0.993076
    56  H    0.997718
    57  H    1.018305
    58  H    1.017217
    59  H    1.015153
    60  H    1.013626
    61  H    1.005671
    62  H    1.005477
    63  H    0.998448
    64  H    0.998839
    65  H    1.012113
    66  H    1.005556
    67  H    0.992555
    68  H    1.004677
    69  H    0.984850
    70  H    0.992816
    71  H    0.995428
    72  H    1.000545
    73  H    0.978014
    74  H    0.982406
    75  H    0.984173
    76  H    0.992341
    77  H    0.994984
    78  H    0.995022
    79  H    0.999798
    80  Mg  12.000008
    81  C    5.999947
    82  C    5.999961
    83  C    6.000064
    84  C    6.000049
    85  N    6.999946
    86  C    5.999990
    87  C    6.000013
    88  C    5.999978
    89  C    6.000066
    90  C    5.999999
    91  C    6.000013
    92  C    6.000012
    93  H    0.999944
    94  N    7.000014
    95  C    6.000113
    96  C    6.000062
    97  C    6.000043
    98  C    6.000081
    99  C    5.999972
   100  C    6.000024
   101  O    8.000083
   102  C    5.999979
   103  N    7.000032
   104  C    6.000024
   105  C    5.999979
   106  C    6.000013
   107  C    5.999938
   108  C    5.999986
   109  C    6.000005
   110  C    5.999995
   111  N    6.999979
   112  C    5.999920
   113  C    5.999900
   114  C    6.000016
   115  C    5.999954
   116  C    6.000006
   117  C    5.999899
   118  O    7.999883
   119  C    6.000015
   120  C    5.999983
   121  O    7.999976
   122  O    7.999997
   123  C    6.000025
   124  H    1.000012
   125  H    1.000040
   126  H    0.999992
   127  H    0.999990
   128  H    0.999994
   129  H    1.000024
   130  H    0.999994
   131  H    0.999998
   132  H    0.999964
   133  H    1.000021
   134  H    1.000004
   135  H    0.999982
   136  H    1.000079
   137  H    1.000068
   138  H    1.000067
   139  H    1.000036
   140  H    1.000066
   141  H    1.000031
   142  H    1.000003
   143  H    1.000012
   144  H    1.000010
   145  H    1.000002
   146  H    1.000047
   147  H    1.000010
   148  H    0.999978
   149  H    1.000018
   150  H    0.999996
   151  H    0.999999
   152  H    0.999934
   153  H    0.999944
   154  H    0.999951
   155  H    0.999948
   156  H    0.999955
   157  H    0.999986
   158  H    0.999960
 Sum of Mulliken charges = 624.00000

 Dipole moment (field-independent basis, Debye):
    X=              5.6930    Y=             -8.4883    Z=             -1.9667  Tot=             10.4081
 Quadrupole moment (field-independent basis, Debye-Ang):
   XX=           -340.8551   YY=              7.0154   ZZ=             -4.9416
   XY=            255.6020   XZ=             63.3321   YZ=             -2.6348

 Normal termination of Gaussian 16 at Fri Oct 15 04:38:53 2021.
