 Gaussian 16, Revision A.03,
 Gaussian 16:  ES64L-G16RevA.03 25-Dec-2016

 --------------------------------------------------------
 #p PBE1PBE/Def2SVP td=(nstates=5) density=(transition=1)
 --------------------------------------------------------

 --------------------------------
 TDDFT excited states in gaussian
 --------------------------------
 Symbolic Z-matrix:
 Charge =  0 Multiplicity = 1

                         Standard orientation:
 ---------------------------------------------------------------------
 Center     Atomic      Atomic             Coordinates (Angstroms)
 Number     Number       Type             X           Y           Z
 ---------------------------------------------------------------------
      1         12           0      -24.484418   -0.675722    0.006907
      2          6           0      -22.806957    2.488013   -0.988288
      3          6           0      -24.334604    0.612374    3.128169
      4          6           0      -25.647710   -3.522003    0.777010
      5          6           0      -23.646872   -1.860989   -3.243875
      6          7           0      -23.617031    1.287502    0.922261
      7          6           0      -23.176908    2.447893    0.308293
      8          6           0      -23.061475    3.659244    1.240669
      9          6           0      -23.113218    2.909170    2.607438
     10          6           0      -23.719622    1.500002    2.239296
     11          6           0      -21.799971    2.776602    3.312218
     12          6           0      -24.106327    4.809744    1.052145
     13          6           0      -23.683639    6.203038    1.378933
     14          1           0      -24.756612    7.076469    2.021319
     15          7           0      -24.995053   -1.385010    1.756149
     16          6           0      -24.924105   -0.684667    2.978567
     17          6           0      -25.587089   -1.477437    3.973471
     18          6           0      -26.105301   -2.619705    3.221576
     19          6           0      -25.591605   -2.516773    1.903490
     20          6           0      -25.827084   -1.040927    5.466022
     21          6           0      -26.999668   -3.685625    3.776771
     22          8           0      -27.359597   -4.675490    3.094112
     23          6           0      -27.570898   -3.636459    5.146762
     24          7           0      -24.506614   -2.500701   -0.972372
     25          6           0      -25.083909   -3.580478   -0.441561
     26          6           0      -25.109736   -4.818422   -1.394396
     27          6           0      -24.878383   -4.071480   -2.760601
     28          6           0      -24.255414   -2.720366   -2.314586
     29          6           0      -23.956432   -5.826539   -1.085542
     30          6           0      -26.233724   -3.813291   -3.543609
     31          6           0      -27.178085   -4.998258   -3.835894
     32          7           0      -23.488616    0.127001   -1.780392
     33          6           0      -23.304347   -0.479124   -3.017885
     34          6           0      -22.598115    0.421607   -3.898588
     35          6           0      -22.420083    1.598992   -3.160975
     36          6           0      -22.896866    1.359383   -1.842929
     37          6           0      -22.276202    0.197794   -5.337898
     38          6           0      -21.891235    2.954815   -3.231432
     39          8           0      -21.391434    3.626732   -4.124002
     40          6           0      -22.245367    3.575721   -1.782134
     41          6           0      -21.004864    4.149642   -1.289713
     42          8           0      -19.953355    3.542658   -1.032457
     43          8           0      -21.026931    5.486184   -1.568436
     44          6           0      -19.890650    6.287874   -1.244987
     45          1           0      -24.387101    1.147329    4.078894
     46          1           0      -26.043897   -4.515176    0.997749
     47          1           0      -23.431772   -2.275750   -4.231259
     48          1           0      -22.062413    4.073578    1.103720
     49          1           0      -23.872399    3.346622    3.255131
     50          1           0      -21.489621    1.736568    3.211443
     51          1           0      -21.935499    2.959340    4.378114
     52          1           0      -20.978328    3.400282    2.960594
     53          1           0      -24.934215    4.595238    1.727331
     54          1           0      -24.491933    4.732368    0.035926
     55          1           0      -23.418897    6.621359    0.408049
     56          1           0      -22.712301    6.241733    1.872183
     57          1           0      -26.848243   -0.751878    5.712824
     58          1           0      -25.125971   -0.264293    5.770428
     59          1           0      -25.543075   -1.949117    5.999103
     60          1           0      -26.782180   -3.892897    5.854518
     61          1           0      -28.359028   -4.389754    5.162279
     62          1           0      -28.006176   -2.644606    5.264056
     63          1           0      -26.089445   -5.277347   -1.257297
     64          1           0      -24.176054   -4.545954   -3.445284
     65          1           0      -24.432743   -6.729639   -0.703099
     66          1           0      -23.174472   -5.466037   -0.417990
     67          1           0      -23.560926   -6.014554   -2.084713
     68          1           0      -25.990243   -3.429672   -4.534108
     69          1           0      -26.731629   -2.997263   -3.020182
     70          1           0      -28.119174   -4.722867   -3.360095
     71          1           0      -26.727483   -5.833793   -3.299458
     72          1           0      -27.333877   -5.157572   -4.902770
     73          1           0      -22.876803   -0.668804   -5.615232
     74          1           0      -21.212783   -0.038543   -5.374024
     75          1           0      -22.436963    1.070268   -5.971155
     76          1           0      -23.011966    4.342541   -1.892053
     77          1           0      -19.109798    5.704713   -0.756336
     78          1           0      -20.258474    7.020205   -0.526201
     79          1           0      -19.553540    6.862549   -2.106485
     80         12           0       24.414612   -0.694923    0.169759
     81          6           0       22.172531    1.962124    0.832864
     82          6           0       26.646772    1.588627   -0.922086
     83          6           0       26.393151   -3.201547   -0.551718
     84          6           0       21.652447   -2.929889    0.662930
     85          7           0       24.396855    1.565963   -0.133516
     86          6           0       23.460797    2.397778    0.457798
     87          6           0       24.033313    3.773896    0.439411
     88          6           0       25.156117    3.715274   -0.596781
     89          6           0       25.476561    2.199858   -0.566310
     90          6           0       24.632304    4.142958   -2.018897
     91          6           0       24.558227    4.365838    1.855975
     92          6           0       24.259316    5.843424    2.255035
     93          1           0       24.581793    6.934699    1.193627
     94          7           0       26.289667   -0.755155   -0.653402
     95          6           0       27.011897    0.268567   -1.001906
     96          6           0       28.276589   -0.230624   -1.569048
     97          6           0       28.344671   -1.628359   -1.285417
     98          6           0       26.959985   -1.935012   -0.826877
     99          6           0       29.406994    0.573467   -2.308661
    100          6           0       29.485181   -2.637710   -1.413139
    101          8           0       29.359023   -3.864432   -1.235954
    102          6           0       30.749569   -2.183859   -1.971530
    103          7           0       23.974053   -2.814987   -0.088833
    104          6           0       25.052895   -3.671944   -0.290089
    105          6           0       24.572607   -5.157868   -0.067377
    106          6           0       23.120751   -4.989067    0.445648
    107          6           0       22.894986   -3.476896    0.380289
    108          6           0       24.784867   -6.044825   -1.294498
    109          6           0       22.792752   -5.659463    1.803517
    110          6           0       21.414292   -6.344116    1.954689
    111          7           0       22.338182   -0.572345    0.629913
    112          6           0       21.342605   -1.537180    0.746600
    113          6           0       20.143516   -0.901879    1.230890
    114          6           0       20.409111    0.468278    1.222251
    115          6           0       21.772200    0.653957    0.861508
    116          6           0       18.959785   -1.531985    1.645643
    117          6           0       19.874244    1.803154    1.528875
    118          8           0       18.798061    2.186561    1.959237
    119          6           0       21.031521    2.830818    1.305269
    120          6           0       20.536558    3.855744    0.300392
    121          8           0       20.490205    3.880745   -0.908670
    122          8           0       20.209133    4.903825    1.111243
    123          6           0       20.001387    6.227654    0.477364
    124          1           0       27.411134    2.319527   -1.195501
    125          1           0       27.144812   -3.991771   -0.605363
    126          1           0       20.872398   -3.598430    1.031860
    127          1           0       23.356140    4.569478    0.127631
    128          1           0       26.068471    4.204874   -0.257061
    129          1           0       25.379839    4.644584   -2.632513
    130          1           0       23.848979    4.900263   -1.978987
    131          1           0       24.367309    3.207810   -2.511041
    132          1           0       25.618577    4.142009    1.968116
    133          1           0       24.149551    3.769660    2.672698
    134          1           0       24.972688    6.009552    3.063069
    135          1           0       23.206923    5.785638    2.533042
    136          1           0       30.347171    0.664694   -1.765217
    137          1           0       29.008709    1.569244   -2.505352
    138          1           0       29.777027    0.117084   -3.226790
    139          1           0       31.133159   -1.324954   -1.420223
    140          1           0       30.636415   -1.921174   -3.023411
    141          1           0       31.484976   -2.957438   -1.752674
    142          1           0       25.126801   -5.523376    0.797262
    143          1           0       22.407109   -5.313422   -0.311474
    144          1           0       23.900119   -5.991134   -1.929734
    145          1           0       24.880156   -7.107719   -1.074812
    146          1           0       25.535122   -5.585645   -1.937370
    147          1           0       22.953089   -5.014594    2.667401
    148          1           0       23.525674   -6.430910    2.043522
    149          1           0       20.802815   -5.597666    2.461859
    150          1           0       21.589315   -7.165630    2.650113
    151          1           0       21.021209   -6.618685    0.976196
    152          1           0       18.018960   -0.982046    1.642708
    153          1           0       19.159788   -1.952682    2.631597
    154          1           0       18.797430   -2.335744    0.928422
    155          1           0       21.299749    3.302097    2.250632
    156          1           0       20.518803    6.928402    1.131972
    157          1           0       18.968533    6.564311    0.391736
    158          1           0       20.477780    6.249712   -0.502419
 ---------------------------------------------------------------------

 SCF Done:  E(RPBE1PBE) =  -4067.36914333     A.U. after   16 cycles

 Excitation energies and oscillator strengths:

 Excited State   1:      Singlet-A      1.7318 eV  715.93 nm  f=0.0000  <S**2>=0.000
     312 -> 313        0.70711
 This state for optimization and/or second-order correction.
 Total Energy, E(TD-HF/TD-DFT) =  -4067.30550151
 Copying the excited state density for this state as the 1-particle RhoCI density.

 Excited State   2:      Singlet-A      1.8204 eV  681.09 nm  f=0.3637  <S**2>=0.000
     309 -> 316       -0.15128
     311 -> 313        0.70061
     311 <- 313       -0.12604

 Excited State   3:      Singlet-A      1.8848 eV  657.80 nm  f=0.3778  <S**2>=0.000
     310 -> 315        0.17649
     312 -> 314        0.68858

 Excited State   4:      Singlet-A      2.2333 eV  555.16 nm  f=0.0000  <S**2>=0.000
     311 -> 314        0.70711

 Excited State   5:      Singlet-A      2.2641 eV  547.60 nm  f=0.0693  <S**2>=0.000
     310 -> 314        0.63672
     312 -> 315       -0.28664

 The electronic state is 1-A.
 Alpha  occ. eigenvalues --  -46.92733 -46.92311 -19.25354 -19.25047 -19.20242
 Alpha  occ. eigenvalues --  -19.20015 -19.19527 -19.19403 -19.18912 -19.17778
 Alpha  occ. eigenvalues --  -14.41649 -14.41296 -14.41068 -14.40912 -14.39420
 Alpha  occ. eigenvalues --  -14.39389 -14.39196 -14.38656 -10.36234 -10.36013
 Alpha  occ. eigenvalues --  -10.33027 -10.32554 -10.31984 -10.31212 -10.29438
 Alpha  occ. eigenvalues --  -10.29100 -10.28678 -10.28561 -10.28551 -10.28421
 Alpha  occ. eigenvalues --  -10.28381 -10.28355 -10.28300 -10.28257 -10.28101
 Alpha  occ. eigenvalues --  -10.27974 -10.27695 -10.27633 -10.27544 -10.27365
 Alpha  occ. eigenvalues --  -10.27337 -10.27063 -10.26838 -10.26694 -10.26372
 Alpha  occ. eigenvalues --  -10.26043 -10.26007 -10.25994 -10.25926 -10.25749
 Alpha  occ. eigenvalues --  -10.25713 -10.25688 -10.25543 -10.25486 -10.25438
 Alpha  occ. eigenvalues --  -10.25367 -10.25348 -10.25331 -10.25245 -10.25230
 Alpha  occ. eigenvalues --  -10.25156 -10.25105 -10.25040 -10.25011 -10.24986
 Alpha  occ. eigenvalues --  -10.24863 -10.24574 -10.24552 -10.24361 -10.24206
 Alpha  occ. eigenvalues --  -10.24033 -10.24019 -10.23767 -10.23561 -10.23469
 Alpha  occ. eigenvalues --  -10.23449 -10.23258 -10.23258 -10.23176 -10.23164
 Alpha  occ. eigenvalues --  -10.23131 -10.23078 -10.23064 -10.22855 -10.22689
 Alpha  occ. eigenvalues --  -10.22568  -3.14705  -3.14548  -1.87542  -1.87358
 Alpha  occ. eigenvalues --   -1.87080  -1.86919  -1.86919  -1.86794  -1.11198
 Alpha  occ. eigenvalues --   -1.10880  -1.04869  -1.04342  -1.03992  -1.02592
 Alpha  occ. eigenvalues --   -1.02263  -1.01689  -0.99776  -0.99650  -0.98584
 Alpha  occ. eigenvalues --   -0.98548  -0.98330  -0.97681  -0.97147  -0.96742
 Alpha  occ. eigenvalues --   -0.87955  -0.87140  -0.83731  -0.83171  -0.83113
 Alpha  occ. eigenvalues --   -0.82765  -0.82360  -0.82289  -0.81892  -0.81786
 Alpha  occ. eigenvalues --   -0.81326  -0.81159  -0.81143  -0.80524  -0.78969
 Alpha  occ. eigenvalues --   -0.78503  -0.78289  -0.77878  -0.77402  -0.76963
 Alpha  occ. eigenvalues --   -0.76571  -0.76351  -0.75833  -0.75455  -0.75089
 Alpha  occ. eigenvalues --   -0.74966  -0.72880  -0.72645  -0.71740  -0.71727
 Alpha  occ. eigenvalues --   -0.71588  -0.71335  -0.70532  -0.70158  -0.69811
 Alpha  occ. eigenvalues --   -0.69457  -0.67750  -0.66979  -0.66260  -0.65348
 Alpha  occ. eigenvalues --   -0.63632  -0.63214  -0.63104  -0.63022  -0.62541
 Alpha  occ. eigenvalues --   -0.62181  -0.61712  -0.61394  -0.60072  -0.59963
 Alpha  occ. eigenvalues --   -0.59830  -0.59574  -0.59484  -0.59426  -0.58959
 Alpha  occ. eigenvalues --   -0.58891  -0.56559  -0.56522  -0.55392  -0.54979
 Alpha  occ. eigenvalues --   -0.54332  -0.54123  -0.53953  -0.53817  -0.53298
 Alpha  occ. eigenvalues --   -0.52937  -0.52880  -0.52382  -0.52343  -0.52067
 Alpha  occ. eigenvalues --   -0.50739  -0.50428  -0.50383  -0.50124  -0.49722
 Alpha  occ. eigenvalues --   -0.49404  -0.49189  -0.49006  -0.48720  -0.48266
 Alpha  occ. eigenvalues --   -0.48221  -0.48117  -0.47825  -0.47799  -0.47619
 Alpha  occ. eigenvalues --   -0.47385  -0.47292  -0.47028  -0.46996  -0.46986
 Alpha  occ. eigenvalues --   -0.46663  -0.46437  -0.46247  -0.46123  -0.45999
 Alpha  occ. eigenvalues --   -0.45872  -0.45753  -0.45512  -0.45382  -0.44951
 Alpha  occ. eigenvalues --   -0.44877  -0.44599  -0.44530  -0.44384  -0.44336
 Alpha  occ. eigenvalues --   -0.44137  -0.44017  -0.43930  -0.43843  -0.43550
 Alpha  occ. eigenvalues --   -0.43426  -0.43420  -0.42971  -0.42854  -0.42786
 Alpha  occ. eigenvalues --   -0.42497  -0.42342  -0.42270  -0.42077  -0.41934
 Alpha  occ. eigenvalues --   -0.41790  -0.41449  -0.41352  -0.41239  -0.41033
 Alpha  occ. eigenvalues --   -0.40993  -0.40870  -0.40706  -0.40628  -0.40308
 Alpha  occ. eigenvalues --   -0.40072  -0.39904  -0.39755  -0.39637  -0.39614
 Alpha  occ. eigenvalues --   -0.39507  -0.39476  -0.39242  -0.39173  -0.38789
 Alpha  occ. eigenvalues --   -0.38771  -0.38631  -0.38474  -0.38366  -0.38125
 Alpha  occ. eigenvalues --   -0.37861  -0.37817  -0.37774  -0.37623  -0.37531
 Alpha  occ. eigenvalues --   -0.37498  -0.37167  -0.37019  -0.36998  -0.36833
 Alpha  occ. eigenvalues --   -0.36669  -0.36370  -0.36359  -0.36156  -0.36115
 Alpha  occ. eigenvalues --   -0.35747  -0.35686  -0.35504  -0.35413  -0.35087
 Alpha  occ. eigenvalues --   -0.34718  -0.34679  -0.34594  -0.34348  -0.34200
 Alpha  occ. eigenvalues --   -0.33693  -0.33538  -0.33091  -0.32748  -0.32661
 Alpha  occ. eigenvalues --   -0.32384  -0.32226  -0.31614  -0.31477  -0.31378
 Alpha  occ. eigenvalues --   -0.30943  -0.30657  -0.29815  -0.29579  -0.29118
 Alpha  occ. eigenvalues --   -0.29066  -0.28644  -0.28591  -0.27195  -0.26883
 Alpha  occ. eigenvalues --   -0.26475  -0.26250  -0.25905  -0.25728  -0.25477
 Alpha  occ. eigenvalues --   -0.25345  -0.24940  -0.24699  -0.21220  -0.20901
 Alpha  occ. eigenvalues --   -0.19286  -0.18617
 Alpha virt. eigenvalues --   -0.11978  -0.10805  -0.05551  -0.04405  -0.04252
 Alpha virt. eigenvalues --   -0.03909  -0.02217  -0.02140  -0.01000  -0.00881
 Alpha virt. eigenvalues --   -0.00445   0.00954   0.01130   0.01279   0.01543

 Mulliken charges:
               1
     1  Mg  12.000000
     2  C    6.000000
     3  C    6.000000
     4  C    6.000000
     5  C    6.000000
     6  N    7.000000
     7  C    6.000000
     8  C    6.000000
     9  C    6.000000
    10  C    6.000000
    11  C    6.000000
    12  C    6.000000
    13  C    6.000000
    14  H    1.000000
    15  N    7.000000
    16  C    6.000000
    17  C    6.000000
    18  C    6.000000
    19  C    6.000000
    20  C    6.000000
    21  C    6.000000
    22  O    8.000000
    23  C    6.000000
    24  N    7.000000
    25  C    6.000000
    26  C    6.000000
    27  C    6.000000
    28  C    6.000000
    29  C    6.000000
    30  C    6.000000
    31  C    6.000000
    32  N    7.000000
    33  C    6.000000
    34  C    6.000000
    35  C    6.000000
    36  C    6.000000
    37  C    6.000000
    38  C    6.000000
    39  O    8.000000
    40  C    6.000000
    41  C    6.000000
    42  O    8.000000
    43  O    8.000000
    44  C    6.000000
    45  H    1.000000
    46  H    1.000000
    47  H    1.000000
    48  H    1.000000
    49  H    1.000000
    50  H    1.000000
    51  H    1.000000
    52  H    1.000000
    53  H    1.000000
    54  H    1.000000
    55  H    1.000000
    56  H    1.000000
    57  H    1.000000
    58  H    1.000000
    59  H    1.000000
    60  H    1.000000
    61  H    1.000000
    62  H    1.000000
    63  H    1.000000
    64  H    1.000000
    65  H    1.000000
    66  H    1.000000
    67  H    1.000000
    68  H    1.000000
    69  H    1.000000
    70  H    1.000000
    71  H    1.000000
    72  H    1.000000
    73  H    1.000000
    74  H    1.000000
    75  H    1.000000
    76  H    1.000000
    77  H    1.000000
    78  H    1.000000
    79  H    1.000000
    80  Mg  12.000000
    81  C    6.000000
    82  C    6.000000
    83  C    6.000000
    84  C    6.000000
    85  N    7.000000
    86  C    6.000000
    87  C    6.000000
    88  C    6.000000
    89  C    6.000000
    90  C    6.000000
    91  C    6.000000
    92  C    6.000000
    93  H    1.000000
    94  N    7.000000
    95  C    6.000000
    96  C    6.000000
    97  C    6.000000
    98  C    6.000000
    99  C    6.000000
   100  C    6.000000
   101  O    8.000000
   102  C    6.000000
   103  N    7.000000
   104  C    6.000000
   105  C    6.000000
   106  C    6.000000
   107  C    6.000000
   108  C    6.000000
   109  C    6.000000
   110  C    6.000000
   111  N    7.000000
   112  C    6.000000
   113  C    6.000000
   114  C    6.000000
   115  C    6.000000
   116  C    6.000000
   117  C    6.000000
   118  O    8.000000
   119  C    6.000000
   120  C    6.000000
   121  O    8.000000
   122  O    8.000000
   123  C    6.000000
   124  H    1.000000
   125  H    1.000000
   126  H    1.000000
   127  H    1.000000
   128  H    1.000000
   129  H    1.000000
   130  H    1.000000
   131  H    1.000000
   132  H    1.000000
   133  H    1.000000
   134  H    1.000000
   135  H    1.000000
   136  H    1.000000
   137  H    1.000000
   138  H    1.000000
   139  H    1.000000
   140  H    1.000000
   141  H    1.000000
   142  H    1.000000
   143  H    1.000000
   144  H    1.000000
   145  H    1.000000
   146  H    1.000000
   147  H    1.000000
   148  H    1.000000
   149  H    1.000000
   150  H    1.000000
   151  H    1.000000
   152  H    1.000000
   153  H    1.000000
   154  H    1.000000
   155  H    1.000000
   156  H    1.000000
   157  H    1.000000
   158  H    1.000000
 Sum of Mulliken charges = 624.00000

 Dipole moment (field-independent basis, Debye):
    X=              0.0000    Y=              0.0000    Z=             -0.0000  Tot=              0.0000
 Quadrupole moment (field-independent basis, Debye-Ang):
   XX=             -0.0000   YY=              0.0000   ZZ=              0.0000
   XY=             -0.0000   XZ=              0.0000   YZ=              0.0000

 Normal termination of Gaussian 16 at Thu Oct 14 01:46:37 2021.
