 Gaussian 16, Revision A.03,
 Gaussian 16:  ES64L-G16RevA.03 25-Dec-2016

 --------------------------------------------------------
 #p PBE1PBE/Def2SVP td=(nstates=5) density=(transition=1)
 --------------------------------------------------------

 --------------------------------
 TDDFT excited states in gaussian
 --------------------------------
 Symbolic Z-matrix:
 Charge =  0 Multiplicity = 1

                         Standard orientation:
 ---------------------------------------------------------------------
 Center     Atomic      Atomic             Coordinates (Angstroms)
 Number     Number       Type             X           Y           Z
 ---------------------------------------------------------------------
      1         12           0       27.885907    0.521611    0.057111
      2          6           0       24.797304   -0.643192   -0.922710
      3          6           0       26.459994    1.672059    2.939391
      4          6           0       30.899233    0.440614    1.408415
      5          6           0       29.191423   -0.760536   -2.939422
      6          7           0       25.921100    0.063804    1.054609
      7          6           0       24.774233   -0.201854    0.377753
      8          6           0       23.546704   -0.012988    1.219132
      9          6           0       24.065496    1.082270    2.206204
     10          6           0       25.572510    0.999499    2.013453
     11          6           0       23.437156    2.481896    1.948828
     12          6           0       23.129004   -1.359187    1.998374
     13          6           0       21.556839   -1.587843    2.178668
     14          1           0       21.262999   -1.648051    3.657205
     15          7           0       28.592561    1.184451    1.861143
     16          6           0       27.900084    1.543424    2.964398
     17          6           0       28.806164    1.853361    4.063100
     18          6           0       30.104371    1.530135    3.617668
     19          6           0       29.894652    1.019090    2.233931
     20          6           0       28.271075    2.358322    5.425072
     21          6           0       31.300218    1.517449    4.528535
     22          8           0       31.178664    1.873507    5.671640
     23          6           0       32.703506    1.025971    4.125019
     24          7           0       29.853318    0.046500   -0.683384
     25          6           0       30.872058    0.080896    0.054721
     26          6           0       32.089589   -0.468686   -0.591718
     27          6           0       31.564214   -0.858703   -2.029014
     28          6           0       30.142077   -0.521118   -1.905297
     29          6           0       33.287701    0.537563   -0.522373
     30          6           0       31.802974   -2.405022   -2.356984
     31          6           0       31.756806   -2.841009   -3.864666
     32          7           0       27.194947   -0.418161   -1.645469
     33          6           0       27.832770   -0.779606   -2.818264
     34          6           0       26.878164   -1.216024   -3.799196
     35          6           0       25.623678   -1.131299   -3.099609
     36          6           0       25.891039   -0.753206   -1.798006
     37          6           0       27.140474   -1.648987   -5.205640
     38          6           0       24.220350   -1.304856   -3.251953
     39          8           0       23.477780   -1.669263   -4.172740
     40          6           0       23.646668   -1.184924   -1.801255
     41          6           0       22.423298   -0.335437   -1.895682
     42          8           0       21.269172   -0.768438   -2.021041
     43          8           0       22.775434    0.985958   -1.880673
     44          6           0       21.546537    1.816009   -2.024524
     45          1           0       26.092685    2.195707    3.824877
     46          1           0       31.870797    0.369940    1.900765
     47          1           0       29.610918   -1.277008   -3.806170
     48          1           0       22.816303    0.402579    0.526077
     49          1           0       23.756841    0.821985    3.218803
     50          1           0       22.843076    2.773939    2.814303
     51          1           0       22.732175    2.368817    1.124577
     52          1           0       24.248018    3.161128    1.687545
     53          1           0       23.619259   -1.534113    2.955935
     54          1           0       23.482675   -2.234660    1.454748
     55          1           0       21.386274   -2.582910    1.767482
     56          1           0       20.851947   -0.944694    1.651678
     57          1           0       28.528200    1.733136    6.280052
     58          1           0       27.195687    2.538941    5.440979
     59          1           0       28.679855    3.357729    5.570253
     60          1           0       33.165293    1.633498    3.347397
     61          1           0       32.732751   -0.023481    3.830861
     62          1           0       33.259412    0.992781    5.062514
     63          1           0       32.291212   -1.370694   -0.014090
     64          1           0       31.895742   -0.265981   -2.881243
     65          1           0       34.094015    0.030373    0.007001
     66          1           0       33.011613    1.465711   -0.021634
     67          1           0       33.786752    0.703338   -1.477007
     68          1           0       31.067485   -3.015532   -1.832694
     69          1           0       32.781811   -2.636101   -1.939323
     70          1           0       32.620107   -3.301314   -4.344437
     71          1           0       31.580602   -1.978500   -4.505963
     72          1           0       30.934982   -3.537837   -4.029487
     73          1           0       28.148693   -1.488272   -5.586930
     74          1           0       26.391307   -1.044077   -5.714867
     75          1           0       26.788106   -2.679065   -5.150482
     76          1           0       23.410492   -2.140404   -1.331658
     77          1           0       21.152092    1.704169   -3.033975
     78          1           0       21.756269    2.885567   -2.010184
     79          1           0       20.858169    1.524257   -1.231072
     80         12           0      -26.853343   -0.614929    0.472236
     81          6           0      -28.025579    2.638865   -0.247880
     82          6           0      -24.458459   -0.276554   -1.769299
     83          6           0      -26.422081   -4.001064    0.616917
     84          6           0      -30.129017   -1.170769    2.095871
     85          7           0      -26.373355    1.015172   -0.888928
     86          6           0      -26.810148    2.290347   -0.839679
     87          6           0      -25.860559    3.181531   -1.664085
     88          6           0      -24.749672    2.285558   -2.109623
     89          6           0      -25.211941    0.885872   -1.602825
     90          6           0      -24.394840    2.457764   -3.643154
     91          6           0      -25.364090    4.526055   -1.034692
     92          6           0      -23.906848    5.102665   -1.295417
     93          1           0      -23.757025    6.597856   -1.612237
     94          7           0      -25.437850   -1.893407   -0.278048
     95          6           0      -24.498695   -1.538550   -1.219922
     96          6           0      -23.665675   -2.683134   -1.456775
     97          6           0      -24.223439   -3.848166   -0.799446
     98          6           0      -25.433816   -3.286047   -0.160599
     99          6           0      -22.544367   -2.540961   -2.404510
    100          6           0      -23.696213   -5.300549   -0.694301
    101          8           0      -24.336132   -6.129322   -0.135609
    102          6           0      -22.284638   -5.620440   -1.064816
    103          7           0      -28.160751   -2.335163    1.212629
    104          6           0      -27.611381   -3.570281    1.234708
    105          6           0      -28.542712   -4.614601    1.929330
    106          6           0      -29.715352   -3.725446    2.444911
    107          6           0      -29.361036   -2.322218    1.893352
    108          6           0      -29.023943   -5.741901    1.055003
    109          6           0      -29.976937   -3.668836    3.990667
    110          6           0      -29.091333   -2.830306    4.848952
    111          7           0      -28.734770    0.410555    0.914575
    112          6           0      -29.869119    0.069454    1.593826
    113          6           0      -30.711413    1.232579    1.730723
    114          6           0      -30.063984    2.286107    1.033147
    115          6           0      -28.883885    1.714571    0.515525
    116          6           0      -32.083010    1.302735    2.303414
    117          6           0      -30.145390    3.655447    0.611620
    118          8           0      -30.956892    4.551624    0.813113
    119          6           0      -28.806013    3.964544   -0.196396
    120          6           0      -29.061926    4.635727   -1.535254
    121          8           0      -29.639470    4.108826   -2.450872
    122          8           0      -28.491103    5.898495   -1.528499
    123          6           0      -28.716421    6.641044   -2.769148
    124          1           0      -23.526396   -0.190806   -2.332447
    125          1           0      -26.186383   -5.066187    0.660266
    126          1           0      -31.050382   -1.302748    2.666778
    127          1           0      -26.558073    3.460186   -2.453989
    128          1           0      -23.842363    2.614080   -1.601959
    129          1           0      -24.945689    3.306360   -4.048473
    130          1           0      -24.539026    1.490482   -4.124405
    131          1           0      -23.363044    2.783655   -3.775955
    132          1           0      -25.448517    4.411060    0.046211
    133          1           0      -26.035333    5.353996   -1.264328
    134          1           0      -23.528006    4.507106   -2.126253
    135          1           0      -23.278936    4.879737   -0.432704
    136          1           0      -22.487483   -3.492374   -2.932876
    137          1           0      -21.637155   -2.437236   -1.810450
    138          1           0      -22.514077   -1.744868   -3.148617
    139          1           0      -22.380667   -5.902757   -2.112417
    140          1           0      -21.893849   -6.362957   -0.368406
    141          1           0      -21.605873   -4.767446   -1.081161
    142          1           0      -28.096414   -5.013916    2.840302
    143          1           0      -30.712111   -3.850534    2.023080
    144          1           0      -28.486447   -5.768317    0.106221
    145          1           0      -30.076020   -5.637231    0.788582
    146          1           0      -28.837704   -6.651890    1.624845
    147          1           0      -29.943538   -4.676784    4.404361
    148          1           0      -31.031442   -3.433680    4.136727
    149          1           0      -28.133377   -2.678488    4.351213
    150          1           0      -28.768634   -3.174522    5.831795
    151          1           0      -29.664766   -1.922288    5.038127
    152          1           0      -32.818064    0.666492    1.811315
    153          1           0      -32.477194    2.267736    1.983858
    154          1           0      -32.078799    1.161486    3.384570
    155          1           0      -28.218757    4.618388    0.448680
    156          1           0      -27.655311    6.572317   -3.006772
    157          1           0      -29.027319    7.624534   -2.417535
    158          1           0      -29.403834    6.140397   -3.451337
 ---------------------------------------------------------------------

 SCF Done:  E(RPBE1PBE) =  -4067.35092576     A.U. after   17 cycles

 Excitation energies and oscillator strengths:

 Excited State   1:      Singlet-A      1.7987 eV  689.31 nm  f=0.3468  <S**2>=0.000
     309 -> 315       -0.16155
     311 -> 313        0.69479
     311 <- 313       -0.10914
 This state for optimization and/or second-order correction.
 Total Energy, E(TD-HF/TD-DFT) =  -4067.28482603
 Copying the excited state density for this state as the 1-particle RhoCI density.

 Excited State   2:      Singlet-A      1.8611 eV  666.19 nm  f=0.3721  <S**2>=0.000
     310 -> 316        0.17933
     312 -> 314        0.69126
     312 <- 314       -0.10764

 Excited State   3:      Singlet-A      1.9297 eV  642.49 nm  f=0.0000  <S**2>=0.000
     312 -> 313        0.70711

 Excited State   4:      Singlet-A      2.0304 eV  610.64 nm  f=0.0000  <S**2>=0.000
     311 -> 314        0.70711

 Excited State   5:      Singlet-A      2.1921 eV  565.59 nm  f=0.1043  <S**2>=0.000
     310 -> 314        0.65385
     312 -> 316       -0.25419

 The electronic state is 1-A.
 Alpha  occ. eigenvalues --  -46.93377 -46.92602 -19.26319 -19.25443 -19.20248
 Alpha  occ. eigenvalues --  -19.19675 -19.19463 -19.19430 -19.18896 -19.18483
 Alpha  occ. eigenvalues --  -14.41738 -14.41524 -14.41483 -14.41232 -14.39757
 Alpha  occ. eigenvalues --  -14.39118 -14.38499 -14.38463 -10.36126 -10.35854
 Alpha  occ. eigenvalues --  -10.32756 -10.32627 -10.31962 -10.31502 -10.29783
 Alpha  occ. eigenvalues --  -10.29270 -10.29036 -10.29028 -10.28863 -10.28534
 Alpha  occ. eigenvalues --  -10.28508 -10.28389 -10.28325 -10.28208 -10.28180
 Alpha  occ. eigenvalues --  -10.28127 -10.27899 -10.27135 -10.27012 -10.26777
 Alpha  occ. eigenvalues --  -10.26642 -10.26534 -10.26378 -10.26342 -10.26246
 Alpha  occ. eigenvalues --  -10.26172 -10.26164 -10.26111 -10.26055 -10.25942
 Alpha  occ. eigenvalues --  -10.25804 -10.25678 -10.25572 -10.25481 -10.25437
 Alpha  occ. eigenvalues --  -10.25437 -10.25369 -10.25353 -10.25280 -10.25241
 Alpha  occ. eigenvalues --  -10.25221 -10.25157 -10.25101 -10.25064 -10.24642
 Alpha  occ. eigenvalues --  -10.24637 -10.24439 -10.24397 -10.24384 -10.24364
 Alpha  occ. eigenvalues --  -10.24320 -10.23989 -10.23962 -10.23933 -10.23850
 Alpha  occ. eigenvalues --  -10.23818 -10.23781 -10.23778 -10.23768 -10.23761
 Alpha  occ. eigenvalues --  -10.23638 -10.22839 -10.22664 -10.22571 -10.22549
 Alpha  occ. eigenvalues --  -10.22359  -3.15270  -3.14754  -1.88080  -1.87651
 Alpha  occ. eigenvalues --   -1.87581  -1.87482  -1.87142  -1.86969  -1.11069
 Alpha  occ. eigenvalues --   -1.10837  -1.07569  -1.06430  -1.03985  -1.03386
 Alpha  occ. eigenvalues --   -1.03139  -1.01695  -1.01395  -0.99089  -0.98812
 Alpha  occ. eigenvalues --   -0.98553  -0.97768  -0.97713  -0.97112  -0.96463
 Alpha  occ. eigenvalues --   -0.87089  -0.85969  -0.84115  -0.83539  -0.83134
 Alpha  occ. eigenvalues --   -0.82953  -0.82546  -0.82533  -0.81678  -0.81658
 Alpha  occ. eigenvalues --   -0.81404  -0.81218  -0.80817  -0.80437  -0.78532
 Alpha  occ. eigenvalues --   -0.78253  -0.78215  -0.77939  -0.76646  -0.76556
 Alpha  occ. eigenvalues --   -0.76223  -0.75889  -0.75192  -0.75150  -0.74750
 Alpha  occ. eigenvalues --   -0.74722  -0.72842  -0.72568  -0.71979  -0.71425
 Alpha  occ. eigenvalues --   -0.71385  -0.71122  -0.70374  -0.70186  -0.69805
 Alpha  occ. eigenvalues --   -0.69009  -0.67235  -0.66787  -0.66644  -0.65859
 Alpha  occ. eigenvalues --   -0.64918  -0.64085  -0.63664  -0.63627  -0.62688
 Alpha  occ. eigenvalues --   -0.62605  -0.62057  -0.61364  -0.61310  -0.59813
 Alpha  occ. eigenvalues --   -0.59472  -0.59457  -0.59074  -0.58762  -0.58628
 Alpha  occ. eigenvalues --   -0.58497  -0.57094  -0.56258  -0.54951  -0.54515
 Alpha  occ. eigenvalues --   -0.54239  -0.54078  -0.53755  -0.53408  -0.53371
 Alpha  occ. eigenvalues --   -0.52922  -0.52600  -0.52541  -0.51928  -0.51459
 Alpha  occ. eigenvalues --   -0.51307  -0.50799  -0.50597  -0.50405  -0.50319
 Alpha  occ. eigenvalues --   -0.49899  -0.49594  -0.49560  -0.49158  -0.48847
 Alpha  occ. eigenvalues --   -0.48616  -0.48298  -0.48145  -0.47730  -0.47565
 Alpha  occ. eigenvalues --   -0.47401  -0.47173  -0.46942  -0.46820  -0.46478
 Alpha  occ. eigenvalues --   -0.46363  -0.46309  -0.45946  -0.45804  -0.45712
 Alpha  occ. eigenvalues --   -0.45482  -0.45391  -0.45354  -0.45158  -0.44832
 Alpha  occ. eigenvalues --   -0.44824  -0.44785  -0.44637  -0.44528  -0.44155
 Alpha  occ. eigenvalues --   -0.44124  -0.43900  -0.43854  -0.43662  -0.43618
 Alpha  occ. eigenvalues --   -0.43371  -0.43335  -0.43220  -0.42987  -0.42913
 Alpha  occ. eigenvalues --   -0.42453  -0.42390  -0.42304  -0.42040  -0.41891
 Alpha  occ. eigenvalues --   -0.41831  -0.41605  -0.41457  -0.41451  -0.41066
 Alpha  occ. eigenvalues --   -0.41044  -0.40758  -0.40682  -0.40551  -0.40486
 Alpha  occ. eigenvalues --   -0.40268  -0.40164  -0.40083  -0.39804  -0.39500
 Alpha  occ. eigenvalues --   -0.39348  -0.39309  -0.39237  -0.39142  -0.39036
 Alpha  occ. eigenvalues --   -0.38939  -0.38853  -0.38728  -0.38491  -0.38377
 Alpha  occ. eigenvalues --   -0.38343  -0.38091  -0.38057  -0.37805  -0.37680
 Alpha  occ. eigenvalues --   -0.37582  -0.37480  -0.37467  -0.37190  -0.37068
 Alpha  occ. eigenvalues --   -0.36923  -0.36889  -0.36825  -0.36713  -0.36411
 Alpha  occ. eigenvalues --   -0.36265  -0.36146  -0.35769  -0.35743  -0.35477
 Alpha  occ. eigenvalues --   -0.34998  -0.34990  -0.34622  -0.34073  -0.33887
 Alpha  occ. eigenvalues --   -0.33649  -0.33264  -0.33044  -0.32831  -0.32695
 Alpha  occ. eigenvalues --   -0.32368  -0.31958  -0.31936  -0.31832  -0.31525
 Alpha  occ. eigenvalues --   -0.30867  -0.30769  -0.30221  -0.29525  -0.29105
 Alpha  occ. eigenvalues --   -0.28796  -0.28661  -0.28407  -0.26865  -0.26519
 Alpha  occ. eigenvalues --   -0.26438  -0.26307  -0.26125  -0.25583  -0.25377
 Alpha  occ. eigenvalues --   -0.25364  -0.25008  -0.24769  -0.21060  -0.20747
 Alpha  occ. eigenvalues --   -0.18773  -0.18673
 Alpha virt. eigenvalues --   -0.11342  -0.11071  -0.05354  -0.05076  -0.04014
 Alpha virt. eigenvalues --   -0.03763  -0.02295  -0.01937  -0.01641  -0.00826
 Alpha virt. eigenvalues --    0.00221   0.00336   0.00978   0.01170   0.01732

 Mulliken charges:
               1
     1  Mg  12.000633
     2  C    6.012969
     3  C    5.992585
     4  C    5.984786
     5  C    6.003346
     6  N    7.008277
     7  C    5.966252
     8  C    6.010318
     9  C    5.986172
    10  C    6.031771
    11  C    5.996965
    12  C    5.998957
    13  C    6.002164
    14  H    0.991099
    15  N    6.995214
    16  C    6.035696
    17  C    6.022151
    18  C    6.013800
    19  C    6.029286
    20  C    5.996162
    21  C    6.009324
    22  O    8.018838
    23  C    5.998352
    24  N    7.000513
    25  C    6.028891
    26  C    5.991675
    27  C    6.010165
    28  C    5.965909
    29  C    5.997331
    30  C    6.006339
    31  C    6.001341
    32  N    6.999682
    33  C    5.973155
    34  C    5.968354
    35  C    6.000167
    36  C    5.975439
    37  C    5.999163
    38  C    5.984240
    39  O    7.971076
    40  C    6.001316
    41  C    5.996153
    42  O    7.992995
    43  O    8.000993
    44  C    6.000815
    45  H    1.010223
    46  H    1.006290
    47  H    0.991691
    48  H    1.002830
    49  H    1.005180
    50  H    1.003435
    51  H    1.015012
    52  H    0.999615
    53  H    0.989367
    54  H    1.004948
    55  H    1.002087
    56  H    1.000476
    57  H    1.017298
    58  H    1.017200
    59  H    1.016938
    60  H    1.010572
    61  H    1.011005
    62  H    1.010750
    63  H    0.998053
    64  H    0.998344
    65  H    0.999999
    66  H    0.994177
    67  H    1.008788
    68  H    0.997175
    69  H    0.988139
    70  H    0.994266
    71  H    1.001508
    72  H    1.003499
    73  H    0.982802
    74  H    0.984956
    75  H    0.982947
    76  H    0.991685
    77  H    1.000043
    78  H    0.993727
    79  H    0.994140
    80  Mg  11.999995
    81  C    6.000021
    82  C    6.000045
    83  C    5.999963
    84  C    5.999942
    85  N    7.000005
    86  C    5.999939
    87  C    6.000024
    88  C    5.999958
    89  C    6.000062
    90  C    5.999996
    91  C    6.000006
    92  C    5.999994
    93  H    1.000006
    94  N    7.000033
    95  C    6.000041
    96  C    6.000068
    97  C    6.000044
    98  C    6.000059
    99  C    5.999960
   100  C    6.000057
   101  O    8.000072
   102  C    5.999985
   103  N    7.000028
   104  C    6.000041
   105  C    5.999969
   106  C    6.000006
   107  C    5.999951
   108  C    6.000003
   109  C    6.000025
   110  C    6.000026
   111  N    6.999969
   112  C    5.999970
   113  C    5.999864
   114  C    6.000039
   115  C    5.999928
   116  C    6.000023
   117  C    5.999925
   118  O    7.999891
   119  C    6.000015
   120  C    5.999989
   121  O    7.999990
   122  O    7.999993
   123  C    6.000006
   124  H    1.000047
   125  H    1.000018
   126  H    0.999953
   127  H    1.000011
   128  H    1.000019
   129  H    1.000036
   130  H    0.999998
   131  H    1.000030
   132  H    0.999996
   133  H    1.000005
   134  H    0.999993
   135  H    0.999991
   136  H    1.000079
   137  H    1.000084
   138  H    1.000079
   139  H    1.000048
   140  H    1.000051
   141  H    1.000021
   142  H    0.999997
   143  H    0.999998
   144  H    0.999989
   145  H    1.000020
   146  H    0.999997
   147  H    0.999954
   148  H    0.999992
   149  H    0.999979
   150  H    0.999958
   151  H    1.000010
   152  H    0.999921
   153  H    0.999949
   154  H    0.999915
   155  H    0.999972
   156  H    0.999992
   157  H    0.999981
   158  H    0.999994
 Sum of Mulliken charges = 624.00000

 Dipole moment (field-independent basis, Debye):
    X=              3.4467    Y=              3.6773    Z=              8.7349  Tot=             10.0846
 Quadrupole moment (field-independent basis, Debye-Ang):
   XX=            185.6179   YY=              1.6188   ZZ=              3.1616
   XY=            103.3619   XZ=            245.7714   YZ=              3.4316

 Normal termination of Gaussian 16 at Fri Oct 15 07:23:49 2021.
