 Gaussian 16, Revision A.03,
 Gaussian 16:  ES64L-G16RevA.03 25-Dec-2016

 --------------------------------------------------------
 #p PBE1PBE/Def2SVP td=(nstates=5) density=(transition=1)
 --------------------------------------------------------

 --------------------------------
 TDDFT excited states in gaussian
 --------------------------------
 Symbolic Z-matrix:
 Charge =  0 Multiplicity = 1

                         Standard orientation:
 ---------------------------------------------------------------------
 Center     Atomic      Atomic             Coordinates (Angstroms)
 Number     Number       Type             X           Y           Z
 ---------------------------------------------------------------------
      1         12           0       29.882837    0.445291    0.405056
      2          6           0       30.219714   -2.395758   -1.428098
      3          6           0       28.027866    2.050079   -2.021219
      4          6           0       29.849162    3.264157    2.348307
      5          6           0       32.177586   -0.957734    2.825083
      6          7           0       29.395655   -0.050309   -1.569857
      7          6           0       29.409480   -1.401485   -2.053611
      8          6           0       28.557310   -1.542350   -3.250984
      9          6           0       28.241491   -0.017118   -3.591764
     10          6           0       28.565013    0.757191   -2.333444
     11          6           0       29.090044    0.541946   -4.840602
     12          6           0       27.364723   -2.534729   -3.091302
     13          6           0       27.157723   -3.472810   -4.236564
     14          1           0       27.361226   -2.863279   -5.679457
     15          7           0       28.989023    2.368915    0.222472
     16          6           0       28.294654    2.779346   -0.876511
     17          6           0       27.843398    4.105310   -0.626663
     18          6           0       28.277468    4.494685    0.700436
     19          6           0       29.041668    3.314635    1.227071
     20          6           0       27.111018    4.940556   -1.699509
     21          6           0       28.062330    5.722855    1.528481
     22          8           0       28.564049    6.010891    2.620898
     23          6           0       27.021697    6.750594    0.942595
     24          7           0       30.975946    1.135466    2.313230
     25          6           0       30.694211    2.264773    2.913897
     26          6           0       31.254142    2.325235    4.333566
     27          6           0       31.995597    0.964359    4.466437
     28          6           0       31.721400    0.328518    3.104993
     29          6           0       32.224080    3.587187    4.593514
     30          6           0       31.347341    0.143320    5.666804
     31          6           0       29.895224   -0.387833    5.578782
     32          7           0       31.115009   -1.251401    0.589959
     33          6           0       31.917418   -1.679486    1.630678
     34          6           0       32.319375   -3.062702    1.303669
     35          6           0       31.707221   -3.442438    0.147119
     36          6           0       30.970136   -2.269417   -0.253356
     37          6           0       33.357918   -3.828364    2.048636
     38          6           0       31.507296   -4.505832   -0.837122
     39          8           0       31.961534   -5.635791   -0.902635
     40          6           0       30.530632   -3.831691   -1.897791
     41          6           0       31.257997   -3.771953   -3.181937
     42          8           0       32.359484   -3.243938   -3.414095
     43          8           0       30.437808   -4.447044   -4.063069
     44          6           0       30.859044   -4.366780   -5.467834
     45          1           0       27.394527    2.573089   -2.740594
     46          1           0       29.698610    4.151088    2.968350
     47          1           0       32.808525   -1.427482    3.581691
     48          1           0       29.219736   -1.973254   -4.002796
     49          1           0       27.174816    0.064559   -3.798427
     50          1           0       29.563571   -0.241148   -5.432748
     51          1           0       29.940519    1.071695   -4.411694
     52          1           0       28.387916    1.204843   -5.344549
     53          1           0       26.437348   -1.976207   -2.963982
     54          1           0       27.642732   -3.098072   -2.200653
     55          1           0       26.137312   -3.848554   -4.300847
     56          1           0       27.690921   -4.421381   -4.301396
     57          1           0       26.063506    4.688531   -1.864336
     58          1           0       27.743939    4.796776   -2.575045
     59          1           0       27.004118    5.989111   -1.422479
     60          1           0       27.472078    7.262798    0.092320
     61          1           0       26.624918    7.335695    1.772046
     62          1           0       26.091377    6.289003    0.610992
     63          1           0       30.418805    2.347732    5.033023
     64          1           0       33.060942    1.065635    4.673726
     65          1           0       31.650419    4.280541    5.209600
     66          1           0       32.468071    4.074223    3.648837
     67          1           0       33.157088    3.448275    5.138192
     68          1           0       31.410142    0.625500    6.642199
     69          1           0       31.970900   -0.751284    5.662333
     70          1           0       30.039877   -1.468210    5.591207
     71          1           0       29.368484   -0.028606    4.695588
     72          1           0       29.266051   -0.095776    6.419549
     73          1           0       33.008934   -4.855902    1.951018
     74          1           0       33.445580   -3.521463    3.091025
     75          1           0       34.253713   -3.842736    1.429170
     76          1           0       29.768918   -4.609145   -1.950310
     77          1           0       30.158964   -5.047320   -5.953318
     78          1           0       31.851773   -4.815257   -5.506160
     79          1           0       30.955567   -3.361136   -5.877575
     80         12           0      -30.615003   -0.637062   -0.297013
     81          6           0      -27.805780    1.561380   -0.325469
     82          6           0      -28.951264   -2.402312    1.967463
     83          6           0      -33.510276   -2.156821    0.556934
     84          6           0      -32.365507    1.995623   -1.941673
     85          7           0      -28.637642   -0.513334    0.578418
     86          6           0      -27.592920    0.414162    0.375143
     87          6           0      -26.314622    0.091531    1.211334
     88          6           0      -26.730098   -1.241874    1.895010
     89          6           0      -28.170961   -1.469073    1.390773
     90          6           0      -25.682516   -2.301298    1.514339
     91          6           0      -25.826657    1.179551    2.262498
     92          6           0      -24.484185    1.846505    1.985978
     93          1           0      -23.409518    1.763733    3.089204
     94          7           0      -31.159323   -2.111008    0.966867
     95          6           0      -30.282405   -2.729552    1.857754
     96          6           0      -30.915690   -3.805308    2.506868
     97          6           0      -32.211359   -3.889710    2.031553
     98          6           0      -32.378751   -2.731561    1.177129
     99          6           0      -30.319251   -4.810428    3.560850
    100          6           0      -33.168667   -4.984800    2.439757
    101          8           0      -32.865009   -5.929189    3.106148
    102          6           0      -34.638833   -4.891977    1.796576
    103          7           0      -32.659635   -0.127299   -0.572228
    104          6           0      -33.660620   -0.959021   -0.149936
    105          6           0      -35.029363   -0.218202   -0.441538
    106          6           0      -34.713462    1.001504   -1.323210
    107          6           0      -33.138007    0.985262   -1.275538
    108          6           0      -36.140606   -1.107862   -0.921777
    109          6           0      -35.225219    2.265587   -0.643761
    110          6           0      -35.494603    3.460056   -1.519922
    111          7           0      -30.142201    1.280099   -1.226072
    112          6           0      -30.947441    2.193401   -1.863787
    113          6           0      -30.172421    3.278188   -2.346166
    114          6           0      -28.861715    3.092017   -1.846559
    115          6           0      -28.957584    1.904091   -1.068087
    116          6           0      -30.648228    4.470372   -3.074903
    117          6           0      -27.483280    3.583183   -1.715863
    118          8           0      -26.962076    4.571565   -2.249688
    119          6           0      -26.715331    2.606829   -0.744453
    120          6           0      -25.728452    1.875844   -1.493717
    121          8           0      -26.058679    0.940321   -2.260347
    122          8           0      -24.529794    2.430377   -1.226227
    123          6           0      -23.302722    1.746326   -1.718554
    124          1           0      -28.418880   -3.028706    2.686732
    125          1           0      -34.417185   -2.713979    0.801428
    126          1           0      -32.822789    2.774681   -2.554667
    127          1           0      -25.475611   -0.096700    0.541533
    128          1           0      -26.788893   -1.174500    2.980912
    129          1           0      -26.067533   -3.260901    1.858124
    130          1           0      -24.689282   -2.164612    1.941801
    131          1           0      -25.527967   -2.363795    0.436577
    132          1           0      -25.636412    0.599638    3.165633
    133          1           0      -26.614311    1.913089    2.434956
    134          1           0      -24.685608    2.892124    1.750638
    135          1           0      -24.024407    1.376434    1.115931
    136          1           0      -30.998032   -4.776876    4.413286
    137          1           0      -29.319771   -4.518624    3.882952
    138          1           0      -30.136760   -5.823374    3.202143
    139          1           0      -35.147908   -5.806847    2.098345
    140          1           0      -34.432117   -4.813208    0.728995
    141          1           0      -35.019589   -3.973023    2.242174
    142          1           0      -35.336606    0.128217    0.545853
    143          1           0      -35.099862    0.985836   -2.342256
    144          1           0      -36.799302   -0.517924   -1.558528
    145          1           0      -36.649250   -1.459180   -0.023805
    146          1           0      -35.807138   -2.028467   -1.399298
    147          1           0      -34.580724    2.606666    0.166939
    148          1           0      -36.140291    2.087045   -0.079116
    149          1           0      -35.475307    3.220053   -2.582840
    150          1           0      -34.723435    4.202702   -1.314272
    151          1           0      -36.397973    3.978380   -1.198566
    152          1           0      -31.541640    4.254363   -3.661639
    153          1           0      -29.824302    4.759446   -3.727799
    154          1           0      -30.901955    5.197704   -2.303387
    155          1           0      -26.326733    3.074583    0.160158
    156          1           0      -22.670332    2.613100   -1.916072
    157          1           0      -23.467942    1.107992   -2.586003
    158          1           0      -22.762432    1.260573   -0.905308
 ---------------------------------------------------------------------

 SCF Done:  E(RPBE1PBE) =  -4067.37142333     A.U. after   16 cycles

 Excitation energies and oscillator strengths:

 Excited State   1:      Singlet-A      1.8382 eV  674.49 nm  f=0.3711  <S**2>=0.000
     309 -> 315       -0.17959
     312 -> 314        0.69185
     312 <- 314       -0.10366
 This state for optimization and/or second-order correction.
 Total Energy, E(TD-HF/TD-DFT) =  -4067.30387082
 Copying the excited state density for this state as the 1-particle RhoCI density.

 Excited State   2:      Singlet-A      1.8689 eV  663.41 nm  f=0.3714  <S**2>=0.000
     310 -> 316        0.16693
     311 -> 313        0.69417
     311 <- 313       -0.10955

 Excited State   3:      Singlet-A      1.9625 eV  631.76 nm  f=0.0000  <S**2>=0.000
     312 -> 313        0.70711

 Excited State   4:      Singlet-A      2.0651 eV  600.38 nm  f=0.0000  <S**2>=0.000
     311 -> 314        0.70711

 Excited State   5:      Singlet-A      2.2558 eV  549.64 nm  f=0.0516  <S**2>=0.000
     309 -> 314        0.62876
     312 -> 315        0.31561

 The electronic state is 1-A.
 Alpha  occ. eigenvalues --  -46.92659 -46.91959 -19.27182 -19.26374 -19.20572
 Alpha  occ. eigenvalues --  -19.19957 -19.19955 -19.19745 -19.19567 -19.19162
 Alpha  occ. eigenvalues --  -14.41989 -14.41987 -14.41793 -14.41595 -14.39242
 Alpha  occ. eigenvalues --  -14.39113 -14.39101 -14.38264 -10.36621 -10.36531
 Alpha  occ. eigenvalues --  -10.32730 -10.32722 -10.32683 -10.32525 -10.30090
 Alpha  occ. eigenvalues --  -10.29655 -10.29606 -10.29499 -10.29264 -10.29102
 Alpha  occ. eigenvalues --  -10.28528 -10.28520 -10.28462 -10.28128 -10.27992
 Alpha  occ. eigenvalues --  -10.27939 -10.27626 -10.27356 -10.27056 -10.26749
 Alpha  occ. eigenvalues --  -10.26701 -10.26668 -10.26604 -10.26541 -10.26324
 Alpha  occ. eigenvalues --  -10.26195 -10.26172 -10.25949 -10.25896 -10.25884
 Alpha  occ. eigenvalues --  -10.25766 -10.25683 -10.25665 -10.25646 -10.25592
 Alpha  occ. eigenvalues --  -10.25441 -10.25411 -10.25410 -10.25394 -10.25197
 Alpha  occ. eigenvalues --  -10.25101 -10.25091 -10.25058 -10.25051 -10.24986
 Alpha  occ. eigenvalues --  -10.24748 -10.24748 -10.24562 -10.24365 -10.24240
 Alpha  occ. eigenvalues --  -10.24097 -10.23864 -10.23743 -10.23606 -10.23574
 Alpha  occ. eigenvalues --  -10.23461 -10.23454 -10.23355 -10.23283 -10.23142
 Alpha  occ. eigenvalues --  -10.23054 -10.23023 -10.22961 -10.22852 -10.22679
 Alpha  occ. eigenvalues --  -10.22667  -3.14648  -3.14131  -1.87491  -1.87011
 Alpha  occ. eigenvalues --   -1.86947  -1.86870  -1.86485  -1.86381  -1.11443
 Alpha  occ. eigenvalues --   -1.10790  -1.06623  -1.05111  -1.04173  -1.03567
 Alpha  occ. eigenvalues --   -1.02345  -1.02220  -0.99787  -0.98698  -0.98613
 Alpha  occ. eigenvalues --   -0.97889  -0.97501  -0.97456  -0.96397  -0.96337
 Alpha  occ. eigenvalues --   -0.86844  -0.86650  -0.83988  -0.83587  -0.83422
 Alpha  occ. eigenvalues --   -0.83118  -0.82993  -0.82320  -0.81734  -0.81663
 Alpha  occ. eigenvalues --   -0.81273  -0.81043  -0.80850  -0.80420  -0.79070
 Alpha  occ. eigenvalues --   -0.78967  -0.78593  -0.77699  -0.77552  -0.76705
 Alpha  occ. eigenvalues --   -0.76177  -0.75900  -0.75519  -0.75503  -0.74533
 Alpha  occ. eigenvalues --   -0.74152  -0.72363  -0.72109  -0.71697  -0.71671
 Alpha  occ. eigenvalues --   -0.71494  -0.70929  -0.70589  -0.70172  -0.69458
 Alpha  occ. eigenvalues --   -0.69330  -0.67281  -0.66960  -0.66672  -0.66190
 Alpha  occ. eigenvalues --   -0.64205  -0.63671  -0.63564  -0.63048  -0.62864
 Alpha  occ. eigenvalues --   -0.62243  -0.61854  -0.61641  -0.60092  -0.60018
 Alpha  occ. eigenvalues --   -0.59834  -0.59537  -0.59496  -0.59244  -0.59171
 Alpha  occ. eigenvalues --   -0.58962  -0.57145  -0.56870  -0.54849  -0.54667
 Alpha  occ. eigenvalues --   -0.54245  -0.54019  -0.53926  -0.53520  -0.53403
 Alpha  occ. eigenvalues --   -0.53049  -0.52844  -0.52526  -0.52134  -0.51844
 Alpha  occ. eigenvalues --   -0.50958  -0.50583  -0.50577  -0.50115  -0.49598
 Alpha  occ. eigenvalues --   -0.49549  -0.49471  -0.49304  -0.49052  -0.48911
 Alpha  occ. eigenvalues --   -0.48454  -0.48145  -0.47949  -0.47775  -0.47695
 Alpha  occ. eigenvalues --   -0.47463  -0.47002  -0.46954  -0.46937  -0.46762
 Alpha  occ. eigenvalues --   -0.46499  -0.46335  -0.46269  -0.46236  -0.46126
 Alpha  occ. eigenvalues --   -0.45861  -0.45671  -0.45424  -0.45200  -0.45062
 Alpha  occ. eigenvalues --   -0.44834  -0.44555  -0.44508  -0.44372  -0.44305
 Alpha  occ. eigenvalues --   -0.43984  -0.43775  -0.43590  -0.43497  -0.43281
 Alpha  occ. eigenvalues --   -0.43223  -0.43136  -0.43085  -0.42962  -0.42779
 Alpha  occ. eigenvalues --   -0.42713  -0.42362  -0.42225  -0.42107  -0.42023
 Alpha  occ. eigenvalues --   -0.42018  -0.41682  -0.41625  -0.41360  -0.41139
 Alpha  occ. eigenvalues --   -0.41023  -0.40901  -0.40798  -0.40623  -0.40333
 Alpha  occ. eigenvalues --   -0.40333  -0.40062  -0.39965  -0.39925  -0.39586
 Alpha  occ. eigenvalues --   -0.39521  -0.39518  -0.39322  -0.39120  -0.38901
 Alpha  occ. eigenvalues --   -0.38769  -0.38407  -0.38334  -0.38272  -0.38139
 Alpha  occ. eigenvalues --   -0.38035  -0.37917  -0.37759  -0.37704  -0.37682
 Alpha  occ. eigenvalues --   -0.37672  -0.37392  -0.37180  -0.37114  -0.37084
 Alpha  occ. eigenvalues --   -0.36907  -0.36877  -0.36832  -0.36608  -0.36543
 Alpha  occ. eigenvalues --   -0.36524  -0.36448  -0.35686  -0.35549  -0.35388
 Alpha  occ. eigenvalues --   -0.35210  -0.35111  -0.34751  -0.34498  -0.34097
 Alpha  occ. eigenvalues --   -0.33405  -0.33187  -0.32879  -0.32637  -0.32543
 Alpha  occ. eigenvalues --   -0.32224  -0.32169  -0.31787  -0.31756  -0.31498
 Alpha  occ. eigenvalues --   -0.31398  -0.31082  -0.29652  -0.29436  -0.29401
 Alpha  occ. eigenvalues --   -0.29127  -0.29037  -0.28602  -0.27407  -0.26895
 Alpha  occ. eigenvalues --   -0.26355  -0.26168  -0.25967  -0.25793  -0.25674
 Alpha  occ. eigenvalues --   -0.25533  -0.25455  -0.24768  -0.21317  -0.21187
 Alpha  occ. eigenvalues --   -0.18891  -0.18682
 Alpha virt. eigenvalues --   -0.11252  -0.11084  -0.05811  -0.05266  -0.04470
 Alpha virt. eigenvalues --   -0.03732  -0.02293  -0.01697  -0.00886  -0.00536
 Alpha virt. eigenvalues --   -0.00012   0.00051   0.00543   0.00785   0.01024

 Mulliken charges:
               1
     1  Mg  12.003025
     2  C    6.019959
     3  C    5.980660
     4  C    5.996767
     5  C    6.016325
     6  N    7.001891
     7  C    5.964728
     8  C    6.011861
     9  C    5.989911
    10  C    6.034772
    11  C    5.999042
    12  C    6.002446
    13  C    6.003943
    14  H    0.991673
    15  N    6.992685
    16  C    6.035688
    17  C    6.021529
    18  C    6.016640
    19  C    6.024101
    20  C    5.999901
    21  C    6.012072
    22  O    8.030340
    23  C    5.995680
    24  N    7.003217
    25  C    6.025273
    26  C    5.991112
    27  C    6.010524
    28  C    5.967664
    29  C    5.998935
    30  C    6.002207
    31  C    6.004255
    32  N    7.002103
    33  C    5.957645
    34  C    5.973436
    35  C    5.997034
    36  C    5.969552
    37  C    6.001339
    38  C    5.982341
    39  O    7.973474
    40  C    5.998043
    41  C    5.996710
    42  O    7.995904
    43  O    7.998210
    44  C    6.001468
    45  H    1.007365
    46  H    1.006838
    47  H    0.991889
    48  H    0.998872
    49  H    1.000765
    50  H    1.013593
    51  H    1.000247
    52  H    0.998982
    53  H    0.988047
    54  H    1.005034
    55  H    0.996440
    56  H    1.003222
    57  H    1.019379
    58  H    1.014308
    59  H    1.012425
    60  H    1.008665
    61  H    1.013711
    62  H    1.007674
    63  H    1.000105
    64  H    0.997721
    65  H    0.997863
    66  H    0.996936
    67  H    1.008945
    68  H    0.990752
    69  H    1.004422
    70  H    1.005401
    71  H    0.991593
    72  H    0.993486
    73  H    0.985646
    74  H    0.982432
    75  H    0.980796
    76  H    0.992698
    77  H    0.995697
    78  H    0.998650
    79  H    0.993318
    80  Mg  12.000005
    81  C    6.000039
    82  C    6.000046
    83  C    5.999936
    84  C    5.999952
    85  N    7.000029
    86  C    5.999897
    87  C    6.000042
    88  C    5.999951
    89  C    6.000112
    90  C    5.999986
    91  C    6.000014
    92  C    6.000015
    93  H    0.999944
    94  N    7.000014
    95  C    6.000117
    96  C    6.000109
    97  C    6.000045
    98  C    6.000164
    99  C    5.999980
   100  C    6.000041
   101  O    8.000093
   102  C    6.000007
   103  N    6.999982
   104  C    6.000106
   105  C    5.999985
   106  C    6.000013
   107  C    5.999918
   108  C    6.000000
   109  C    6.000034
   110  C    6.000006
   111  N    6.999958
   112  C    5.999901
   113  C    5.999879
   114  C    5.999967
   115  C    5.999901
   116  C    6.000013
   117  C    5.999900
   118  O    7.999846
   119  C    6.000008
   120  C    5.999985
   121  O    7.999983
   122  O    7.999991
   123  C    6.000019
   124  H    1.000049
   125  H    1.000039
   126  H    0.999974
   127  H    0.999987
   128  H    1.000009
   129  H    0.999988
   130  H    1.000040
   131  H    1.000044
   132  H    0.999960
   133  H    1.000010
   134  H    1.000011
   135  H    1.000002
   136  H    1.000080
   137  H    1.000075
   138  H    1.000097
   139  H    1.000075
   140  H    1.000035
   141  H    1.000037
   142  H    1.000004
   143  H    0.999994
   144  H    1.000045
   145  H    0.999985
   146  H    0.999996
   147  H    0.999984
   148  H    0.999954
   149  H    1.000003
   150  H    1.000013
   151  H    0.999978
   152  H    0.999929
   153  H    0.999924
   154  H    0.999895
   155  H    0.999934
   156  H    0.999963
   157  H    0.999990
   158  H    0.999959
 Sum of Mulliken charges = 624.00000

 Dipole moment (field-independent basis, Debye):
    X=             -4.5077    Y=              9.2696    Z=             -0.4831  Tot=             10.3188
 Quadrupole moment (field-independent basis, Debye-Ang):
   XX=           -269.8516   YY=             11.1324   ZZ=             -2.3402
   XY=            277.5009   XZ=            -18.4114   YZ=              2.0804

 Normal termination of Gaussian 16 at Wed Oct 13 21:56:04 2021.
