 Gaussian 16, Revision A.03,
 Gaussian 16:  ES64L-G16RevA.03 25-Dec-2016

 --------------------------------------------------------
 #p PBE1PBE/Def2SVP td=(nstates=5) density=(transition=1)
 --------------------------------------------------------

 --------------------------------
 TDDFT excited states in gaussian
 --------------------------------
 Symbolic Z-matrix:
 Charge =  0 Multiplicity = 1

                         Standard orientation:
 ---------------------------------------------------------------------
 Center     Atomic      Atomic             Coordinates (Angstroms)
 Number     Number       Type             X           Y           Z
 ---------------------------------------------------------------------
      1         12           0       24.883081   -0.794610    0.297841
      2          6           0       25.001767    2.280693   -1.240350
      3          6           0       25.066333    0.854057    3.381168
      4          6           0       24.865587   -3.773675    1.885057
      5          6           0       25.085254   -2.335762   -2.718983
      6          7           0       25.287900    1.351366    0.957281
      7          6           0       25.051885    2.447182    0.117790
      8          6           0       24.855293    3.753517    0.912179
      9          6           0       25.000618    3.221761    2.385531
     10          6           0       25.079285    1.713055    2.292774
     11          6           0       26.193432    3.818793    3.121528
     12          6           0       23.543971    4.592644    0.711277
     13          6           0       23.697800    6.049985    0.011151
     14          1           0       23.194568    7.164570    0.933624
     15          7           0       25.056462   -1.388195    2.294472
     16          6           0       24.988020   -0.549046    3.418344
     17          6           0       24.797044   -1.321299    4.650469
     18          6           0       24.809620   -2.769025    4.265269
     19          6           0       24.847966   -2.724293    2.749034
     20          6           0       24.671794   -0.682672    6.016130
     21          6           0       24.745210   -3.981592    5.068155
     22          8           0       24.872219   -5.087836    4.522841
     23          6           0       24.595446   -3.967993    6.579347
     24          7           0       25.046725   -2.689135   -0.339405
     25          6           0       24.882304   -3.819838    0.481977
     26          6           0       24.768936   -5.196314   -0.289716
     27          6           0       24.881271   -4.647099   -1.804401
     28          6           0       24.994172   -3.119024   -1.602680
     29          6           0       25.904144   -6.270179    0.088916
     30          6           0       23.642649   -5.068604   -2.667543
     31          6           0       23.877708   -5.438916   -4.098479
     32          7           0       25.123917   -0.131562   -1.623281
     33          6           0       25.136376   -0.898778   -2.791680
     34          6           0       25.082134   -0.068455   -3.946078
     35          6           0       24.927387    1.241760   -3.359236
     36          6           0       25.040990    1.111684   -1.969294
     37          6           0       25.042652   -0.398115   -5.379179
     38          6           0       24.876708    2.634471   -3.677172
     39          8           0       24.803661    3.291133   -4.721710
     40          6           0       25.073853    3.376035   -2.277817
     41          6           0       26.346999    4.143078   -2.318629
     42          8           0       27.388786    3.850144   -1.879342
     43          8           0       26.132271    5.401530   -2.875790
     44          6           0       27.072466    6.422977   -2.463698
     45          1           0       25.034034    1.378536    4.338452
     46          1           0       24.790373   -4.791837    2.272372
     47          1           0       24.998471   -2.825339   -3.691177
     48          1           0       25.699627    4.411754    0.710271
     49          1           0       24.163199    3.531971    3.011128
     50          1           0       26.911576    3.024840    3.324737
     51          1           0       25.747206    4.168123    4.051847
     52          1           0       26.659103    4.683488    2.649187
     53          1           0       23.083481    4.729483    1.690026
     54          1           0       22.836308    4.071965    0.065984
     55          1           0       23.002388    5.973673   -0.824906
     56          1           0       24.733991    6.226402   -0.276580
     57          1           0       25.668479   -0.332501    6.287486
     58          1           0       24.344932   -1.449908    6.716307
     59          1           0       24.059369    0.219264    6.019678
     60          1           0       24.903148   -4.960243    6.909922
     61          1           0       23.588588   -3.724651    6.920249
     62          1           0       25.304561   -3.365719    7.146915
     63          1           0       23.760777   -5.595852   -0.184665
     64          1           0       25.724133   -5.039043   -2.374124
     65          1           0       26.204554   -6.787170   -0.822681
     66          1           0       25.597192   -7.108350    0.713312
     67          1           0       26.775603   -5.819822    0.564557
     68          1           0       22.824594   -4.348712   -2.648172
     69          1           0       23.181488   -5.989967   -2.312361
     70          1           0       23.391184   -4.647308   -4.668124
     71          1           0       23.372449   -6.299114   -4.537665
     72          1           0       24.948613   -5.456149   -4.303501
     73          1           0       24.595530   -1.386239   -5.491209
     74          1           0       26.092935   -0.449528   -5.665911
     75          1           0       24.609662    0.444694   -5.918302
     76          1           0       24.252860    4.071465   -2.105126
     77          1           0       27.968110    6.200079   -3.042558
     78          1           0       27.252081    6.243966   -1.403727
     79          1           0       26.713383    7.422458   -2.710716
     80         12           0      -25.477812   -0.563968   -0.417555
     81          6           0      -23.593497    2.443700   -0.285255
     82          6           0      -27.702599    1.019127    1.831033
     83          6           0      -27.111203   -3.376152   -0.156796
     84          6           0      -22.984988   -1.976146   -2.389400
     85          7           0      -25.628651    1.537059    0.680845
     86          6           0      -24.764933    2.579141    0.448148
     87          6           0      -25.197221    3.874407    1.114289
     88          6           0      -26.468780    3.332989    1.898030
     89          6           0      -26.649943    1.883099    1.422978
     90          6           0      -26.327306    3.568645    3.398918
     91          6           0      -25.536441    4.947263    0.056256
     92          6           0      -25.185502    6.451800    0.368878
     93          1           0      -24.972543    6.858481    1.846062
     94          7           0      -27.224912   -1.098479    0.624425
     95          6           0      -27.929236   -0.326480    1.548790
     96          6           0      -29.064310   -1.124573    2.038656
     97          6           0      -28.951965   -2.390983    1.377382
     98          6           0      -27.739668   -2.282075    0.543420
     99          6           0      -29.979786   -0.660564    3.041197
    100          6           0      -29.857299   -3.612097    1.503904
    101          8           0      -29.574480   -4.679674    0.937298
    102          6           0      -31.179866   -3.507986    2.156050
    103          7           0      -25.045482   -2.447407   -1.084697
    104          6           0      -25.938441   -3.428970   -0.932868
    105          6           0      -25.416372   -4.764886   -1.554681
    106          6           0      -24.216540   -4.256524   -2.415439
    107          6           0      -24.029487   -2.843360   -1.959713
    108          6           0      -25.087483   -5.883706   -0.501811
    109          6           0      -24.724974   -4.315028   -3.906507
    110          6           0      -25.366801   -3.050102   -4.573883
    111          7           0      -23.716683    0.079262   -1.282535
    112          6           0      -22.791733   -0.639860   -2.061019
    113          6           0      -21.639569    0.249014   -2.352210
    114          6           0      -21.907201    1.407764   -1.632703
    115          6           0      -23.143512    1.327407   -1.027498
    116          6           0      -20.437791   -0.285763   -2.968788
    117          6           0      -21.277080    2.661574   -1.226558
    118          8           0      -20.154165    3.065669   -1.506683
    119          6           0      -22.346739    3.401497   -0.293731
    120          6           0      -21.785836    3.678222    1.051089
    121          8           0      -21.903207    2.968013    2.045547
    122          8           0      -21.103398    4.909030    1.018341
    123          6           0      -20.400395    5.414633    2.175697
    124          1           0      -28.555002    1.499450    2.316774
    125          1           0      -27.620008   -4.342359   -0.129027
    126          1           0      -22.296888   -2.513832   -3.044596
    127          1           0      -24.442251    4.269459    1.794528
    128          1           0      -27.290089    3.994108    1.622845
    129          1           0      -27.143287    4.127835    3.855375
    130          1           0      -25.409398    4.058327    3.724209
    131          1           0      -26.395417    2.587588    3.870890
    132          1           0      -26.595124    4.916543   -0.201043
    133          1           0      -24.972673    4.565991   -0.795862
    134          1           0      -26.007250    7.101571    0.069692
    135          1           0      -24.418211    6.718655   -0.357847
    136          1           0      -30.978864   -0.797982    2.627095
    137          1           0      -29.667835    0.305220    3.437577
    138          1           0      -29.732789   -1.343962    3.854251
    139          1           0      -31.124321   -3.408525    3.240502
    140          1           0      -31.745327   -4.421419    1.972662
    141          1           0      -31.634872   -2.573389    1.829298
    142          1           0      -26.316197   -5.036023   -2.106908
    143          1           0      -23.348356   -4.910347   -2.328800
    144          1           0      -25.932894   -6.565073   -0.405402
    145          1           0      -24.785999   -5.372783    0.412040
    146          1           0      -24.225289   -6.419688   -0.898254
    147          1           0      -25.287647   -5.236478   -4.057616
    148          1           0      -23.796064   -4.315463   -4.477569
    149          1           0      -26.230694   -3.457096   -5.098578
    150          1           0      -24.715254   -2.579335   -5.311194
    151          1           0      -25.738926   -2.284545   -3.893901
    152          1           0      -20.156514   -1.197880   -2.444001
    153          1           0      -19.653507    0.454341   -2.806696
    154          1           0      -20.538167   -0.324511   -4.053126
    155          1           0      -22.517382    4.345225   -0.812692
    156          1           0      -19.334486    5.188180    2.167632
    157          1           0      -20.958762    5.227903    3.093133
    158          1           0      -20.577383    6.484808    2.064716
 ---------------------------------------------------------------------

 SCF Done:  E(RPBE1PBE) =  -4067.36344263     A.U. after   16 cycles

 Excitation energies and oscillator strengths:

 Excited State   1:      Singlet-A      1.7654 eV  702.30 nm  f=0.0000  <S**2>=0.000
     312 -> 313        0.70711
 This state for optimization and/or second-order correction.
 Total Energy, E(TD-HF/TD-DFT) =  -4067.29856500
 Copying the excited state density for this state as the 1-particle RhoCI density.

 Excited State   2:      Singlet-A      1.8151 eV  683.08 nm  f=0.3923  <S**2>=0.000
     309 -> 315        0.14967
     311 -> 313        0.69580
     311 <- 313       -0.11534

 Excited State   3:      Singlet-A      1.8853 eV  657.62 nm  f=0.3636  <S**2>=0.000
     310 -> 316        0.18510
     312 -> 314        0.68868
     312 <- 314       -0.10056

 Excited State   4:      Singlet-A      2.1895 eV  566.27 nm  f=0.1152  <S**2>=0.000
     309 -> 313        0.65567
     311 -> 315       -0.22780

 Excited State   5:      Singlet-A      2.2102 eV  560.96 nm  f=0.0000  <S**2>=0.000
     311 -> 314        0.70711

 The electronic state is 1-A.
 Alpha  occ. eigenvalues --  -46.91923 -46.91355 -19.24663 -19.22889 -19.20092
 Alpha  occ. eigenvalues --  -19.19799 -19.19665 -19.18882 -19.18823 -19.18443
 Alpha  occ. eigenvalues --  -14.42040 -14.41554 -14.41450 -14.40991 -14.39869
 Alpha  occ. eigenvalues --  -14.39214 -14.38727 -14.38364 -10.36465 -10.35152
 Alpha  occ. eigenvalues --  -10.32646 -10.32265 -10.32226 -10.31548 -10.29424
 Alpha  occ. eigenvalues --  -10.28835 -10.28696 -10.28632 -10.28559 -10.28541
 Alpha  occ. eigenvalues --  -10.28454 -10.28413 -10.28172 -10.28119 -10.28037
 Alpha  occ. eigenvalues --  -10.27886 -10.27873 -10.27833 -10.27782 -10.27331
 Alpha  occ. eigenvalues --  -10.27147 -10.27095 -10.27051 -10.26759 -10.26548
 Alpha  occ. eigenvalues --  -10.26363 -10.26180 -10.26157 -10.26102 -10.26055
 Alpha  occ. eigenvalues --  -10.25812 -10.25689 -10.25535 -10.25486 -10.25369
 Alpha  occ. eigenvalues --  -10.25134 -10.25127 -10.25119 -10.25074 -10.25031
 Alpha  occ. eigenvalues --  -10.25023 -10.24988 -10.24900 -10.24857 -10.24783
 Alpha  occ. eigenvalues --  -10.24674 -10.24445 -10.24403 -10.24265 -10.24193
 Alpha  occ. eigenvalues --  -10.24137 -10.23937 -10.23872 -10.23660 -10.23584
 Alpha  occ. eigenvalues --  -10.23569 -10.23349 -10.23315 -10.23263 -10.23146
 Alpha  occ. eigenvalues --  -10.22809 -10.22782 -10.22741 -10.22707 -10.22578
 Alpha  occ. eigenvalues --  -10.22520  -3.14047  -3.13689  -1.86896  -1.86500
 Alpha  occ. eigenvalues --   -1.86435  -1.86257  -1.86074  -1.85931  -1.11587
 Alpha  occ. eigenvalues --   -1.09400  -1.04517  -1.04074  -1.03779  -1.03061
 Alpha  occ. eigenvalues --   -1.02636  -1.02066  -0.99493  -0.99290  -0.98606
 Alpha  occ. eigenvalues --   -0.98074  -0.97777  -0.96612  -0.96195  -0.95093
 Alpha  occ. eigenvalues --   -0.87082  -0.86388  -0.83967  -0.83458  -0.82927
 Alpha  occ. eigenvalues --   -0.82906  -0.82747  -0.82744  -0.81762  -0.81603
 Alpha  occ. eigenvalues --   -0.81563  -0.81129  -0.80788  -0.80645  -0.78462
 Alpha  occ. eigenvalues --   -0.78346  -0.77821  -0.77628  -0.76692  -0.76659
 Alpha  occ. eigenvalues --   -0.76265  -0.75941  -0.75237  -0.75202  -0.74827
 Alpha  occ. eigenvalues --   -0.74601  -0.73099  -0.72947  -0.71742  -0.71478
 Alpha  occ. eigenvalues --   -0.71212  -0.71007  -0.70100  -0.69617  -0.69577
 Alpha  occ. eigenvalues --   -0.69143  -0.67564  -0.66643  -0.66108  -0.65774
 Alpha  occ. eigenvalues --   -0.63664  -0.63614  -0.63216  -0.63120  -0.62419
 Alpha  occ. eigenvalues --   -0.62368  -0.61937  -0.61052  -0.60118  -0.59797
 Alpha  occ. eigenvalues --   -0.59447  -0.59357  -0.59204  -0.59012  -0.58783
 Alpha  occ. eigenvalues --   -0.58507  -0.56132  -0.55479  -0.54776  -0.54621
 Alpha  occ. eigenvalues --   -0.53992  -0.53939  -0.53609  -0.53588  -0.53149
 Alpha  occ. eigenvalues --   -0.52877  -0.52589  -0.52466  -0.52221  -0.51765
 Alpha  occ. eigenvalues --   -0.51044  -0.50834  -0.50095  -0.50082  -0.49801
 Alpha  occ. eigenvalues --   -0.49781  -0.48821  -0.48516  -0.48439  -0.48307
 Alpha  occ. eigenvalues --   -0.48200  -0.47819  -0.47763  -0.47719  -0.47571
 Alpha  occ. eigenvalues --   -0.47365  -0.47312  -0.46908  -0.46798  -0.46408
 Alpha  occ. eigenvalues --   -0.46336  -0.46205  -0.46176  -0.45985  -0.45976
 Alpha  occ. eigenvalues --   -0.45824  -0.45387  -0.45341  -0.45160  -0.45150
 Alpha  occ. eigenvalues --   -0.44777  -0.44474  -0.44474  -0.44399  -0.44323
 Alpha  occ. eigenvalues --   -0.44127  -0.44095  -0.43673  -0.43474  -0.43467
 Alpha  occ. eigenvalues --   -0.43266  -0.43248  -0.43125  -0.42989  -0.42765
 Alpha  occ. eigenvalues --   -0.42697  -0.42671  -0.42240  -0.42072  -0.41926
 Alpha  occ. eigenvalues --   -0.41649  -0.41646  -0.41542  -0.41286  -0.41166
 Alpha  occ. eigenvalues --   -0.40959  -0.40918  -0.40799  -0.40761  -0.40210
 Alpha  occ. eigenvalues --   -0.40149  -0.40058  -0.39798  -0.39739  -0.39448
 Alpha  occ. eigenvalues --   -0.39409  -0.39073  -0.39050  -0.38981  -0.38816
 Alpha  occ. eigenvalues --   -0.38768  -0.38490  -0.38430  -0.38345  -0.38239
 Alpha  occ. eigenvalues --   -0.38167  -0.38148  -0.37798  -0.37763  -0.37763
 Alpha  occ. eigenvalues --   -0.37520  -0.37239  -0.36819  -0.36809  -0.36666
 Alpha  occ. eigenvalues --   -0.36569  -0.36284  -0.36063  -0.36047  -0.35923
 Alpha  occ. eigenvalues --   -0.35915  -0.35522  -0.35426  -0.35217  -0.35090
 Alpha  occ. eigenvalues --   -0.34837  -0.34823  -0.34230  -0.34005  -0.33701
 Alpha  occ. eigenvalues --   -0.33461  -0.32795  -0.32722  -0.32703  -0.32430
 Alpha  occ. eigenvalues --   -0.32157  -0.32151  -0.31718  -0.31169  -0.31049
 Alpha  occ. eigenvalues --   -0.30744  -0.29836  -0.29668  -0.29297  -0.29180
 Alpha  occ. eigenvalues --   -0.29082  -0.28701  -0.28611  -0.27092  -0.26618
 Alpha  occ. eigenvalues --   -0.26056  -0.25864  -0.25785  -0.25682  -0.25526
 Alpha  occ. eigenvalues --   -0.25250  -0.25123  -0.24809  -0.21288  -0.20782
 Alpha  occ. eigenvalues --   -0.19075  -0.18454
 Alpha virt. eigenvalues --   -0.11702  -0.10691  -0.05788  -0.05177  -0.04257
 Alpha virt. eigenvalues --   -0.03993  -0.02198  -0.02190  -0.00547   0.00245
 Alpha virt. eigenvalues --    0.00527   0.00818   0.01072   0.01207   0.01607

 Mulliken charges:
               1
     1  Mg  12.000000
     2  C    6.000000
     3  C    6.000000
     4  C    6.000000
     5  C    6.000000
     6  N    7.000000
     7  C    6.000000
     8  C    6.000000
     9  C    6.000000
    10  C    6.000000
    11  C    6.000000
    12  C    6.000000
    13  C    6.000000
    14  H    1.000000
    15  N    7.000000
    16  C    6.000000
    17  C    6.000000
    18  C    6.000000
    19  C    6.000000
    20  C    6.000000
    21  C    6.000000
    22  O    8.000000
    23  C    6.000000
    24  N    7.000000
    25  C    6.000000
    26  C    6.000000
    27  C    6.000000
    28  C    6.000000
    29  C    6.000000
    30  C    6.000000
    31  C    6.000000
    32  N    7.000000
    33  C    6.000000
    34  C    6.000000
    35  C    6.000000
    36  C    6.000000
    37  C    6.000000
    38  C    6.000000
    39  O    8.000000
    40  C    6.000000
    41  C    6.000000
    42  O    8.000000
    43  O    8.000000
    44  C    6.000000
    45  H    1.000000
    46  H    1.000000
    47  H    1.000000
    48  H    1.000000
    49  H    1.000000
    50  H    1.000000
    51  H    1.000000
    52  H    1.000000
    53  H    1.000000
    54  H    1.000000
    55  H    1.000000
    56  H    1.000000
    57  H    1.000000
    58  H    1.000000
    59  H    1.000000
    60  H    1.000000
    61  H    1.000000
    62  H    1.000000
    63  H    1.000000
    64  H    1.000000
    65  H    1.000000
    66  H    1.000000
    67  H    1.000000
    68  H    1.000000
    69  H    1.000000
    70  H    1.000000
    71  H    1.000000
    72  H    1.000000
    73  H    1.000000
    74  H    1.000000
    75  H    1.000000
    76  H    1.000000
    77  H    1.000000
    78  H    1.000000
    79  H    1.000000
    80  Mg  12.000000
    81  C    6.000000
    82  C    6.000000
    83  C    6.000000
    84  C    6.000000
    85  N    7.000000
    86  C    6.000000
    87  C    6.000000
    88  C    6.000000
    89  C    6.000000
    90  C    6.000000
    91  C    6.000000
    92  C    6.000000
    93  H    1.000000
    94  N    7.000000
    95  C    6.000000
    96  C    6.000000
    97  C    6.000000
    98  C    6.000000
    99  C    6.000000
   100  C    6.000000
   101  O    8.000000
   102  C    6.000000
   103  N    7.000000
   104  C    6.000000
   105  C    6.000000
   106  C    6.000000
   107  C    6.000000
   108  C    6.000000
   109  C    6.000000
   110  C    6.000000
   111  N    7.000000
   112  C    6.000000
   113  C    6.000000
   114  C    6.000000
   115  C    6.000000
   116  C    6.000000
   117  C    6.000000
   118  O    8.000000
   119  C    6.000000
   120  C    6.000000
   121  O    8.000000
   122  O    8.000000
   123  C    6.000000
   124  H    1.000000
   125  H    1.000000
   126  H    1.000000
   127  H    1.000000
   128  H    1.000000
   129  H    1.000000
   130  H    1.000000
   131  H    1.000000
   132  H    1.000000
   133  H    1.000000
   134  H    1.000000
   135  H    1.000000
   136  H    1.000000
   137  H    1.000000
   138  H    1.000000
   139  H    1.000000
   140  H    1.000000
   141  H    1.000000
   142  H    1.000000
   143  H    1.000000
   144  H    1.000000
   145  H    1.000000
   146  H    1.000000
   147  H    1.000000
   148  H    1.000000
   149  H    1.000000
   150  H    1.000000
   151  H    1.000000
   152  H    1.000000
   153  H    1.000000
   154  H    1.000000
   155  H    1.000000
   156  H    1.000000
   157  H    1.000000
   158  H    1.000000
 Sum of Mulliken charges = 624.00000

 Dipole moment (field-independent basis, Debye):
    X=             -0.0000    Y=              0.0000    Z=             -0.0000  Tot=              0.0000
 Quadrupole moment (field-independent basis, Debye-Ang):
   XX=              0.0000   YY=             -0.0000   ZZ=             -0.0000
   XY=              0.0000   XZ=             -0.0000   YZ=              0.0000

 Normal termination of Gaussian 16 at Fri Oct 15 13:05:55 2021.
