 Gaussian 16, Revision A.03,
 Gaussian 16:  ES64L-G16RevA.03 25-Dec-2016

 --------------------------------------------------------
 #p PBE1PBE/Def2SVP td=(nstates=5) density=(transition=1)
 --------------------------------------------------------

 --------------------------------
 TDDFT excited states in gaussian
 --------------------------------
 Symbolic Z-matrix:
 Charge =  0 Multiplicity = 1

                         Standard orientation:
 ---------------------------------------------------------------------
 Center     Atomic      Atomic             Coordinates (Angstroms)
 Number     Number       Type             X           Y           Z
 ---------------------------------------------------------------------
      1         12           0       16.755610   -0.579127    0.068129
      2          6           0       15.571404    2.545650   -1.255492
      3          6           0       18.414648    1.350569    2.536884
      4          6           0       18.126886   -3.483853    1.438705
      5          6           0       15.480578   -2.257524   -2.523701
      6          7           0       17.105643    1.789925    0.422336
      7          6           0       16.426366    2.792889   -0.174281
      8          6           0       16.886167    4.175000    0.414392
      9          6           0       17.949038    3.697069    1.467261
     10          6           0       17.778712    2.163321    1.559702
     11          6           0       19.404098    4.147517    1.092476
     12          6           0       15.746638    4.975433    1.044510
     13          6           0       15.709016    6.433950    0.725267
     14          1           0       14.533786    7.274315    1.245382
     15          7           0       17.886262   -1.051101    1.823980
     16          6           0       18.463929   -0.112693    2.672701
     17          6           0       19.146959   -0.826120    3.733588
     18          6           0       19.007148   -2.187591    3.520940
     19          6           0       18.375597   -2.301854    2.163193
     20          6           0       19.993720   -0.179486    4.791874
     21          6           0       19.555357   -3.431666    4.332824
     22          8           0       19.395520   -4.601870    4.085464
     23          6           0       20.224918   -3.185315    5.667457
     24          7           0       16.944991   -2.514209   -0.497257
     25          6           0       17.521644   -3.567353    0.163612
     26          6           0       17.563208   -4.848388   -0.701878
     27          6           0       16.510124   -4.526511   -1.845897
     28          6           0       16.270991   -2.990905   -1.582486
     29          6           0       19.001971   -5.207188   -1.193592
     30          6           0       15.197001   -5.363633   -1.771308
     31          6           0       14.289310   -5.066528   -0.579824
     32          7           0       15.775774   -0.057587   -1.564310
     33          6           0       15.215376   -0.884254   -2.577656
     34          6           0       14.522237   -0.073691   -3.576539
     35          6           0       14.597061    1.235075   -3.066998
     36          6           0       15.340828    1.214126   -1.857495
     37          6           0       13.856041   -0.569979   -4.774828
     38          6           0       14.185430    2.600316   -3.377443
     39          8           0       13.488764    3.012052   -4.289919
     40          6           0       14.878120    3.544611   -2.254482
     41          6           0       13.640899    4.292698   -1.752145
     42          8           0       12.708867    3.861166   -1.049848
     43          8           0       13.658010    5.519788   -2.242812
     44          6           0       12.705111    6.559304   -1.677735
     45          1           0       18.859028    1.949766    3.333963
     46          1           0       18.519153   -4.441864    1.788773
     47          1           0       15.027849   -2.876344   -3.300849
     48          1           0       17.224844    4.735256   -0.456459
     49          1           0       17.722754    4.071603    2.466471
     50          1           0       19.939003    4.716109    1.853184
     51          1           0       19.488050    4.602409    0.105317
     52          1           0       20.146760    3.353357    1.012672
     53          1           0       16.106301    5.073698    2.068913
     54          1           0       14.786680    4.459269    1.007441
     55          1           0       15.824112    6.769010   -0.306826
     56          1           0       16.588097    6.817639    1.243168
     57          1           0       19.888688    0.905036    4.776996
     58          1           0       21.060544   -0.400462    4.732044
     59          1           0       19.738461   -0.434415    5.820574
     60          1           0       19.563802   -2.690407    6.378774
     61          1           0       21.094995   -2.601498    5.366915
     62          1           0       20.606854   -4.169941    5.937219
     63          1           0       17.308089   -5.641167    0.002224
     64          1           0       16.889786   -4.423142   -2.862637
     65          1           0       19.391889   -6.112082   -0.727584
     66          1           0       19.766298   -4.431646   -1.158790
     67          1           0       18.821246   -5.362202   -2.257423
     68          1           0       15.457541   -6.398267   -1.994799
     69          1           0       14.593824   -5.094513   -2.638235
     70          1           0       14.690855   -4.381183    0.165724
     71          1           0       14.141613   -6.024624   -0.082109
     72          1           0       13.363537   -4.539991   -0.808912
     73          1           0       13.401071    0.197666   -5.401112
     74          1           0       13.094746   -1.258326   -4.408012
     75          1           0       14.587761   -1.149109   -5.339902
     76          1           0       15.500390    4.323622   -2.694925
     77          1           0       13.109128    7.524638   -1.983492
     78          1           0       12.696880    6.579590   -0.588377
     79          1           0       11.669334    6.413132   -1.986366
     80         12           0      -16.091338   -0.798968    0.102224
     81          6           0      -18.134152    1.939362    1.021142
     82          6           0      -13.576240    1.426222   -0.694321
     83          6           0      -14.265036   -3.412593   -1.044602
     84          6           0      -18.746994   -3.001850    0.722072
     85          7           0      -16.015273    1.413764    0.095543
     86          6           0      -16.869737    2.324440    0.712472
     87          6           0      -16.263787    3.787323    0.697901
     88          6           0      -14.951331    3.579372   -0.103802
     89          6           0      -14.834635    2.052478   -0.309669
     90          6           0      -14.790146    4.338619   -1.473728
     91          6           0      -16.170836    4.532363    2.092167
     92          6           0      -16.934891    5.818718    2.180905
     93          1           0      -16.260322    6.969631    3.027573
     94          7           0      -14.231940   -0.913059   -0.733609
     95          6           0      -13.297873    0.083826   -0.929782
     96          6           0      -12.110147   -0.481621   -1.550487
     97          6           0      -12.257585   -1.892288   -1.673276
     98          6           0      -13.635762   -2.147941   -1.113829
     99          6           0      -10.828860    0.321371   -1.852443
    100          6           0      -11.279571   -2.941981   -2.191091
    101          8           0      -11.493018   -4.136582   -2.163810
    102          6           0       -9.825536   -2.616782   -2.727759
    103          7           0      -16.502501   -2.920842   -0.217352
    104          6           0      -15.594473   -3.763869   -0.691350
    105          6           0      -16.131190   -5.238691   -0.745635
    106          6           0      -17.513325   -5.124121    0.011204
    107          6           0      -17.606895   -3.582473    0.220612
    108          6           0      -16.141058   -5.802699   -2.195893
    109          6           0      -17.549590   -5.971464    1.267638
    110          6           0      -18.867026   -6.715044    1.480188
    111          7           0      -18.107381   -0.664850    0.609078
    112          6           0      -19.041224   -1.633861    0.922303
    113          6           0      -20.268466   -0.961780    1.220117
    114          6           0      -19.983431    0.422478    1.321654
    115          6           0      -18.625741    0.587048    0.929266
    116          6           0      -21.576564   -1.609016    1.475746
    117          6           0      -20.534436    1.731939    1.712040
    118          8           0      -21.667602    2.108233    1.997057
    119          6           0      -19.212951    2.810744    1.540238
    120          6           0      -19.564816    3.862597    0.638190
    121          8           0      -19.174633    3.949547   -0.505910
    122          8           0      -20.297230    4.834237    1.281974
    123          6           0      -20.733863    5.920419    0.369691
    124          1           0      -12.713799    2.079951   -0.841520
    125          1           0      -13.741516   -4.282513   -1.445326
    126          1           0      -19.489033   -3.763215    0.973981
    127          1           0      -16.888699    4.324511   -0.014739
    128          1           0      -14.086829    3.874473    0.490960
    129          1           0      -13.756373    4.682807   -1.517569
    130          1           0      -15.500844    5.164418   -1.495291
    131          1           0      -14.976636    3.722911   -2.353852
    132          1           0      -15.106762    4.674810    2.281239
    133          1           0      -16.603761    3.861440    2.834347
    134          1           0      -17.906154    5.637700    2.643194
    135          1           0      -17.065078    6.106996    1.138192
    136          1           0      -10.079031   -0.080823   -1.172121
    137          1           0      -10.969237    1.350013   -1.519494
    138          1           0      -10.443939    0.238898   -2.869634
    139          1           0       -9.288173   -2.089212   -1.938977
    140          1           0       -9.829147   -2.209964   -3.739422
    141          1           0       -9.409931   -3.590451   -2.985527
    142          1           0      -15.539136   -5.938523   -0.156223
    143          1           0      -18.274367   -5.397798   -0.719827
    144          1           0      -17.129225   -6.218705   -2.394324
    145          1           0      -15.335350   -6.511021   -2.390457
    146          1           0      -15.975821   -4.992110   -2.903748
    147          1           0      -17.332131   -5.389424    2.162606
    148          1           0      -16.756991   -6.719009    1.326598
    149          1           0      -19.632978   -6.376753    0.782275
    150          1           0      -19.196962   -6.465499    2.489029
    151          1           0      -18.738382   -7.797514    1.487912
    152          1           0      -21.618622   -2.696433    1.414424
    153          1           0      -22.313493   -1.028799    0.919112
    154          1           0      -21.674160   -1.527963    2.558603
    155          1           0      -18.969968    3.230138    2.516958
    156          1           0      -21.352076    5.507322   -0.427650
    157          1           0      -19.822835    6.420493    0.041078
    158          1           0      -21.365878    6.659112    0.861087
 ---------------------------------------------------------------------

 SCF Done:  E(RPBE1PBE) =  -4067.36055242     A.U. after   16 cycles

 Excitation energies and oscillator strengths:

 Excited State   1:      Singlet-A      1.8202 eV  681.15 nm  f=0.3624  <S**2>=0.000
     309 -> 315       -0.17689
     312 -> 313        0.69219
     312 <- 313       -0.10907
 This state for optimization and/or second-order correction.
 Total Energy, E(TD-HF/TD-DFT) =  -4067.29366014
 Copying the excited state density for this state as the 1-particle RhoCI density.

 Excited State   2:      Singlet-A      1.8746 eV  661.39 nm  f=0.3586  <S**2>=0.000
     310 -> 316        0.17483
     311 -> 314        0.69042

 Excited State   3:      Singlet-A      1.9641 eV  631.24 nm  f=0.0000  <S**2>=0.000
     312 -> 314        0.70710

 Excited State   4:      Singlet-A      1.9742 eV  628.03 nm  f=0.0000  <S**2>=0.000
     311 -> 313        0.70710

 Excited State   5:      Singlet-A      2.2320 eV  555.49 nm  f=0.0883  <S**2>=0.000
     309 -> 313        0.63917
     312 -> 315        0.29193

 The electronic state is 1-A.
 Alpha  occ. eigenvalues --  -46.91750 -46.91628 -19.25623 -19.24986 -19.19946
 Alpha  occ. eigenvalues --  -19.19716 -19.19688 -19.19669 -19.19479 -19.18317
 Alpha  occ. eigenvalues --  -14.41999 -14.41770 -14.41203 -14.41150 -14.39846
 Alpha  occ. eigenvalues --  -14.39768 -14.39453 -14.38626 -10.35558 -10.35307
 Alpha  occ. eigenvalues --  -10.33429 -10.33205 -10.32719 -10.32647 -10.29922
 Alpha  occ. eigenvalues --  -10.29474 -10.29284 -10.29271 -10.29125 -10.29022
 Alpha  occ. eigenvalues --  -10.28857 -10.28718 -10.28679 -10.28502 -10.28325
 Alpha  occ. eigenvalues --  -10.28290 -10.28156 -10.27871 -10.27811 -10.27715
 Alpha  occ. eigenvalues --  -10.27329 -10.26751 -10.26708 -10.26706 -10.26592
 Alpha  occ. eigenvalues --  -10.26450 -10.26336 -10.26275 -10.26255 -10.26236
 Alpha  occ. eigenvalues --  -10.26168 -10.26121 -10.26025 -10.25985 -10.25881
 Alpha  occ. eigenvalues --  -10.25701 -10.25645 -10.25430 -10.25343 -10.25309
 Alpha  occ. eigenvalues --  -10.25251 -10.25208 -10.25088 -10.25052 -10.25038
 Alpha  occ. eigenvalues --  -10.24956 -10.24527 -10.24354 -10.24300 -10.24250
 Alpha  occ. eigenvalues --  -10.24072 -10.23992 -10.23729 -10.23706 -10.23697
 Alpha  occ. eigenvalues --  -10.23644 -10.23604 -10.23597 -10.23509 -10.23252
 Alpha  occ. eigenvalues --  -10.23197 -10.23071 -10.22994 -10.22872 -10.22858
 Alpha  occ. eigenvalues --  -10.22764  -3.14017  -3.13737  -1.86843  -1.86586
 Alpha  occ. eigenvalues --   -1.86408  -1.86246  -1.86104  -1.85968  -1.10781
 Alpha  occ. eigenvalues --   -1.10637  -1.06178  -1.05899  -1.04864  -1.04308
 Alpha  occ. eigenvalues --   -1.02276  -1.00145  -0.98668  -0.98422  -0.97775
 Alpha  occ. eigenvalues --   -0.96968  -0.96899  -0.96606  -0.96413  -0.95613
 Alpha  occ. eigenvalues --   -0.86341  -0.85253  -0.83522  -0.83419  -0.83055
 Alpha  occ. eigenvalues --   -0.82632  -0.82322  -0.82177  -0.81745  -0.81272
 Alpha  occ. eigenvalues --   -0.81220  -0.81151  -0.80791  -0.80222  -0.78578
 Alpha  occ. eigenvalues --   -0.78425  -0.77952  -0.77896  -0.76763  -0.76673
 Alpha  occ. eigenvalues --   -0.75689  -0.75369  -0.75310  -0.74974  -0.74533
 Alpha  occ. eigenvalues --   -0.74125  -0.72458  -0.72446  -0.71647  -0.71284
 Alpha  occ. eigenvalues --   -0.71273  -0.70771  -0.70312  -0.70071  -0.69516
 Alpha  occ. eigenvalues --   -0.69047  -0.67091  -0.66766  -0.66120  -0.65710
 Alpha  occ. eigenvalues --   -0.64443  -0.63293  -0.63217  -0.63199  -0.62002
 Alpha  occ. eigenvalues --   -0.61953  -0.61492  -0.60690  -0.60025  -0.59924
 Alpha  occ. eigenvalues --   -0.59656  -0.59312  -0.59173  -0.59020  -0.58932
 Alpha  occ. eigenvalues --   -0.58687  -0.56439  -0.55763  -0.54373  -0.54145
 Alpha  occ. eigenvalues --   -0.53958  -0.53773  -0.53518  -0.53267  -0.52579
 Alpha  occ. eigenvalues --   -0.52425  -0.52368  -0.52000  -0.51755  -0.50684
 Alpha  occ. eigenvalues --   -0.50461  -0.50311  -0.50247  -0.50034  -0.49669
 Alpha  occ. eigenvalues --   -0.49343  -0.49188  -0.48845  -0.48544  -0.48279
 Alpha  occ. eigenvalues --   -0.47844  -0.47771  -0.47708  -0.47605  -0.47568
 Alpha  occ. eigenvalues --   -0.47298  -0.47180  -0.47123  -0.46996  -0.46740
 Alpha  occ. eigenvalues --   -0.46674  -0.46266  -0.46238  -0.46021  -0.45611
 Alpha  occ. eigenvalues --   -0.45610  -0.45499  -0.45335  -0.45178  -0.44827
 Alpha  occ. eigenvalues --   -0.44751  -0.44421  -0.44240  -0.44216  -0.44075
 Alpha  occ. eigenvalues --   -0.43948  -0.43914  -0.43880  -0.43599  -0.43258
 Alpha  occ. eigenvalues --   -0.43222  -0.43109  -0.42877  -0.42778  -0.42701
 Alpha  occ. eigenvalues --   -0.42647  -0.42361  -0.42276  -0.42188  -0.41906
 Alpha  occ. eigenvalues --   -0.41536  -0.41428  -0.41386  -0.41130  -0.41100
 Alpha  occ. eigenvalues --   -0.40954  -0.40873  -0.40810  -0.40604  -0.40334
 Alpha  occ. eigenvalues --   -0.40251  -0.39942  -0.39910  -0.39738  -0.39634
 Alpha  occ. eigenvalues --   -0.39345  -0.39259  -0.39151  -0.39037  -0.38863
 Alpha  occ. eigenvalues --   -0.38855  -0.38650  -0.38454  -0.38432  -0.38285
 Alpha  occ. eigenvalues --   -0.38144  -0.37975  -0.37911  -0.37911  -0.37808
 Alpha  occ. eigenvalues --   -0.37500  -0.37357  -0.37260  -0.37172  -0.37007
 Alpha  occ. eigenvalues --   -0.36872  -0.36766  -0.36299  -0.36271  -0.36048
 Alpha  occ. eigenvalues --   -0.35772  -0.35402  -0.35302  -0.35178  -0.35164
 Alpha  occ. eigenvalues --   -0.34881  -0.34580  -0.34572  -0.34327  -0.34063
 Alpha  occ. eigenvalues --   -0.33612  -0.33601  -0.33095  -0.32610  -0.32569
 Alpha  occ. eigenvalues --   -0.32211  -0.31900  -0.31761  -0.31215  -0.31120
 Alpha  occ. eigenvalues --   -0.30962  -0.30704  -0.29278  -0.29148  -0.28946
 Alpha  occ. eigenvalues --   -0.28710  -0.28677  -0.27673  -0.27096  -0.26956
 Alpha  occ. eigenvalues --   -0.26158  -0.26118  -0.25884  -0.25880  -0.25719
 Alpha  occ. eigenvalues --   -0.25559  -0.25550  -0.24639  -0.21080  -0.20901
 Alpha  occ. eigenvalues --   -0.18844  -0.18676
 Alpha virt. eigenvalues --   -0.11196  -0.11049  -0.05535  -0.05290  -0.04088
 Alpha virt. eigenvalues --   -0.03633  -0.02315  -0.02095   0.00156   0.00263
 Alpha virt. eigenvalues --    0.00561   0.00822   0.01157   0.01317   0.01511

 Mulliken charges:
               1
     1  Mg  11.999791
     2  C    6.016777
     3  C    5.985494
     4  C    5.979154
     5  C    6.000790
     6  N    7.009056
     7  C    5.974071
     8  C    6.004611
     9  C    5.994290
    10  C    6.029836
    11  C    5.998081
    12  C    6.005033
    13  C    6.001617
    14  H    0.999857
    15  N    6.995549
    16  C    6.041556
    17  C    6.015621
    18  C    6.016856
    19  C    6.034098
    20  C    5.994711
    21  C    6.012487
    22  O    8.025434
    23  C    5.996892
    24  N    6.988749
    25  C    6.037190
    26  C    5.993794
    27  C    6.003914
    28  C    5.968941
    29  C    5.995534
    30  C    6.004889
    31  C    6.005502
    32  N    7.002138
    33  C    5.967543
    34  C    5.971454
    35  C    5.997593
    36  C    5.970412
    37  C    6.000492
    38  C    5.984289
    39  O    7.973227
    40  C    5.998009
    41  C    5.996666
    42  O    7.994638
    43  O    7.999933
    44  C    6.001880
    45  H    1.010043
    46  H    1.006253
    47  H    0.988293
    48  H    1.003605
    49  H    0.998699
    50  H    1.002536
    51  H    1.011710
    52  H    0.997672
    53  H    0.991462
    54  H    1.003497
    55  H    1.003255
    56  H    0.994750
    57  H    1.016027
    58  H    1.018542
    59  H    1.017352
    60  H    1.007247
    61  H    1.004737
    62  H    1.013100
    63  H    0.997251
    64  H    1.002153
    65  H    0.999459
    66  H    0.998463
    67  H    1.012158
    68  H    0.990488
    69  H    1.003930
    70  H    0.989736
    71  H    0.992168
    72  H    1.003798
    73  H    0.986521
    74  H    0.982978
    75  H    0.982996
    76  H    0.991569
    77  H    0.995691
    78  H    0.994945
    79  H    0.998474
    80  Mg  11.999861
    81  C    6.000322
    82  C    5.999870
    83  C    5.999743
    84  C    6.000157
    85  N    7.000256
    86  C    5.999447
    87  C    6.000221
    88  C    5.999809
    89  C    6.000647
    90  C    5.999880
    91  C    6.000047
    92  C    6.000066
    93  H    0.999818
    94  N    6.999823
    95  C    6.000698
    96  C    6.000418
    97  C    6.000430
    98  C    6.000570
    99  C    5.999985
   100  C    6.000176
   101  O    8.000547
   102  C    5.999962
   103  N    6.999944
   104  C    6.000553
   105  C    5.999828
   106  C    6.000203
   107  C    5.999431
   108  C    5.999955
   109  C    6.000129
   110  C    6.000029
   111  N    7.000052
   112  C    5.999233
   113  C    5.999375
   114  C    5.999995
   115  C    5.999336
   116  C    6.000040
   117  C    5.999567
   118  O    7.999373
   119  C    5.999807
   120  C    5.999987
   121  O    7.999796
   122  O    7.999968
   123  C    6.000056
   124  H    1.000343
   125  H    1.000126
   126  H    0.999709
   127  H    0.999921
   128  H    1.000066
   129  H    1.000112
   130  H    1.000278
   131  H    1.000056
   132  H    0.999847
   133  H    1.000051
   134  H    1.000051
   135  H    0.999984
   136  H    1.000444
   137  H    1.000370
   138  H    1.000545
   139  H    1.000206
   140  H    1.000341
   141  H    1.000383
   142  H    0.999989
   143  H    0.999931
   144  H    1.000146
   145  H    0.999995
   146  H    0.999986
   147  H    0.999954
   148  H    0.999761
   149  H    1.000053
   150  H    0.999965
   151  H    0.999835
   152  H    0.999552
   153  H    0.999595
   154  H    0.999486
   155  H    0.999796
   156  H    0.999959
   157  H    0.999896
   158  H    0.999849
 Sum of Mulliken charges = 624.00000

 Dipole moment (field-independent basis, Debye):
    X=              6.0274    Y=             -1.9306    Z=              8.0585  Tot=             10.2467
 Quadrupole moment (field-independent basis, Debye-Ang):
   XX=            186.8372   YY=             -0.1576   ZZ=              3.0669
   XY=            -34.2972   XZ=            139.8519   YZ=             -5.4373

 Normal termination of Gaussian 16 at Thu Oct 14 17:03:53 2021.
