 Gaussian 16, Revision A.03,
 Gaussian 16:  ES64L-G16RevA.03 25-Dec-2016

 --------------------------------------------------------
 #p PBE1PBE/Def2SVP td=(nstates=5) density=(transition=1)
 --------------------------------------------------------

 --------------------------------
 TDDFT excited states in gaussian
 --------------------------------
 Symbolic Z-matrix:
 Charge =  0 Multiplicity = 1

                         Standard orientation:
 ---------------------------------------------------------------------
 Center     Atomic      Atomic             Coordinates (Angstroms)
 Number     Number       Type             X           Y           Z
 ---------------------------------------------------------------------
      1         12           0      -17.179771   -0.778681    0.256704
      2          6           0      -16.989016    2.534202   -0.974132
      3          6           0      -16.135765    0.375965    3.251050
      4          6           0      -17.242596   -3.880834    1.301217
      5          6           0      -17.541460   -1.847400   -3.148420
      6          7           0      -16.508493    1.246899    1.063121
      7          6           0      -16.779896    2.441822    0.417929
      8          6           0      -16.635326    3.523335    1.433429
      9          6           0      -15.837255    2.885774    2.571154
     10          6           0      -16.173845    1.391846    2.336660
     11          6           0      -14.294290    3.141986    2.388622
     12          6           0      -18.004495    4.205972    1.973771
     13          6           0      -18.094762    5.750621    2.168113
     14          1           0      -16.941131    6.424992    2.965495
     15          7           0      -16.721166   -1.613230    2.070612
     16          6           0      -16.340895   -0.975879    3.138439
     17          6           0      -16.095822   -1.964273    4.203008
     18          6           0      -16.614170   -3.214152    3.747087
     19          6           0      -16.865979   -2.953874    2.301232
     20          6           0      -15.444226   -1.744713    5.616734
     21          6           0      -16.857991   -4.538563    4.469825
     22          8           0      -17.210560   -5.591316    3.904525
     23          6           0      -16.463763   -4.645987    5.866071
     24          7           0      -17.201822   -2.648339   -0.865582
     25          6           0      -17.338227   -3.828249   -0.138956
     26          6           0      -17.715470   -4.996619   -1.129333
     27          6           0      -17.929701   -4.264540   -2.477569
     28          6           0      -17.576467   -2.811503   -2.152284
     29          6           0      -16.708741   -6.147093   -1.107434
     30          6           0      -19.300444   -4.485106   -3.165490
     31          6           0      -19.317591   -4.641662   -4.703980
     32          7           0      -17.240345    0.099798   -1.683125
     33          6           0      -17.337789   -0.445461   -2.959406
     34          6           0      -17.491511    0.629568   -3.906318
     35          6           0      -17.303334    1.806172   -3.179586
     36          6           0      -17.162625    1.462317   -1.806783
     37          6           0      -17.789706    0.517611   -5.273365
     38          6           0      -17.285947    3.275006   -3.244565
     39          8           0      -17.450636    4.066658   -4.159194
     40          6           0      -17.102839    3.803292   -1.784166
     41          6           0      -15.871075    4.690955   -1.776852
     42          8           0      -14.685526    4.468453   -1.679027
     43          8           0      -16.426939    5.937323   -1.804115
     44          6           0      -15.556341    7.088411   -1.465678
     45          1           0      -15.884199    0.745901    4.247585
     46          1           0      -17.453585   -4.862411    1.730537
     47          1           0      -17.872638   -2.134214   -4.148216
     48          1           0      -16.081967    4.407239    1.115263
     49          1           0      -16.246629    3.117741    3.554063
     50          1           0      -13.747547    3.232583    3.326613
     51          1           0      -14.069839    4.100404    1.919837
     52          1           0      -13.924688    2.258527    1.869173
     53          1           0      -18.337066    3.683435    2.870079
     54          1           0      -18.823639    3.963183    1.295879
     55          1           0      -18.977026    5.848978    2.801639
     56          1           0      -18.188754    6.094912    1.138167
     57          1           0      -16.122065   -1.845210    6.464096
     58          1           0      -15.018559   -0.740873    5.615447
     59          1           0      -14.693924   -2.482140    5.902073
     60          1           0      -16.924267   -3.858160    6.462780
     61          1           0      -15.379671   -4.593980    5.967570
     62          1           0      -16.933567   -5.548299    6.256277
     63          1           0      -18.712539   -5.325316   -0.835840
     64          1           0      -17.122958   -4.497777   -3.172185
     65          1           0      -15.927628   -5.950498   -1.842552
     66          1           0      -17.114461   -7.110653   -1.414074
     67          1           0      -16.141108   -6.102818   -0.178539
     68          1           0      -20.060345   -3.755713   -2.885492
     69          1           0      -19.789981   -5.380099   -2.779163
     70          1           0      -19.578620   -3.647750   -5.067735
     71          1           0      -20.159086   -5.305709   -4.904130
     72          1           0      -18.344256   -4.979528   -5.058683
     73          1           0      -17.530231    1.326087   -5.956469
     74          1           0      -18.851247    0.277801   -5.342027
     75          1           0      -17.198044   -0.326086   -5.626783
     76          1           0      -17.989511    4.355512   -1.473314
     77          1           0      -16.166808    7.709678   -0.810976
     78          1           0      -15.235684    7.711897   -2.299885
     79          1           0      -14.685827    6.744837   -0.907489
     80         12           0       17.398835   -0.552336   -0.152393
     81          6           0       14.967871    1.911003    0.410758
     82          6           0       19.799042    1.905381    0.077471
     83          6           0       19.665880   -2.883778   -0.715040
     84          6           0       14.803405   -2.892719   -0.511619
     85          7           0       17.327661    1.617442    0.288543
     86          6           0       16.233200    2.462748    0.471924
     87          6           0       16.628645    3.881487    1.041541
     88          6           0       18.117934    3.836782    0.759181
     89          6           0       18.463817    2.345633    0.349808
     90          6           0       18.484348    4.761201   -0.490798
     91          6           0       16.349556    3.760530    2.605350
     92          6           0       15.675461    5.012918    3.320345
     93          1           0       16.137571    6.285145    2.657051
     94          7           0       19.377999   -0.460288   -0.435913
     95          6           0       20.183965    0.591150   -0.317577
     96          6           0       21.569054    0.252170   -0.510708
     97          6           0       21.595496   -1.155533   -0.564131
     98          6           0       20.145079   -1.574799   -0.633825
     99          6           0       22.707230    1.205083   -0.545581
    100          6           0       22.759371   -2.121070   -0.475806
    101          8           0       22.612855   -3.333263   -0.282097
    102          6           0       24.184177   -1.625081   -0.737561
    103          7           0       17.224419   -2.617081   -0.609073
    104          6           0       18.387984   -3.341164   -0.719862
    105          6           0       18.027919   -4.822880   -0.804978
    106          6           0       16.433304   -4.860573   -0.617654
    107          6           0       16.101908   -3.395237   -0.511316
    108          6           0       18.623240   -5.440878   -2.119245
    109          6           0       15.893658   -5.712668    0.520381
    110          6           0       14.793263   -6.727615    0.078582
    111          7           0       15.319450   -0.502788   -0.092573
    112          6           0       14.369849   -1.555563   -0.281137
    113          6           0       13.046924   -1.049853   -0.188336
    114          6           0       13.255664    0.312144    0.086660
    115          6           0       14.640699    0.577969    0.079054
    116          6           0       11.726912   -1.744047   -0.288832
    117          6           0       12.609971    1.555931    0.360591
    118          8           0       11.447816    1.882598    0.419148
    119          6           0       13.714567    2.600712    0.686278
    120          6           0       13.444432    3.842636   -0.082884
    121          8           0       13.557886    4.014552   -1.293258
    122          8           0       13.100987    4.780202    0.805603
    123          6           0       12.868508    6.114697    0.294294
    124          1           0       20.661400    2.549720    0.260118
    125          1           0       20.464208   -3.605037   -0.907088
    126          1           0       13.968676   -3.595586   -0.553955
    127          1           0       15.931217    4.574930    0.572630
    128          1           0       18.678841    4.106335    1.653444
    129          1           0       17.605706    5.233451   -0.930638
    130          1           0       18.968318    4.140233   -1.244390
    131          1           0       19.185889    5.488843   -0.082632
    132          1           0       17.250303    3.578816    3.190892
    133          1           0       15.734901    2.869151    2.733524
    134          1           0       16.083237    5.146985    4.322334
    135          1           0       14.616931    4.840101    3.516350
    136          1           0       23.296540    1.016001    0.352705
    137          1           0       22.363717    2.237778   -0.504330
    138          1           0       23.343627    1.087257   -1.422127
    139          1           0       24.668093   -2.576052   -0.959041
    140          1           0       24.629176   -1.091147    0.102907
    141          1           0       24.351281   -1.037562   -1.640134
    142          1           0       18.449763   -5.456808   -0.025106
    143          1           0       15.989445   -5.225125   -1.544131
    144          1           0       19.081603   -6.382981   -1.818292
    145          1           0       19.320123   -4.785165   -2.641349
    146          1           0       17.835922   -5.838448   -2.760776
    147          1           0       15.502208   -5.141385    1.361521
    148          1           0       16.730095   -6.363990    0.777780
    149          1           0       14.684085   -6.730061   -1.006057
    150          1           0       13.799363   -6.402516    0.385441
    151          1           0       15.027982   -7.737939    0.414259
    152          1           0       11.686508   -2.259626    0.671070
    153          1           0       11.768497   -2.360458   -1.186566
    154          1           0       10.889734   -1.047816   -0.311617
    155          1           0       13.515311    2.851924    1.728905
    156          1           0       12.133001    6.082171   -0.509979
    157          1           0       13.716582    6.616892   -0.172407
    158          1           0       12.481641    6.695170    1.132035
 ---------------------------------------------------------------------

 SCF Done:  E(RPBE1PBE) =  -4067.39682628     A.U. after   16 cycles

 Excitation energies and oscillator strengths:

 Excited State   1:      Singlet-A      1.8614 eV  666.07 nm  f=0.3672  <S**2>=0.000
     309 -> 316       -0.15509
     311 -> 313        0.69388
     311 <- 313       -0.10802
 This state for optimization and/or second-order correction.
 Total Energy, E(TD-HF/TD-DFT) =  -4067.32841974
 Copying the excited state density for this state as the 1-particle RhoCI density.

 Excited State   2:      Singlet-A      1.8848 eV  657.80 nm  f=0.3762  <S**2>=0.000
     310 -> 315       -0.17647
     312 -> 314        0.68854

 Excited State   3:      Singlet-A      1.9474 eV  636.67 nm  f=0.0000  <S**2>=0.000
     312 -> 313        0.70710

 Excited State   4:      Singlet-A      2.0413 eV  607.37 nm  f=0.0000  <S**2>=0.000
     311 -> 314        0.70711

 Excited State   5:      Singlet-A      2.2641 eV  547.62 nm  f=0.0682  <S**2>=0.000
     310 -> 314        0.63665
     312 -> 315        0.28672

 The electronic state is 1-A.
 Alpha  occ. eigenvalues --  -46.92696 -46.91139 -19.25946 -19.25007 -19.20201
 Alpha  occ. eigenvalues --  -19.19882 -19.19369 -19.19100 -19.18875 -19.17865
 Alpha  occ. eigenvalues --  -14.41749 -14.41259 -14.41109 -14.40875 -14.39680
 Alpha  occ. eigenvalues --  -14.39383 -14.38619 -14.38233 -10.36193 -10.35386
 Alpha  occ. eigenvalues --  -10.33114 -10.32519 -10.31946 -10.30489 -10.29413
 Alpha  occ. eigenvalues --  -10.29402 -10.28637 -10.28610 -10.28523 -10.28414
 Alpha  occ. eigenvalues --  -10.28367 -10.28345 -10.28194 -10.28065 -10.28058
 Alpha  occ. eigenvalues --  -10.27921 -10.27657 -10.27507 -10.27329 -10.27300
 Alpha  occ. eigenvalues --  -10.27027 -10.26997 -10.26536 -10.26335 -10.26265
 Alpha  occ. eigenvalues --  -10.26057 -10.25889 -10.25654 -10.25505 -10.25375
 Alpha  occ. eigenvalues --  -10.25365 -10.25341 -10.25327 -10.25311 -10.25292
 Alpha  occ. eigenvalues --  -10.25208 -10.25122 -10.25105 -10.25035 -10.25004
 Alpha  occ. eigenvalues --  -10.25003 -10.24961 -10.24949 -10.24826 -10.24805
 Alpha  occ. eigenvalues --  -10.24402 -10.24385 -10.24325 -10.24169 -10.23988
 Alpha  occ. eigenvalues --  -10.23913 -10.23886 -10.23730 -10.23705 -10.23437
 Alpha  occ. eigenvalues --  -10.23391 -10.23386 -10.23227 -10.23224 -10.23160
 Alpha  occ. eigenvalues --  -10.23132 -10.23043 -10.22916 -10.22654 -10.22531
 Alpha  occ. eigenvalues --  -10.21610  -3.14668  -3.13425  -1.87505  -1.87043
 Alpha  occ. eigenvalues --   -1.86882  -1.86278  -1.85780  -1.85680  -1.11949
 Alpha  occ. eigenvalues --   -1.10839  -1.04822  -1.04326  -1.04305  -1.03957
 Alpha  occ. eigenvalues --   -1.02551  -1.01956  -0.99739  -0.99427  -0.98721
 Alpha  occ. eigenvalues --   -0.98510  -0.97644  -0.97492  -0.96984  -0.96705
 Alpha  occ. eigenvalues --   -0.87141  -0.87103  -0.83814  -0.83136  -0.82729
 Alpha  occ. eigenvalues --   -0.82669  -0.82658  -0.82252  -0.82212  -0.81855
 Alpha  occ. eigenvalues --   -0.81520  -0.81289  -0.81123  -0.80919  -0.78465
 Alpha  occ. eigenvalues --   -0.78260  -0.77843  -0.77823  -0.76926  -0.76536
 Alpha  occ. eigenvalues --   -0.76533  -0.75960  -0.75796  -0.75522  -0.74929
 Alpha  occ. eigenvalues --   -0.74656  -0.73017  -0.72608  -0.71801  -0.71705
 Alpha  occ. eigenvalues --   -0.71298  -0.71099  -0.70120  -0.69920  -0.69419
 Alpha  occ. eigenvalues --   -0.69287  -0.67582  -0.66942  -0.66223  -0.65795
 Alpha  occ. eigenvalues --   -0.63450  -0.63224  -0.63178  -0.63071  -0.62145
 Alpha  occ. eigenvalues --   -0.62042  -0.61768  -0.61676  -0.59926  -0.59795
 Alpha  occ. eigenvalues --   -0.59785  -0.59697  -0.59540  -0.59389  -0.59071
 Alpha  occ. eigenvalues --   -0.58853  -0.57078  -0.56484  -0.55185  -0.54942
 Alpha  occ. eigenvalues --   -0.54168  -0.54086  -0.53780  -0.53689  -0.53199
 Alpha  occ. eigenvalues --   -0.52901  -0.52344  -0.52332  -0.52030  -0.51869
 Alpha  occ. eigenvalues --   -0.51149  -0.50703  -0.50392  -0.50192  -0.49845
 Alpha  occ. eigenvalues --   -0.49684  -0.49008  -0.48967  -0.48428  -0.48229
 Alpha  occ. eigenvalues --   -0.48081  -0.48020  -0.47762  -0.47582  -0.47422
 Alpha  occ. eigenvalues --   -0.47350  -0.47191  -0.47062  -0.46949  -0.46716
 Alpha  occ. eigenvalues --   -0.46626  -0.46388  -0.46213  -0.46087  -0.45944
 Alpha  occ. eigenvalues --   -0.45835  -0.45492  -0.45348  -0.45245  -0.45100
 Alpha  occ. eigenvalues --   -0.44914  -0.44861  -0.44562  -0.44544  -0.44226
 Alpha  occ. eigenvalues --   -0.44101  -0.43893  -0.43803  -0.43513  -0.43381
 Alpha  occ. eigenvalues --   -0.43276  -0.43034  -0.42844  -0.42817  -0.42562
 Alpha  occ. eigenvalues --   -0.42331  -0.42306  -0.42169  -0.42039  -0.41871
 Alpha  occ. eigenvalues --   -0.41754  -0.41508  -0.41412  -0.41316  -0.41315
 Alpha  occ. eigenvalues --   -0.41033  -0.40956  -0.40778  -0.40591  -0.40271
 Alpha  occ. eigenvalues --   -0.40038  -0.39875  -0.39718  -0.39598  -0.39504
 Alpha  occ. eigenvalues --   -0.39439  -0.39279  -0.39269  -0.39138  -0.39046
 Alpha  occ. eigenvalues --   -0.38753  -0.38596  -0.38529  -0.38331  -0.38179
 Alpha  occ. eigenvalues --   -0.37878  -0.37781  -0.37738  -0.37536  -0.37494
 Alpha  occ. eigenvalues --   -0.37414  -0.37236  -0.37129  -0.36963  -0.36764
 Alpha  occ. eigenvalues --   -0.36634  -0.36473  -0.36331  -0.36118  -0.35970
 Alpha  occ. eigenvalues --   -0.35712  -0.35639  -0.35374  -0.35355  -0.35051
 Alpha  occ. eigenvalues --   -0.34986  -0.34681  -0.34639  -0.34560  -0.33697
 Alpha  occ. eigenvalues --   -0.33658  -0.33270  -0.32631  -0.32624  -0.32393
 Alpha  occ. eigenvalues --   -0.32348  -0.31931  -0.31577  -0.31474  -0.31338
 Alpha  occ. eigenvalues --   -0.31318  -0.30907  -0.29539  -0.29452  -0.29081
 Alpha  occ. eigenvalues --   -0.29001  -0.28553  -0.28142  -0.27179  -0.26847
 Alpha  occ. eigenvalues --   -0.26445  -0.26439  -0.26366  -0.25870  -0.25308
 Alpha  occ. eigenvalues --   -0.25279  -0.24903  -0.24591  -0.20994  -0.20864
 Alpha  occ. eigenvalues --   -0.18660  -0.18580
 Alpha virt. eigenvalues --   -0.11042  -0.10768  -0.05515  -0.05301  -0.04215
 Alpha virt. eigenvalues --   -0.03517  -0.02104  -0.01598  -0.00843   0.00566
 Alpha virt. eigenvalues --    0.01168   0.01318   0.01464   0.01603   0.01778

 Mulliken charges:
               1
     1  Mg  11.999973
     2  C    6.000205
     3  C    5.999838
     4  C    5.999803
     5  C    6.000170
     6  N    6.999997
     7  C    5.999669
     8  C    6.000132
     9  C    5.999935
    10  C    6.000307
    11  C    5.999994
    12  C    6.000059
    13  C    5.999988
    14  H    0.999993
    15  N    6.999961
    16  C    6.000331
    17  C    6.000298
    18  C    6.000073
    19  C    6.000351
    20  C    5.999923
    21  C    6.000144
    22  O    8.000193
    23  C    5.999967
    24  N    7.000077
    25  C    6.000383
    26  C    5.999914
    27  C    6.000054
    28  C    5.999719
    29  C    5.999938
    30  C    6.000082
    31  C    6.000021
    32  N    7.000020
    33  C    5.999707
    34  C    5.999719
    35  C    5.999986
    36  C    5.999713
    37  C    6.000078
    38  C    5.999816
    39  O    7.999666
    40  C    5.999987
    41  C    5.999994
    42  O    8.000059
    43  O    7.999942
    44  C    6.000017
    45  H    1.000071
    46  H    1.000042
    47  H    0.999884
    48  H    0.999997
    49  H    0.999921
    50  H    1.000075
    51  H    1.000150
    52  H    1.000110
    53  H    0.999821
    54  H    0.999956
    55  H    0.999869
    56  H    1.000033
    57  H    1.000118
    58  H    1.000249
    59  H    1.000277
    60  H    0.999994
    61  H    1.000184
    62  H    1.000055
    63  H    0.999926
    64  H    1.000071
    65  H    1.000182
    66  H    0.999992
    67  H    1.000008
    68  H    0.999929
    69  H    0.999833
    70  H    1.000037
    71  H    0.999863
    72  H    1.000032
    73  H    0.999840
    74  H    0.999681
    75  H    0.999884
    76  H    0.999831
    77  H    0.999867
    78  H    0.999963
    79  H    1.000057
    80  Mg  11.996954
    81  C    6.025525
    82  C    6.003299
    83  C    5.975044
    84  C    5.997651
    85  N    7.017993
    86  C    5.967104
    87  C    6.003583
    88  C    5.997350
    89  C    6.020320
    90  C    5.996576
    91  C    6.000631
    92  C    6.003129
    93  H    0.994036
    94  N    6.993227
    95  C    6.029615
    96  C    6.024579
    97  C    6.010066
    98  C    6.038135
    99  C    5.995743
   100  C    6.012546
   101  O    8.028940
   102  C    5.993902
   103  N    6.992701
   104  C    6.031056
   105  C    5.989324
   106  C    6.011741
   107  C    5.972315
   108  C    5.996630
   109  C    6.006943
   110  C    6.000295
   111  N    6.999418
   112  C    5.966274
   113  C    5.976327
   114  C    5.996631
   115  C    5.970340
   116  C    5.997727
   117  C    5.982443
   118  O    7.969269
   119  C    5.995545
   120  C    5.996830
   121  O    7.994643
   122  O    7.998928
   123  C    6.001782
   124  H    1.012444
   125  H    1.002106
   126  H    0.986158
   127  H    1.003672
   128  H    1.002320
   129  H    1.013751
   130  H    0.995555
   131  H    1.003506
   132  H    0.989484
   133  H    1.006872
   134  H    0.996832
   135  H    1.004270
   136  H    1.018237
   137  H    1.015413
   138  H    1.017752
   139  H    1.012995
   140  H    1.008242
   141  H    1.007728
   142  H    1.000754
   143  H    0.996867
   144  H    1.001875
   145  H    0.993446
   146  H    1.008689
   147  H    1.000497
   148  H    0.987821
   149  H    0.997931
   150  H    1.003179
   151  H    0.993922
   152  H    0.985102
   153  H    0.986222
   154  H    0.988103
   155  H    0.995716
   156  H    0.999369
   157  H    0.993426
   158  H    0.996631
 Sum of Mulliken charges = 624.00000

 Dipole moment (field-independent basis, Debye):
    X=             10.1681    Y=              0.6631    Z=             -0.4501  Tot=             10.1997
 Quadrupole moment (field-independent basis, Debye-Ang):
   XX=            352.8553   YY=             -3.7365   ZZ=             -0.0263
   XY=              9.4337   XZ=            -13.6432   YZ=             -0.4389

 Normal termination of Gaussian 16 at Thu Oct 14 19:10:50 2021.
