 Gaussian 16, Revision A.03,
 Gaussian 16:  ES64L-G16RevA.03 25-Dec-2016

 --------------------------------------------------------
 #p PBE1PBE/Def2SVP td=(nstates=5) density=(transition=1)
 --------------------------------------------------------

 --------------------------------
 TDDFT excited states in gaussian
 --------------------------------
 Symbolic Z-matrix:
 Charge =  0 Multiplicity = 1

                         Standard orientation:
 ---------------------------------------------------------------------
 Center     Atomic      Atomic             Coordinates (Angstroms)
 Number     Number       Type             X           Y           Z
 ---------------------------------------------------------------------
      1         12           0       21.060162   -0.649566    0.382359
      2          6           0       19.976006    1.829793   -1.705539
      3          6           0       22.203928    1.585454    2.572973
      4          6           0       22.220407   -3.150672    2.120416
      5          6           0       20.349917   -2.903340   -2.285713
      6          7           0       21.245918    1.512597    0.357484
      7          6           0       20.495085    2.285832   -0.466151
      8          6           0       20.324878    3.679574    0.073466
      9          6           0       21.302061    3.637948    1.316113
     10          6           0       21.689008    2.177077    1.395528
     11          6           0       22.493509    4.622195    1.234432
     12          6           0       18.760513    4.108883    0.366460
     13          6           0       18.267938    5.475040   -0.134770
     14          1           0       19.349647    6.578819   -0.354938
     15          7           0       21.879578   -0.771555    2.115799
     16          6           0       22.309849    0.232870    2.923077
     17          6           0       23.024054   -0.237005    4.085126
     18          6           0       22.858096   -1.588967    4.070963
     19          6           0       22.406339   -1.887830    2.676533
     20          6           0       23.735446    0.804144    4.929817
     21          6           0       23.262667   -2.623720    5.139714
     22          8           0       23.128911   -3.818404    5.011027
     23          6           0       23.883069   -2.020387    6.365140
     24          7           0       21.398685   -2.716444   -0.136181
     25          6           0       21.784325   -3.534784    0.859392
     26          6           0       21.737784   -4.999332    0.412534
     27          6           0       20.844281   -4.943857   -0.872902
     28          6           0       20.875226   -3.427003   -1.151192
     29          6           0       23.110894   -5.764289    0.186392
     30          6           0       19.350722   -5.416304   -0.707978
     31          6           0       18.395464   -4.777213    0.265309
     32          7           0       20.239222   -0.660580   -1.581622
     33          6           0       20.086158   -1.612975   -2.594371
     34          6           0       19.514736   -1.021731   -3.811040
     35          6           0       19.443931    0.344886   -3.501876
     36          6           0       19.892717    0.469713   -2.149393
     37          6           0       19.055328   -1.721309   -5.064459
     38          6           0       19.107031    1.608469   -3.976312
     39          8           0       18.714055    2.016559   -5.058038
     40          6           0       19.206597    2.587811   -2.778175
     41          6           0       19.943475    3.732190   -3.361698
     42          8           0       21.163651    3.784396   -3.533950
     43          8           0       19.085689    4.698900   -3.800311
     44          6           0       19.587294    5.767348   -4.670323
     45          1           0       22.388055    2.332062    3.348588
     46          1           0       22.536178   -4.040971    2.666889
     47          1           0       20.144169   -3.708011   -2.995737
     48          1           0       20.768568    4.410195   -0.602958
     49          1           0       20.727335    3.833053    2.221239
     50          1           0       23.392800    4.065424    0.971312
     51          1           0       22.642666    5.065495    2.218994
     52          1           0       22.241274    5.349317    0.462476
     53          1           0       18.664170    4.069930    1.451564
     54          1           0       18.077004    3.399767   -0.099450
     55          1           0       17.621006    5.937887    0.609976
     56          1           0       17.639087    5.339914   -1.014681
     57          1           0       24.514903    1.365549    4.414437
     58          1           0       24.387954    0.500172    5.748094
     59          1           0       22.887697    1.381907    5.298126
     60          1           0       23.216982   -1.281201    6.809521
     61          1           0       24.839039   -1.667981    5.978355
     62          1           0       24.070330   -2.658504    7.228022
     63          1           0       21.261957   -5.473906    1.271451
     64          1           0       21.376197   -5.434526   -1.688318
     65          1           0       23.940250   -5.093087    0.408156
     66          1           0       23.256140   -5.992554   -0.868829
     67          1           0       23.238510   -6.704735    0.724630
     68          1           0       19.522139   -6.465411   -0.465603
     69          1           0       18.796992   -5.364445   -1.644876
     70          1           0       18.940764   -4.088338    0.911767
     71          1           0       17.952798   -5.530683    0.916616
     72          1           0       17.608027   -4.157162   -0.162688
     73          1           0       19.726017   -1.550506   -5.905375
     74          1           0       18.048880   -1.391303   -5.322425
     75          1           0       19.149323   -2.775514   -4.802648
     76          1           0       18.225980    2.830111   -2.368151
     77          1           0       18.802269    6.189134   -5.299075
     78          1           0       20.499638    5.476729   -5.188910
     79          1           0       19.984700    6.612177   -4.108096
     80         12           0      -21.345076   -0.557181   -0.265293
     81          6           0      -19.094961    2.071705    0.374169
     82          6           0      -23.877659    1.497246    0.941334
     83          6           0      -23.369005   -3.171134   -0.579193
     84          6           0      -18.551121   -2.780377   -0.641722
     85          7           0      -21.465984    1.504508    0.573553
     86          6           0      -20.409097    2.424813    0.612312
     87          6           0      -20.975237    3.827214    0.736956
     88          6           0      -22.448404    3.627614    1.193736
     89          6           0      -22.614603    2.110430    0.878504
     90          6           0      -22.790417    4.074809    2.649683
     91          6           0      -20.812417    4.715100   -0.545207
     92          6           0      -20.652155    6.270370   -0.244915
     93          1           0      -20.727337    6.728195    1.214109
     94          7           0      -23.302369   -0.750225   -0.001580
     95          6           0      -24.191435    0.221307    0.424844
     96          6           0      -25.540605   -0.262007    0.362604
     97          6           0      -25.423002   -1.653660    0.047864
     98          6           0      -24.015547   -1.884449   -0.224568
     99          6           0      -26.783479    0.589864    0.763580
    100          6           0      -26.493492   -2.693930   -0.009047
    101          8           0      -26.219095   -3.910022   -0.146174
    102          6           0      -28.032435   -2.530979    0.163112
    103          7           0      -21.025361   -2.720235   -0.296798
    104          6           0      -22.039282   -3.572542   -0.538508
    105          6           0      -21.492879   -4.958010   -0.965810
    106          6           0      -19.963722   -4.851039   -0.966469
    107          6           0      -19.833000   -3.295862   -0.651133
    108          6           0      -22.118333   -6.071196   -0.181856
    109          6           0      -19.227789   -5.285728   -2.252076
    110          6           0      -19.623982   -4.514042   -3.534930
    111          7           0      -19.214925   -0.462698   -0.106996
    112          6           0      -18.276310   -1.379668   -0.438583
    113          6           0      -16.998845   -0.670588   -0.493264
    114          6           0      -17.220944    0.706626   -0.212368
    115          6           0      -18.605794    0.787954    0.072210
    116          6           0      -15.664329   -1.272266   -0.925641
    117          6           0      -16.609471    1.989875   -0.075221
    118          8           0      -15.482075    2.424905   -0.294527
    119          6           0      -17.860982    2.979296    0.400380
    120          6           0      -17.474989    3.688251    1.684916
    121          8           0      -17.542964    3.173306    2.783743
    122          8           0      -17.143841    5.001478    1.439468
    123          6           0      -16.389874    5.739788    2.447429
    124          1           0      -24.604189    2.264685    1.215699
    125          1           0      -24.092608   -3.967922   -0.761992
    126          1           0      -17.762772   -3.490321   -0.899301
    127          1           0      -20.439418    4.363069    1.520312
    128          1           0      -23.072921    4.193133    0.502768
    129          1           0      -23.204197    3.163799    3.080752
    130          1           0      -23.601199    4.804314    2.647649
    131          1           0      -21.996820    4.429156    3.307473
    132          1           0      -21.702859    4.676398   -1.171908
    133          1           0      -19.980373    4.327522   -1.131669
    134          1           0      -21.512458    6.774694   -0.685232
    135          1           0      -19.709963    6.588960   -0.690204
    136          1           0      -27.478881   -0.070126    1.283601
    137          1           0      -27.313495    0.990074   -0.100062
    138          1           0      -26.683722    1.483806    1.379040
    139          1           0      -28.423144   -1.800097   -0.545450
    140          1           0      -28.314065   -2.281580    1.186104
    141          1           0      -28.618395   -3.358205   -0.235694
    142          1           0      -21.927996   -5.149504   -1.945839
    143          1           0      -19.654471   -5.324267   -0.033858
    144          1           0      -22.893051   -6.598124   -0.739179
    145          1           0      -22.501665   -5.689009    0.764373
    146          1           0      -21.414245   -6.835692    0.148521
    147          1           0      -19.537363   -6.323909   -2.373989
    148          1           0      -18.148818   -5.238578   -2.101811
    149          1           0      -18.701737   -4.049992   -3.883949
    150          1           0      -20.367759   -3.774270   -3.238768
    151          1           0      -20.127216   -5.121258   -4.287516
    152          1           0      -15.104345   -0.615619   -1.590867
    153          1           0      -15.807644   -2.158498   -1.543161
    154          1           0      -15.125696   -1.578372   -0.028408
    155          1           0      -17.914395    3.734628   -0.384077
    156          1           0      -16.798156    5.446382    3.414906
    157          1           0      -16.468412    6.824570    2.374615
    158          1           0      -15.345513    5.477837    2.277565
 ---------------------------------------------------------------------

 SCF Done:  E(RPBE1PBE) =  -4067.37593177     A.U. after   16 cycles

 Excitation energies and oscillator strengths:

 Excited State   1:      Singlet-A      1.7153 eV  722.83 nm  f=0.0000  <S**2>=0.000
     312 -> 313        0.70711
 This state for optimization and/or second-order correction.
 Total Energy, E(TD-HF/TD-DFT) =  -4067.31289743
 Copying the excited state density for this state as the 1-particle RhoCI density.

 Excited State   2:      Singlet-A      1.8182 eV  681.90 nm  f=0.3871  <S**2>=0.000
     309 -> 316       -0.16257
     311 -> 313        0.69667
     311 <- 313       -0.11885

 Excited State   3:      Singlet-A      1.8950 eV  654.28 nm  f=0.3619  <S**2>=0.000
     310 -> 315        0.18691
     312 -> 314        0.68805

 Excited State   4:      Singlet-A      2.1901 eV  566.11 nm  f=0.1398  <S**2>=0.000
     309 -> 313        0.66499
     311 -> 316        0.22019

 Excited State   5:      Singlet-A      2.2472 eV  551.72 nm  f=0.0000  <S**2>=0.000
     311 -> 314        0.70711

 The electronic state is 1-A.
 Alpha  occ. eigenvalues --  -46.92326 -46.91336 -19.24925 -19.24592 -19.19905
 Alpha  occ. eigenvalues --  -19.19688 -19.19462 -19.18618 -19.18526 -19.18067
 Alpha  occ. eigenvalues --  -14.41930 -14.41152 -14.41082 -14.40541 -14.39886
 Alpha  occ. eigenvalues --  -14.39513 -14.39138 -14.38467 -10.36114 -10.35297
 Alpha  occ. eigenvalues --  -10.32876 -10.32814 -10.32553 -10.30801 -10.29094
 Alpha  occ. eigenvalues --  -10.28635 -10.28627 -10.28540 -10.28390 -10.28292
 Alpha  occ. eigenvalues --  -10.28268 -10.28223 -10.28054 -10.28014 -10.27902
 Alpha  occ. eigenvalues --  -10.27806 -10.27732 -10.27493 -10.26980 -10.26929
 Alpha  occ. eigenvalues --  -10.26906 -10.26809 -10.26705 -10.26516 -10.26269
 Alpha  occ. eigenvalues --  -10.25935 -10.25917 -10.25914 -10.25899 -10.25882
 Alpha  occ. eigenvalues --  -10.25714 -10.25672 -10.25565 -10.25465 -10.25393
 Alpha  occ. eigenvalues --  -10.25387 -10.25343 -10.25336 -10.25253 -10.25213
 Alpha  occ. eigenvalues --  -10.25130 -10.25106 -10.25103 -10.25011 -10.24988
 Alpha  occ. eigenvalues --  -10.24964 -10.24692 -10.24413 -10.24407 -10.24059
 Alpha  occ. eigenvalues --  -10.23951 -10.23861 -10.23683 -10.23632 -10.23512
 Alpha  occ. eigenvalues --  -10.23498 -10.23458 -10.23443 -10.23158 -10.23152
 Alpha  occ. eigenvalues --  -10.23110 -10.23073 -10.22705 -10.22623 -10.22385
 Alpha  occ. eigenvalues --  -10.21995  -3.14475  -3.13763  -1.87285  -1.86849
 Alpha  occ. eigenvalues --   -1.86712  -1.86570  -1.86153  -1.86020  -1.10215
 Alpha  occ. eigenvalues --   -1.09636  -1.06055  -1.04278  -1.03894  -1.03040
 Alpha  occ. eigenvalues --   -1.02279  -1.00759  -1.00118  -0.99253  -0.98889
 Alpha  occ. eigenvalues --   -0.98817  -0.98067  -0.97888  -0.97760  -0.96883
 Alpha  occ. eigenvalues --   -0.86796  -0.86592  -0.83770  -0.83524  -0.82789
 Alpha  occ. eigenvalues --   -0.82670  -0.82412  -0.82251  -0.82224  -0.81795
 Alpha  occ. eigenvalues --   -0.81726  -0.81001  -0.80993  -0.79735  -0.78612
 Alpha  occ. eigenvalues --   -0.78063  -0.77874  -0.77670  -0.76850  -0.76698
 Alpha  occ. eigenvalues --   -0.76458  -0.75380  -0.75342  -0.74977  -0.74804
 Alpha  occ. eigenvalues --   -0.74131  -0.73190  -0.72866  -0.71833  -0.71295
 Alpha  occ. eigenvalues --   -0.71288  -0.71062  -0.70155  -0.70008  -0.69524
 Alpha  occ. eigenvalues --   -0.69343  -0.67131  -0.67037  -0.66093  -0.65507
 Alpha  occ. eigenvalues --   -0.64256  -0.63975  -0.63544  -0.63411  -0.62849
 Alpha  occ. eigenvalues --   -0.62610  -0.61915  -0.61639  -0.59814  -0.59765
 Alpha  occ. eigenvalues --   -0.59456  -0.59302  -0.59233  -0.58752  -0.58619
 Alpha  occ. eigenvalues --   -0.58317  -0.56332  -0.56245  -0.55522  -0.55409
 Alpha  occ. eigenvalues --   -0.54067  -0.53898  -0.53789  -0.53382  -0.52751
 Alpha  occ. eigenvalues --   -0.52555  -0.52356  -0.52105  -0.52039  -0.51463
 Alpha  occ. eigenvalues --   -0.50818  -0.50492  -0.50294  -0.49850  -0.49607
 Alpha  occ. eigenvalues --   -0.49371  -0.49333  -0.49154  -0.48707  -0.48493
 Alpha  occ. eigenvalues --   -0.48194  -0.48015  -0.47794  -0.47706  -0.47312
 Alpha  occ. eigenvalues --   -0.47283  -0.47155  -0.47019  -0.46865  -0.46810
 Alpha  occ. eigenvalues --   -0.46704  -0.46509  -0.46129  -0.45915  -0.45805
 Alpha  occ. eigenvalues --   -0.45655  -0.45333  -0.45223  -0.44959  -0.44823
 Alpha  occ. eigenvalues --   -0.44470  -0.44148  -0.43981  -0.43909  -0.43875
 Alpha  occ. eigenvalues --   -0.43851  -0.43716  -0.43709  -0.43440  -0.43389
 Alpha  occ. eigenvalues --   -0.43212  -0.43132  -0.42834  -0.42703  -0.42641
 Alpha  occ. eigenvalues --   -0.42478  -0.42369  -0.42339  -0.42091  -0.41833
 Alpha  occ. eigenvalues --   -0.41472  -0.41416  -0.41324  -0.41222  -0.41077
 Alpha  occ. eigenvalues --   -0.40966  -0.40591  -0.40504  -0.40232  -0.40182
 Alpha  occ. eigenvalues --   -0.40028  -0.39968  -0.39647  -0.39439  -0.39283
 Alpha  occ. eigenvalues --   -0.39255  -0.38995  -0.38865  -0.38855  -0.38807
 Alpha  occ. eigenvalues --   -0.38693  -0.38597  -0.38215  -0.38092  -0.37991
 Alpha  occ. eigenvalues --   -0.37915  -0.37728  -0.37676  -0.37663  -0.37465
 Alpha  occ. eigenvalues --   -0.37288  -0.37191  -0.37041  -0.36803  -0.36752
 Alpha  occ. eigenvalues --   -0.36741  -0.36503  -0.36401  -0.36299  -0.36068
 Alpha  occ. eigenvalues --   -0.35900  -0.35615  -0.35577  -0.35436  -0.35394
 Alpha  occ. eigenvalues --   -0.35014  -0.34600  -0.34465  -0.34133  -0.34130
 Alpha  occ. eigenvalues --   -0.33660  -0.33446  -0.33164  -0.32815  -0.32637
 Alpha  occ. eigenvalues --   -0.32048  -0.31918  -0.31483  -0.31372  -0.31357
 Alpha  occ. eigenvalues --   -0.30881  -0.30095  -0.29558  -0.29209  -0.28914
 Alpha  occ. eigenvalues --   -0.28708  -0.28429  -0.27846  -0.27660  -0.27076
 Alpha  occ. eigenvalues --   -0.26333  -0.26295  -0.26114  -0.25820  -0.25504
 Alpha  occ. eigenvalues --   -0.25268  -0.25099  -0.24964  -0.21067  -0.20651
 Alpha  occ. eigenvalues --   -0.18994  -0.18253
 Alpha virt. eigenvalues --   -0.11638  -0.10422  -0.05204  -0.05029  -0.04282
 Alpha virt. eigenvalues --   -0.03908  -0.02323  -0.01845  -0.01277  -0.00034
 Alpha virt. eigenvalues --    0.00588   0.00968   0.01063   0.01685   0.01826

 Mulliken charges:
               1
     1  Mg  12.000000
     2  C    6.000000
     3  C    6.000000
     4  C    6.000000
     5  C    6.000000
     6  N    7.000000
     7  C    6.000000
     8  C    6.000000
     9  C    6.000000
    10  C    6.000000
    11  C    6.000000
    12  C    6.000000
    13  C    6.000000
    14  H    1.000000
    15  N    7.000000
    16  C    6.000000
    17  C    6.000000
    18  C    6.000000
    19  C    6.000000
    20  C    6.000000
    21  C    6.000000
    22  O    8.000000
    23  C    6.000000
    24  N    7.000000
    25  C    6.000000
    26  C    6.000000
    27  C    6.000000
    28  C    6.000000
    29  C    6.000000
    30  C    6.000000
    31  C    6.000000
    32  N    7.000000
    33  C    6.000000
    34  C    6.000000
    35  C    6.000000
    36  C    6.000000
    37  C    6.000000
    38  C    6.000000
    39  O    8.000000
    40  C    6.000000
    41  C    6.000000
    42  O    8.000000
    43  O    8.000000
    44  C    6.000000
    45  H    1.000000
    46  H    1.000000
    47  H    1.000000
    48  H    1.000000
    49  H    1.000000
    50  H    1.000000
    51  H    1.000000
    52  H    1.000000
    53  H    1.000000
    54  H    1.000000
    55  H    1.000000
    56  H    1.000000
    57  H    1.000000
    58  H    1.000000
    59  H    1.000000
    60  H    1.000000
    61  H    1.000000
    62  H    1.000000
    63  H    1.000000
    64  H    1.000000
    65  H    1.000000
    66  H    1.000000
    67  H    1.000000
    68  H    1.000000
    69  H    1.000000
    70  H    1.000000
    71  H    1.000000
    72  H    1.000000
    73  H    1.000000
    74  H    1.000000
    75  H    1.000000
    76  H    1.000000
    77  H    1.000000
    78  H    1.000000
    79  H    1.000000
    80  Mg  12.000000
    81  C    6.000000
    82  C    6.000000
    83  C    6.000000
    84  C    6.000000
    85  N    7.000000
    86  C    6.000000
    87  C    6.000000
    88  C    6.000000
    89  C    6.000000
    90  C    6.000000
    91  C    6.000000
    92  C    6.000000
    93  H    1.000000
    94  N    7.000000
    95  C    6.000000
    96  C    6.000000
    97  C    6.000000
    98  C    6.000000
    99  C    6.000000
   100  C    6.000000
   101  O    8.000000
   102  C    6.000000
   103  N    7.000000
   104  C    6.000000
   105  C    6.000000
   106  C    6.000000
   107  C    6.000000
   108  C    6.000000
   109  C    6.000000
   110  C    6.000000
   111  N    7.000000
   112  C    6.000000
   113  C    6.000000
   114  C    6.000000
   115  C    6.000000
   116  C    6.000000
   117  C    6.000000
   118  O    8.000000
   119  C    6.000000
   120  C    6.000000
   121  O    8.000000
   122  O    8.000000
   123  C    6.000000
   124  H    1.000000
   125  H    1.000000
   126  H    1.000000
   127  H    1.000000
   128  H    1.000000
   129  H    1.000000
   130  H    1.000000
   131  H    1.000000
   132  H    1.000000
   133  H    1.000000
   134  H    1.000000
   135  H    1.000000
   136  H    1.000000
   137  H    1.000000
   138  H    1.000000
   139  H    1.000000
   140  H    1.000000
   141  H    1.000000
   142  H    1.000000
   143  H    1.000000
   144  H    1.000000
   145  H    1.000000
   146  H    1.000000
   147  H    1.000000
   148  H    1.000000
   149  H    1.000000
   150  H    1.000000
   151  H    1.000000
   152  H    1.000000
   153  H    1.000000
   154  H    1.000000
   155  H    1.000000
   156  H    1.000000
   157  H    1.000000
   158  H    1.000000
 Sum of Mulliken charges = 624.00000

 Dipole moment (field-independent basis, Debye):
    X=              0.0000    Y=             -0.0000    Z=             -0.0000  Tot=              0.0000
 Quadrupole moment (field-independent basis, Debye-Ang):
   XX=             -0.0000   YY=              0.0000   ZZ=             -0.0000
   XY=              0.0000   XZ=              0.0000   YZ=             -0.0000

 Normal termination of Gaussian 16 at Wed Oct 13 21:17:16 2021.
