 Gaussian 16, Revision A.03,
 Gaussian 16:  ES64L-G16RevA.03 25-Dec-2016

 --------------------------------------------------------
 #p PBE1PBE/Def2SVP td=(nstates=5) density=(transition=1)
 --------------------------------------------------------

 --------------------------------
 TDDFT excited states in gaussian
 --------------------------------
 Symbolic Z-matrix:
 Charge =  0 Multiplicity = 1

                         Standard orientation:
 ---------------------------------------------------------------------
 Center     Atomic      Atomic             Coordinates (Angstroms)
 Number     Number       Type             X           Y           Z
 ---------------------------------------------------------------------
      1         12           0       27.249122   -0.624688    0.287935
      2          6           0       25.848412    2.564221    0.607012
      3          6           0       29.131684    0.678613   -2.318857
      4          6           0       28.240070   -3.664859   -0.300832
      5          6           0       25.045688   -1.741563    2.825875
      6          7           0       27.174515    1.335753   -1.024302
      7          6           0       26.655701    2.483919   -0.577125
      8          6           0       27.089445    3.569971   -1.503952
      9          6           0       27.783072    2.841721   -2.681281
     10          6           0       28.092693    1.531804   -1.984102
     11          6           0       27.043052    2.660920   -4.007797
     12          6           0       28.046976    4.586226   -0.804508
     13          6           0       27.757478    6.116166   -0.938878
     14          1           0       27.050223    6.646656   -2.224869
     15          7           0       28.655049   -1.380081   -1.052405
     16          6           0       29.437900   -0.611761   -1.903868
     17          6           0       30.356996   -1.506998   -2.527880
     18          6           0       30.039610   -2.842274   -2.052644
     19          6           0       28.957227   -2.699819   -1.090334
     20          6           0       31.382644   -1.099755   -3.608295
     21          6           0       30.629638   -4.217595   -2.477948
     22          8           0       30.281813   -5.266165   -2.035305
     23          6           0       31.766727   -4.170701   -3.479554
     24          7           0       26.706616   -2.408565    1.166677
     25          6           0       27.225003   -3.562241    0.689509
     26          6           0       26.719094   -4.833035    1.426200
     27          6           0       25.898265   -4.154764    2.605653
     28          6           0       25.882482   -2.678570    2.226914
     29          6           0       25.862192   -5.786575    0.409778
     30          6           0       26.429443   -4.514412    4.028786
     31          6           0       27.347094   -3.519448    4.716472
     32          7           0       25.745192    0.191756    1.552470
     33          6           0       25.018328   -0.357525    2.573996
     34          6           0       24.166434    0.726572    3.177595
     35          6           0       24.478298    1.879694    2.422439
     36          6           0       25.419811    1.519471    1.402242
     37          6           0       23.083874    0.579554    4.212121
     38          6           0       24.194842    3.302768    2.253397
     39          8           0       23.407954    4.001996    2.897959
     40          6           0       25.182282    3.796850    1.200353
     41          6           0       24.360952    4.554383    0.196745
     42          8           0       23.672430    4.049216   -0.670870
     43          8           0       24.399171    5.819486    0.581560
     44          6           0       23.385654    6.726360    0.065909
     45          1           0       29.617504    1.042546   -3.226078
     46          1           0       28.688659   -4.658535   -0.357463
     47          1           0       24.377405   -2.084363    3.618948
     48          1           0       26.207296    4.118541   -1.832555
     49          1           0       28.651254    3.448701   -2.938389
     50          1           0       26.050228    3.106367   -4.073341
     51          1           0       26.945702    1.600788   -4.243433
     52          1           0       27.674439    3.120265   -4.768036
     53          1           0       29.100364    4.413224   -1.023842
     54          1           0       27.899269    4.274781    0.229462
     55          1           0       28.749804    6.565288   -0.881673
     56          1           0       27.166104    6.433491   -0.080373
     57          1           0       31.315630   -1.701672   -4.514608
     58          1           0       32.409850   -1.288033   -3.295661
     59          1           0       31.343474   -0.048024   -3.894960
     60          1           0       32.562104   -3.485881   -3.184722
     61          1           0       31.344218   -3.930777   -4.455350
     62          1           0       32.150596   -5.174106   -3.663647
     63          1           0       27.533712   -5.438521    1.823170
     64          1           0       24.867292   -4.503537    2.663571
     65          1           0       24.830212   -5.674130    0.742428
     66          1           0       26.053700   -6.850977    0.547489
     67          1           0       25.873685   -5.453740   -0.628714
     68          1           0       27.070954   -5.378225    3.853891
     69          1           0       25.632276   -4.812826    4.709344
     70          1           0       28.032832   -3.206914    3.928010
     71          1           0       27.806666   -4.148897    5.478141
     72          1           0       26.960616   -2.576243    5.101750
     73          1           0       22.808370   -0.421994    4.542566
     74          1           0       22.163669    1.023219    3.831744
     75          1           0       23.395463    1.218084    5.038136
     76          1           0       25.873462    4.565459    1.546764
     77          1           0       22.565683    6.342037   -0.539914
     78          1           0       23.959064    7.358579   -0.612726
     79          1           0       23.224965    7.510416    0.805968
     80         12           0      -26.467016   -0.835481   -0.087735
     81          6           0      -27.639800    2.526728    0.288455
     82          6           0      -25.657263   -0.137465   -3.351319
     83          6           0      -25.773883   -4.088720   -0.674099
     84          6           0      -28.218120   -1.606463    2.875469
     85          7           0      -26.630252    0.991235   -1.346003
     86          6           0      -27.066074    2.279259   -0.997255
     87          6           0      -26.850205    3.206093   -2.166044
     88          6           0      -26.725804    2.194516   -3.382313
     89          6           0      -26.360739    0.874855   -2.641054
     90          6           0      -28.122590    2.124303   -4.096400
     91          6           0      -25.679281    4.231809   -1.965592
     92          6           0      -26.077946    5.547675   -2.411521
     93          1           0      -25.113081    6.747577   -1.938239
     94          7           0      -25.640623   -1.847085   -1.775739
     95          6           0      -25.349584   -1.375553   -2.994037
     96          6           0      -24.715116   -2.403943   -3.759984
     97          6           0      -24.746100   -3.571404   -3.026535
     98          6           0      -25.379869   -3.203706   -1.677064
     99          6           0      -24.307994   -2.197049   -5.253486
    100          6           0      -24.167711   -4.956924   -3.380379
    101          8           0      -24.327855   -5.871380   -2.612208
    102          6           0      -23.332907   -5.151565   -4.624130
    103          7           0      -27.187084   -2.622444    0.846786
    104          6           0      -26.615789   -3.830751    0.463092
    105          6           0      -26.880264   -4.890065    1.483058
    106          6           0      -27.650960   -4.092516    2.644921
    107          6           0      -27.640894   -2.669046    2.139525
    108          6           0      -27.590922   -6.076817    0.925515
    109          6           0      -27.065881   -4.219315    4.157086
    110          6           0      -27.940029   -4.803809    5.195148
    111          7           0      -27.650024    0.199589    1.360902
    112          6           0      -28.277098   -0.282832    2.487526
    113          6           0      -28.916700    0.902463    3.207819
    114          6           0      -28.595495    2.041486    2.442516
    115          6           0      -27.868436    1.552953    1.300900
    116          6           0      -29.753070    0.792861    4.490006
    117          6           0      -28.874900    3.441770    2.339520
    118          8           0      -29.505754    4.201477    3.108724
    119          6           0      -28.420773    3.796072    0.864217
    120          6           0      -27.636057    5.136889    0.985617
    121          8           0      -26.391461    5.148809    0.976463
    122          8           0      -28.503949    6.178177    1.001365
    123          6           0      -27.743204    7.434209    1.323469
    124          1           0      -25.194518    0.125772   -4.305134
    125          1           0      -25.542199   -5.144698   -0.832295
    126          1           0      -28.699814   -1.727063    3.847899
    127          1           0      -27.797676    3.725254   -2.308727
    128          1           0      -25.978087    2.520841   -4.104304
    129          1           0      -28.870633    1.562772   -3.537293
    130          1           0      -27.983734    1.718433   -5.097541
    131          1           0      -28.495910    3.139285   -4.234545
    132          1           0      -24.905883    3.953011   -2.681690
    133          1           0      -25.277582    4.201054   -0.952499
    134          1           0      -27.009333    5.858009   -1.937602
    135          1           0      -26.130210    5.520914   -3.500218
    136          1           0      -23.250020   -2.459182   -5.253686
    137          1           0      -24.397580   -1.173313   -5.616547
    138          1           0      -24.931238   -2.818524   -5.896339
    139          1           0      -23.082105   -6.204173   -4.755809
    140          1           0      -22.495963   -4.529659   -4.306697
    141          1           0      -23.892158   -4.756124   -5.471999
    142          1           0      -25.875433   -5.155780    1.811937
    143          1           0      -28.667702   -4.484009    2.666104
    144          1           0      -26.843170   -6.868782    0.938002
    145          1           0      -27.847523   -5.964030   -0.127720
    146          1           0      -28.499012   -6.371706    1.451860
    147          1           0      -26.935570   -3.173346    4.434566
    148          1           0      -26.083030   -4.684169    4.091997
    149          1           0      -28.167563   -4.076567    5.974104
    150          1           0      -27.203471   -5.498694    5.597081
    151          1           0      -28.779810   -5.366488    4.785118
    152          1           0      -30.788152    0.718030    4.158562
    153          1           0      -29.640118    1.661754    5.138295
    154          1           0      -29.409478   -0.067905    5.063751
    155          1           0      -29.367596    3.915205    0.339272
    156          1           0      -27.434135    7.529396    2.364261
    157          1           0      -28.254133    8.358445    1.055543
    158          1           0      -26.876545    7.425505    0.662159
 ---------------------------------------------------------------------

 SCF Done:  E(RPBE1PBE) =  -4067.34355599     A.U. after   16 cycles

 Excitation energies and oscillator strengths:

 Excited State   1:      Singlet-A      1.8197 eV  681.34 nm  f=0.0000  <S**2>=0.000
     312 -> 313        0.70711
 This state for optimization and/or second-order correction.
 Total Energy, E(TD-HF/TD-DFT) =  -4067.27668302
 Copying the excited state density for this state as the 1-particle RhoCI density.

 Excited State   2:      Singlet-A      1.8312 eV  677.05 nm  f=0.3457  <S**2>=0.000
     309 -> 315       -0.18197
     312 -> 314        0.68927

 Excited State   3:      Singlet-A      1.8764 eV  660.75 nm  f=0.3874  <S**2>=0.000
     310 -> 316       -0.18224
     311 -> 313        0.69072
     311 <- 313       -0.10329

 Excited State   4:      Singlet-A      2.2077 eV  561.59 nm  f=0.0946  <S**2>=0.000
     310 -> 313        0.65478
     311 -> 316        0.25274

 Excited State   5:      Singlet-A      2.2340 eV  554.98 nm  f=0.0000  <S**2>=0.000
     311 -> 314        0.70711

 The electronic state is 1-A.
 Alpha  occ. eigenvalues --  -46.92799 -46.92183 -19.26837 -19.26812 -19.20064
 Alpha  occ. eigenvalues --  -19.19757 -19.19458 -19.19395 -19.19166 -19.18991
 Alpha  occ. eigenvalues --  -14.41712 -14.41487 -14.41393 -14.40987 -14.38914
 Alpha  occ. eigenvalues --  -14.38911 -14.38882 -14.38537 -10.36781 -10.36033
 Alpha  occ. eigenvalues --  -10.32591 -10.32400 -10.32206 -10.31798 -10.29216
 Alpha  occ. eigenvalues --  -10.28895 -10.28875 -10.28842 -10.28839 -10.28788
 Alpha  occ. eigenvalues --  -10.28683 -10.28671 -10.28598 -10.28448 -10.28111
 Alpha  occ. eigenvalues --  -10.27621 -10.27456 -10.27217 -10.26953 -10.26947
 Alpha  occ. eigenvalues --  -10.26833 -10.26760 -10.26699 -10.26651 -10.26471
 Alpha  occ. eigenvalues --  -10.26317 -10.26297 -10.26195 -10.26078 -10.26003
 Alpha  occ. eigenvalues --  -10.25875 -10.25874 -10.25758 -10.25540 -10.25408
 Alpha  occ. eigenvalues --  -10.25288 -10.25255 -10.25251 -10.25219 -10.24885
 Alpha  occ. eigenvalues --  -10.24842 -10.24781 -10.24717 -10.24329 -10.24321
 Alpha  occ. eigenvalues --  -10.24291 -10.24237 -10.24155 -10.24072 -10.24030
 Alpha  occ. eigenvalues --  -10.23954 -10.23779 -10.23772 -10.23759 -10.23668
 Alpha  occ. eigenvalues --  -10.23587 -10.23576 -10.23540 -10.23292 -10.22905
 Alpha  occ. eigenvalues --  -10.22904 -10.22786 -10.22709 -10.22640 -10.22500
 Alpha  occ. eigenvalues --  -10.22463  -3.14721  -3.14223  -1.87555  -1.87081
 Alpha  occ. eigenvalues --   -1.87072  -1.86943  -1.86632  -1.86406  -1.13028
 Alpha  occ. eigenvalues --   -1.10849  -1.06297  -1.06260  -1.04122  -1.03355
 Alpha  occ. eigenvalues --   -1.02724  -1.01969  -0.99603  -0.98559  -0.98401
 Alpha  occ. eigenvalues --   -0.97571  -0.97358  -0.97183  -0.96691  -0.96243
 Alpha  occ. eigenvalues --   -0.87573  -0.85672  -0.83184  -0.83025  -0.82917
 Alpha  occ. eigenvalues --   -0.82865  -0.82486  -0.82410  -0.81581  -0.81500
 Alpha  occ. eigenvalues --   -0.81428  -0.80435  -0.79932  -0.79862  -0.78751
 Alpha  occ. eigenvalues --   -0.78673  -0.78139  -0.77992  -0.76882  -0.76855
 Alpha  occ. eigenvalues --   -0.76531  -0.75745  -0.75116  -0.75041  -0.74785
 Alpha  occ. eigenvalues --   -0.74305  -0.72363  -0.72242  -0.71856  -0.71615
 Alpha  occ. eigenvalues --   -0.71337  -0.70910  -0.70601  -0.69810  -0.69507
 Alpha  occ. eigenvalues --   -0.69227  -0.67088  -0.66588  -0.66195  -0.65955
 Alpha  occ. eigenvalues --   -0.63874  -0.63316  -0.63127  -0.62383  -0.62329
 Alpha  occ. eigenvalues --   -0.61858  -0.60708  -0.60626  -0.59727  -0.59513
 Alpha  occ. eigenvalues --   -0.59452  -0.59349  -0.59180  -0.58999  -0.58877
 Alpha  occ. eigenvalues --   -0.58807  -0.57306  -0.56683  -0.54409  -0.54395
 Alpha  occ. eigenvalues --   -0.54199  -0.53768  -0.53685  -0.53109  -0.53011
 Alpha  occ. eigenvalues --   -0.52829  -0.52382  -0.52027  -0.51872  -0.51547
 Alpha  occ. eigenvalues --   -0.51397  -0.50584  -0.50503  -0.50025  -0.49657
 Alpha  occ. eigenvalues --   -0.49490  -0.49386  -0.49210  -0.48905  -0.48571
 Alpha  occ. eigenvalues --   -0.48157  -0.48107  -0.48056  -0.47841  -0.47587
 Alpha  occ. eigenvalues --   -0.47458  -0.47333  -0.47210  -0.47153  -0.47031
 Alpha  occ. eigenvalues --   -0.46524  -0.46480  -0.46283  -0.45919  -0.45752
 Alpha  occ. eigenvalues --   -0.45607  -0.45500  -0.45205  -0.45044  -0.44886
 Alpha  occ. eigenvalues --   -0.44661  -0.44525  -0.44288  -0.44005  -0.43968
 Alpha  occ. eigenvalues --   -0.43827  -0.43787  -0.43474  -0.43422  -0.43303
 Alpha  occ. eigenvalues --   -0.43278  -0.43077  -0.42832  -0.42826  -0.42660
 Alpha  occ. eigenvalues --   -0.42570  -0.42484  -0.42138  -0.41933  -0.41558
 Alpha  occ. eigenvalues --   -0.41340  -0.41213  -0.41144  -0.40992  -0.40916
 Alpha  occ. eigenvalues --   -0.40857  -0.40708  -0.40624  -0.40509  -0.40384
 Alpha  occ. eigenvalues --   -0.40270  -0.40161  -0.39940  -0.39692  -0.39573
 Alpha  occ. eigenvalues --   -0.39487  -0.39267  -0.39186  -0.39087  -0.38777
 Alpha  occ. eigenvalues --   -0.38484  -0.38480  -0.38277  -0.38134  -0.38046
 Alpha  occ. eigenvalues --   -0.37931  -0.37814  -0.37786  -0.37715  -0.37613
 Alpha  occ. eigenvalues --   -0.37551  -0.37260  -0.37029  -0.36862  -0.36823
 Alpha  occ. eigenvalues --   -0.36686  -0.36515  -0.36396  -0.36101  -0.36040
 Alpha  occ. eigenvalues --   -0.35999  -0.35673  -0.35566  -0.35148  -0.35108
 Alpha  occ. eigenvalues --   -0.34693  -0.34545  -0.34281  -0.33739  -0.33462
 Alpha  occ. eigenvalues --   -0.33278  -0.32954  -0.32263  -0.32183  -0.32138
 Alpha  occ. eigenvalues --   -0.32089  -0.31969  -0.31733  -0.31322  -0.31194
 Alpha  occ. eigenvalues --   -0.31161  -0.29926  -0.29453  -0.29280  -0.29105
 Alpha  occ. eigenvalues --   -0.28974  -0.28535  -0.28362  -0.27104  -0.26488
 Alpha  occ. eigenvalues --   -0.26020  -0.25991  -0.25951  -0.25475  -0.25414
 Alpha  occ. eigenvalues --   -0.25376  -0.25073  -0.24742  -0.21053  -0.20722
 Alpha  occ. eigenvalues --   -0.18712  -0.17919
 Alpha virt. eigenvalues --   -0.10987  -0.10257  -0.05874  -0.05013  -0.04233
 Alpha virt. eigenvalues --   -0.03949  -0.01969  -0.01621  -0.00898   0.00004
 Alpha virt. eigenvalues --    0.00478   0.01030   0.01078   0.01215   0.01498

 Mulliken charges:
               1
     1  Mg  12.000000
     2  C    6.000000
     3  C    6.000000
     4  C    6.000000
     5  C    6.000000
     6  N    7.000000
     7  C    6.000000
     8  C    6.000000
     9  C    6.000000
    10  C    6.000000
    11  C    6.000000
    12  C    6.000000
    13  C    6.000000
    14  H    1.000000
    15  N    7.000000
    16  C    6.000000
    17  C    6.000000
    18  C    6.000000
    19  C    6.000000
    20  C    6.000000
    21  C    6.000000
    22  O    8.000000
    23  C    6.000000
    24  N    7.000000
    25  C    6.000000
    26  C    6.000000
    27  C    6.000000
    28  C    6.000000
    29  C    6.000000
    30  C    6.000000
    31  C    6.000000
    32  N    7.000000
    33  C    6.000000
    34  C    6.000000
    35  C    6.000000
    36  C    6.000000
    37  C    6.000000
    38  C    6.000000
    39  O    8.000000
    40  C    6.000000
    41  C    6.000000
    42  O    8.000000
    43  O    8.000000
    44  C    6.000000
    45  H    1.000000
    46  H    1.000000
    47  H    1.000000
    48  H    1.000000
    49  H    1.000000
    50  H    1.000000
    51  H    1.000000
    52  H    1.000000
    53  H    1.000000
    54  H    1.000000
    55  H    1.000000
    56  H    1.000000
    57  H    1.000000
    58  H    1.000000
    59  H    1.000000
    60  H    1.000000
    61  H    1.000000
    62  H    1.000000
    63  H    1.000000
    64  H    1.000000
    65  H    1.000000
    66  H    1.000000
    67  H    1.000000
    68  H    1.000000
    69  H    1.000000
    70  H    1.000000
    71  H    1.000000
    72  H    1.000000
    73  H    1.000000
    74  H    1.000000
    75  H    1.000000
    76  H    1.000000
    77  H    1.000000
    78  H    1.000000
    79  H    1.000000
    80  Mg  12.000000
    81  C    6.000000
    82  C    6.000000
    83  C    6.000000
    84  C    6.000000
    85  N    7.000000
    86  C    6.000000
    87  C    6.000000
    88  C    6.000000
    89  C    6.000000
    90  C    6.000000
    91  C    6.000000
    92  C    6.000000
    93  H    1.000000
    94  N    7.000000
    95  C    6.000000
    96  C    6.000000
    97  C    6.000000
    98  C    6.000000
    99  C    6.000000
   100  C    6.000000
   101  O    8.000000
   102  C    6.000000
   103  N    7.000000
   104  C    6.000000
   105  C    6.000000
   106  C    6.000000
   107  C    6.000000
   108  C    6.000000
   109  C    6.000000
   110  C    6.000000
   111  N    7.000000
   112  C    6.000000
   113  C    6.000000
   114  C    6.000000
   115  C    6.000000
   116  C    6.000000
   117  C    6.000000
   118  O    8.000000
   119  C    6.000000
   120  C    6.000000
   121  O    8.000000
   122  O    8.000000
   123  C    6.000000
   124  H    1.000000
   125  H    1.000000
   126  H    1.000000
   127  H    1.000000
   128  H    1.000000
   129  H    1.000000
   130  H    1.000000
   131  H    1.000000
   132  H    1.000000
   133  H    1.000000
   134  H    1.000000
   135  H    1.000000
   136  H    1.000000
   137  H    1.000000
   138  H    1.000000
   139  H    1.000000
   140  H    1.000000
   141  H    1.000000
   142  H    1.000000
   143  H    1.000000
   144  H    1.000000
   145  H    1.000000
   146  H    1.000000
   147  H    1.000000
   148  H    1.000000
   149  H    1.000000
   150  H    1.000000
   151  H    1.000000
   152  H    1.000000
   153  H    1.000000
   154  H    1.000000
   155  H    1.000000
   156  H    1.000000
   157  H    1.000000
   158  H    1.000000
 Sum of Mulliken charges = 624.00000

 Dipole moment (field-independent basis, Debye):
    X=              0.0000    Y=             -0.0000    Z=             -0.0000  Tot=              0.0000
 Quadrupole moment (field-independent basis, Debye-Ang):
   XX=             -0.0000   YY=              0.0000   ZZ=              0.0000
   XY=              0.0000   XZ=              0.0000   YZ=              0.0000

 Normal termination of Gaussian 16 at Fri Oct 15 18:57:00 2021.
