 Gaussian 16, Revision A.03,
 Gaussian 16:  ES64L-G16RevA.03 25-Dec-2016

 --------------------------------------------------------
 #p PBE1PBE/Def2SVP td=(nstates=5) density=(transition=1)
 --------------------------------------------------------

 --------------------------------
 TDDFT excited states in gaussian
 --------------------------------
 Symbolic Z-matrix:
 Charge =  0 Multiplicity = 1

                         Standard orientation:
 ---------------------------------------------------------------------
 Center     Atomic      Atomic             Coordinates (Angstroms)
 Number     Number       Type             X           Y           Z
 ---------------------------------------------------------------------
      1         12           0       20.539654   -0.536383    0.047336
      2          6           0       19.489338    2.826101    0.713298
      3          6           0       20.681584    0.298308   -3.295519
      4          6           0       20.876632   -3.725323   -0.579012
      5          6           0       20.108453   -1.166463    3.427794
      6          7           0       19.845452    1.335987   -1.216628
      7          6           0       19.586644    2.558418   -0.658238
      8          6           0       19.650481    3.653174   -1.756798
      9          6           0       19.976845    2.836502   -3.076587
     10          6           0       20.171825    1.367026   -2.552575
     11          6           0       18.907616    2.862484   -4.248453
     12          6           0       20.692713    4.776425   -1.510081
     13          6           0       20.268592    6.181481   -1.750907
     14          1           0       19.019116    6.575320   -2.627771
     15          7           0       20.748674   -1.633813   -1.732400
     16          6           0       20.924351   -1.121480   -3.017565
     17          6           0       21.062708   -2.245795   -3.963012
     18          6           0       21.235016   -3.423766   -3.139173
     19          6           0       20.946509   -2.966984   -1.759829
     20          6           0       21.101991   -2.142026   -5.457637
     21          6           0       21.591475   -4.881700   -3.513615
     22          8           0       22.011005   -5.744320   -2.713507
     23          6           0       21.597761   -5.233371   -4.946920
     24          7           0       20.435773   -2.142981    1.228528
     25          6           0       20.551978   -3.400671    0.678561
     26          6           0       20.695614   -4.484677    1.782524
     27          6           0       20.816592   -3.571459    3.081866
     28          6           0       20.446674   -2.193347    2.561389
     29          6           0       19.572540   -5.595127    1.891507
     30          6           0       22.164037   -3.545280    3.785821
     31          6           0       22.186226   -4.144810    5.207489
     32          7           0       20.116408    0.603948    1.776313
     33          6           0       19.946412    0.195538    3.078020
     34          6           0       19.527859    1.331389    3.909843
     35          6           0       19.402311    2.375875    3.011143
     36          6           0       19.764660    1.895384    1.732969
     37          6           0       19.218587    1.366787    5.370119
     38          6           0       19.082312    3.757061    2.959856
     39          8           0       18.845847    4.607075    3.864888
     40          6           0       19.114667    4.102147    1.531347
     41          6           0       17.824834    4.764058    1.128100
     42          8           0       16.776202    4.223187    1.036103
     43          8           0       18.047365    6.041433    0.819456
     44          6           0       16.946068    6.936786    0.709950
     45          1           0       20.740823    0.472906   -4.371988
     46          1           0       21.020009   -4.807480   -0.629953
     47          1           0       19.900256   -1.393357    4.474694
     48          1           0       18.654053    4.095095   -1.792990
     49          1           0       20.925490    3.171733   -3.494785
     50          1           0       18.088960    3.569609   -4.117711
     51          1           0       18.429231    1.882019   -4.256277
     52          1           0       19.399574    3.014848   -5.209590
     53          1           0       21.580723    4.674991   -2.135073
     54          1           0       21.048400    4.802491   -0.480479
     55          1           0       21.055577    6.716278   -2.283509
     56          1           0       20.131856    6.647961   -0.775697
     57          1           0       20.341091   -2.794525   -5.885311
     58          1           0       22.084527   -2.502488   -5.762268
     59          1           0       21.104749   -1.102764   -5.787936
     60          1           0       20.579833   -5.113031   -5.317784
     61          1           0       21.825149   -6.298597   -4.980129
     62          1           0       22.394005   -4.725538   -5.490485
     63          1           0       21.663459   -4.953362    1.601606
     64          1           0       20.077586   -3.940627    3.792912
     65          1           0       18.815906   -5.439417    1.123340
     66          1           0       19.159278   -5.689538    2.896431
     67          1           0       20.059940   -6.558268    1.739335
     68          1           0       22.699827   -2.595963    3.780821
     69          1           0       22.827709   -4.189216    3.209732
     70          1           0       22.733076   -3.589907    5.969551
     71          1           0       22.815616   -5.033794    5.158503
     72          1           0       21.210291   -4.350866    5.644949
     73          1           0       19.623703    0.507672    5.905588
     74          1           0       18.148176    1.235573    5.527897
     75          1           0       19.494341    2.361909    5.718888
     76          1           0       19.941476    4.802248    1.414485
     77          1           0       16.611024    7.131235    1.729767
     78          1           0       16.095699    6.452397    0.229784
     79          1           0       17.253921    7.889372    0.277962
     80         12           0      -19.545012   -0.743704    0.326356
     81          6           0      -21.809383    1.909677    0.308518
     82          6           0      -17.276636    1.176975   -1.171087
     83          6           0      -18.037749   -3.604581   -0.782085
     84          6           0      -21.970248   -2.728639    1.847715
     85          7           0      -19.490985    1.387297   -0.210618
     86          6           0      -20.501642    2.241856   -0.108184
     87          6           0      -19.994008    3.680049   -0.487203
     88          6           0      -18.585497    3.387984   -1.057746
     89          6           0      -18.422092    1.887792   -0.832773
     90          6           0      -18.457726    3.631611   -2.642945
     91          6           0      -19.939445    4.722555    0.720080
     92          6           0      -20.417955    6.076274    0.320858
     93          1           0      -19.557852    7.294005    0.621848
     94          7           0      -17.872521   -1.137286   -0.798392
     95          6           0      -17.032814   -0.190181   -1.321920
     96          6           0      -15.796016   -0.851652   -1.760471
     97          6           0      -16.032591   -2.249670   -1.641748
     98          6           0      -17.394760   -2.366244   -1.095206
     99          6           0      -14.577221   -0.076295   -2.354944
    100          6           0      -15.110604   -3.432820   -2.064712
    101          8           0      -15.397826   -4.615595   -1.918432
    102          6           0      -13.791720   -3.108003   -2.657411
    103          7           0      -19.936232   -2.797226    0.465008
    104          6           0      -19.215433   -3.838928   -0.126627
    105          6           0      -19.995710   -5.169195    0.039138
    106          6           0      -20.835812   -4.923205    1.368253
    107          6           0      -20.893235   -3.377847    1.204898
    108          6           0      -20.803775   -5.561974   -1.216290
    109          6           0      -20.192755   -5.310988    2.669442
    110          6           0      -19.152601   -4.440229    3.309342
    111          7           0      -21.419386   -0.490022    1.155814
    112          6           0      -22.315037   -1.377598    1.705964
    113          6           0      -23.561979   -0.721692    2.106304
    114          6           0      -23.463584    0.599067    1.474796
    115          6           0      -22.130775    0.653169    0.908246
    116          6           0      -24.702618   -1.348414    2.727758
    117          6           0      -24.158792    1.849972    1.196883
    118          8           0      -25.258696    2.207749    1.396482
    119          6           0      -23.053723    2.789811    0.482980
    120          6           0      -23.537886    3.477730   -0.768384
    121          8           0      -23.418572    3.039640   -1.908785
    122          8           0      -24.049702    4.726714   -0.418050
    123          6           0      -24.553190    5.586807   -1.504256
    124          1           0      -16.362348    1.682601   -1.489831
    125          1           0      -17.511406   -4.473675   -1.183146
    126          1           0      -22.644566   -3.380721    2.406114
    127          1           0      -20.574468    4.120299   -1.298357
    128          1           0      -17.764001    3.968637   -0.638157
    129          1           0      -18.111360    4.656789   -2.775433
    130          1           0      -19.392848    3.578900   -3.199906
    131          1           0      -17.703507    2.943260   -3.026092
    132          1           0      -18.926537    4.840992    1.105265
    133          1           0      -20.496957    4.437906    1.612524
    134          1           0      -21.300472    6.216718    0.944390
    135          1           0      -20.740435    6.221118   -0.709842
    136          1           0      -14.752325   -0.034161   -3.429596
    137          1           0      -13.630667   -0.538720   -2.074087
    138          1           0      -14.592470    0.995758   -2.155686
    139          1           0      -13.670342   -2.294706   -3.372721
    140          1           0      -13.389438   -3.987918   -3.158814
    141          1           0      -13.042858   -3.075877   -1.865519
    142          1           0      -19.210669   -5.896323    0.244743
    143          1           0      -21.812836   -5.405025    1.335713
    144          1           0      -21.865569   -5.761195   -1.071230
    145          1           0      -20.316491   -6.319644   -1.830371
    146          1           0      -20.810551   -4.734132   -1.925108
    147          1           0      -19.705836   -6.285332    2.655165
    148          1           0      -20.986163   -5.417835    3.409304
    149          1           0      -19.744729   -3.855300    4.012921
    150          1           0      -18.654811   -3.728876    2.649978
    151          1           0      -18.424095   -5.068909    3.822359
    152          1           0      -25.116658   -0.601425    3.405260
    153          1           0      -24.327578   -2.189806    3.309901
    154          1           0      -25.441238   -1.618512    1.973692
    155          1           0      -22.795606    3.571835    1.197076
    156          1           0      -25.267317    4.991497   -2.073868
    157          1           0      -23.747809    5.865800   -2.183179
    158          1           0      -25.033983    6.534681   -1.261876
 ---------------------------------------------------------------------

 SCF Done:  E(RPBE1PBE) =  -4067.38168775     A.U. after   16 cycles

 Excitation energies and oscillator strengths:

 Excited State   1:      Singlet-A      1.8214 eV  680.70 nm  f=0.0000  <S**2>=0.000
     312 -> 313        0.70711
 This state for optimization and/or second-order correction.
 Total Energy, E(TD-HF/TD-DFT) =  -4067.31475125
 Copying the excited state density for this state as the 1-particle RhoCI density.

 Excited State   2:      Singlet-A      1.8399 eV  673.85 nm  f=0.3637  <S**2>=0.000
     310 -> 316       -0.17112
     312 -> 314        0.69450
     312 <- 314       -0.11328

 Excited State   3:      Singlet-A      1.8640 eV  665.16 nm  f=0.4060  <S**2>=0.000
     309 -> 315        0.17339
     311 -> 313        0.69405
     311 <- 313       -0.11115

 Excited State   4:      Singlet-A      2.0959 eV  591.55 nm  f=0.0000  <S**2>=0.000
     311 -> 314        0.70710

 Excited State   5:      Singlet-A      2.2041 eV  562.53 nm  f=0.1209  <S**2>=0.000
     309 -> 313        0.66066
     311 -> 315       -0.24062

 The electronic state is 1-A.
 Alpha  occ. eigenvalues --  -46.92331 -46.91325 -19.25609 -19.25561 -19.20221
 Alpha  occ. eigenvalues --  -19.19761 -19.19752 -19.19449 -19.19053 -19.19013
 Alpha  occ. eigenvalues --  -14.41617 -14.41559 -14.41184 -14.41013 -14.39366
 Alpha  occ. eigenvalues --  -14.39246 -14.38917 -14.38899 -10.36605 -10.35939
 Alpha  occ. eigenvalues --  -10.32822 -10.32522 -10.32322 -10.31605 -10.29286
 Alpha  occ. eigenvalues --  -10.29002 -10.28956 -10.28908 -10.28666 -10.28572
 Alpha  occ. eigenvalues --  -10.28382 -10.28283 -10.28282 -10.27983 -10.27816
 Alpha  occ. eigenvalues --  -10.27641 -10.27608 -10.27502 -10.27345 -10.27214
 Alpha  occ. eigenvalues --  -10.27118 -10.26768 -10.26746 -10.26569 -10.26225
 Alpha  occ. eigenvalues --  -10.26162 -10.26116 -10.26104 -10.26080 -10.25956
 Alpha  occ. eigenvalues --  -10.25933 -10.25887 -10.25835 -10.25734 -10.25728
 Alpha  occ. eigenvalues --  -10.25686 -10.25508 -10.25446 -10.25378 -10.25315
 Alpha  occ. eigenvalues --  -10.25137 -10.25027 -10.25020 -10.24904 -10.24629
 Alpha  occ. eigenvalues --  -10.24450 -10.24325 -10.24317 -10.24304 -10.23834
 Alpha  occ. eigenvalues --  -10.23781 -10.23716 -10.23715 -10.23473 -10.23461
 Alpha  occ. eigenvalues --  -10.23452 -10.23426 -10.23157 -10.23133 -10.23093
 Alpha  occ. eigenvalues --  -10.23035 -10.23021 -10.22947 -10.22888 -10.22622
 Alpha  occ. eigenvalues --  -10.21943  -3.14488  -3.13603  -1.87311  -1.86876
 Alpha  occ. eigenvalues --   -1.86709  -1.86448  -1.85954  -1.85854  -1.13338
 Alpha  occ. eigenvalues --   -1.09818  -1.07615  -1.04932  -1.04456  -1.03244
 Alpha  occ. eigenvalues --   -1.02569  -1.02189  -0.99783  -0.99368  -0.98390
 Alpha  occ. eigenvalues --   -0.98205  -0.97565  -0.97266  -0.96788  -0.96562
 Alpha  occ. eigenvalues --   -0.87808  -0.86127  -0.83499  -0.83309  -0.82842
 Alpha  occ. eigenvalues --   -0.82763  -0.82721  -0.82358  -0.81923  -0.81424
 Alpha  occ. eigenvalues --   -0.81319  -0.81231  -0.80656  -0.80594  -0.78868
 Alpha  occ. eigenvalues --   -0.78445  -0.77845  -0.77829  -0.76897  -0.76808
 Alpha  occ. eigenvalues --   -0.76373  -0.76058  -0.76057  -0.75272  -0.74880
 Alpha  occ. eigenvalues --   -0.74707  -0.72709  -0.72563  -0.72027  -0.71547
 Alpha  occ. eigenvalues --   -0.71483  -0.71030  -0.70632  -0.70090  -0.69638
 Alpha  occ. eigenvalues --   -0.69218  -0.67573  -0.66676  -0.65997  -0.65910
 Alpha  occ. eigenvalues --   -0.63758  -0.63584  -0.63418  -0.62926  -0.62090
 Alpha  occ. eigenvalues --   -0.61896  -0.61136  -0.60791  -0.60388  -0.60116
 Alpha  occ. eigenvalues --   -0.59471  -0.59274  -0.59166  -0.58994  -0.58789
 Alpha  occ. eigenvalues --   -0.58543  -0.57544  -0.56352  -0.54766  -0.54741
 Alpha  occ. eigenvalues --   -0.54507  -0.54087  -0.53938  -0.53517  -0.53436
 Alpha  occ. eigenvalues --   -0.52825  -0.52747  -0.52396  -0.52296  -0.51613
 Alpha  occ. eigenvalues --   -0.50907  -0.50765  -0.50429  -0.50059  -0.49812
 Alpha  occ. eigenvalues --   -0.49674  -0.49531  -0.49316  -0.48589  -0.48352
 Alpha  occ. eigenvalues --   -0.48168  -0.48008  -0.47911  -0.47783  -0.47664
 Alpha  occ. eigenvalues --   -0.47465  -0.47336  -0.47047  -0.46995  -0.46716
 Alpha  occ. eigenvalues --   -0.46231  -0.46222  -0.46156  -0.46151  -0.45966
 Alpha  occ. eigenvalues --   -0.45872  -0.45850  -0.45741  -0.44974  -0.44777
 Alpha  occ. eigenvalues --   -0.44738  -0.44636  -0.44614  -0.44405  -0.44153
 Alpha  occ. eigenvalues --   -0.44127  -0.43907  -0.43818  -0.43740  -0.43432
 Alpha  occ. eigenvalues --   -0.43287  -0.43264  -0.43004  -0.42970  -0.42962
 Alpha  occ. eigenvalues --   -0.42645  -0.42435  -0.42431  -0.42128  -0.41642
 Alpha  occ. eigenvalues --   -0.41576  -0.41526  -0.41393  -0.41315  -0.40991
 Alpha  occ. eigenvalues --   -0.40958  -0.40925  -0.40784  -0.40646  -0.40476
 Alpha  occ. eigenvalues --   -0.40428  -0.40214  -0.40093  -0.39795  -0.39682
 Alpha  occ. eigenvalues --   -0.39568  -0.39459  -0.39303  -0.39143  -0.39122
 Alpha  occ. eigenvalues --   -0.38944  -0.38567  -0.38488  -0.38341  -0.38171
 Alpha  occ. eigenvalues --   -0.38080  -0.38036  -0.37685  -0.37630  -0.37500
 Alpha  occ. eigenvalues --   -0.37453  -0.36875  -0.36738  -0.36631  -0.36531
 Alpha  occ. eigenvalues --   -0.36399  -0.36327  -0.36307  -0.36170  -0.36151
 Alpha  occ. eigenvalues --   -0.36005  -0.35852  -0.35389  -0.35219  -0.35159
 Alpha  occ. eigenvalues --   -0.34982  -0.34663  -0.34031  -0.33965  -0.33609
 Alpha  occ. eigenvalues --   -0.33227  -0.32986  -0.32894  -0.32679  -0.32019
 Alpha  occ. eigenvalues --   -0.31921  -0.31613  -0.31431  -0.31402  -0.31273
 Alpha  occ. eigenvalues --   -0.30929  -0.30924  -0.29514  -0.29513  -0.29280
 Alpha  occ. eigenvalues --   -0.29235  -0.28522  -0.28352  -0.27120  -0.26788
 Alpha  occ. eigenvalues --   -0.26205  -0.26154  -0.26054  -0.26015  -0.25701
 Alpha  occ. eigenvalues --   -0.25659  -0.25348  -0.25139  -0.21034  -0.20897
 Alpha  occ. eigenvalues --   -0.18957  -0.18426
 Alpha virt. eigenvalues --   -0.11401  -0.10927  -0.05072  -0.04896  -0.04383
 Alpha virt. eigenvalues --   -0.03824  -0.02414  -0.01921  -0.00538  -0.00149
 Alpha virt. eigenvalues --    0.00164   0.01151   0.01422   0.01631   0.01708

 Mulliken charges:
               1
     1  Mg  12.000000
     2  C    6.000000
     3  C    6.000000
     4  C    6.000000
     5  C    6.000000
     6  N    7.000000
     7  C    6.000000
     8  C    6.000000
     9  C    6.000000
    10  C    6.000000
    11  C    6.000000
    12  C    6.000000
    13  C    6.000000
    14  H    1.000000
    15  N    7.000000
    16  C    6.000000
    17  C    6.000000
    18  C    6.000000
    19  C    6.000000
    20  C    6.000000
    21  C    6.000000
    22  O    8.000000
    23  C    6.000000
    24  N    7.000000
    25  C    6.000000
    26  C    6.000000
    27  C    6.000000
    28  C    6.000000
    29  C    6.000000
    30  C    6.000000
    31  C    6.000000
    32  N    7.000000
    33  C    6.000000
    34  C    6.000000
    35  C    6.000000
    36  C    6.000000
    37  C    6.000000
    38  C    6.000000
    39  O    8.000000
    40  C    6.000000
    41  C    6.000000
    42  O    8.000000
    43  O    8.000000
    44  C    6.000000
    45  H    1.000000
    46  H    1.000000
    47  H    1.000000
    48  H    1.000000
    49  H    1.000000
    50  H    1.000000
    51  H    1.000000
    52  H    1.000000
    53  H    1.000000
    54  H    1.000000
    55  H    1.000000
    56  H    1.000000
    57  H    1.000000
    58  H    1.000000
    59  H    1.000000
    60  H    1.000000
    61  H    1.000000
    62  H    1.000000
    63  H    1.000000
    64  H    1.000000
    65  H    1.000000
    66  H    1.000000
    67  H    1.000000
    68  H    1.000000
    69  H    1.000000
    70  H    1.000000
    71  H    1.000000
    72  H    1.000000
    73  H    1.000000
    74  H    1.000000
    75  H    1.000000
    76  H    1.000000
    77  H    1.000000
    78  H    1.000000
    79  H    1.000000
    80  Mg  12.000000
    81  C    6.000000
    82  C    6.000000
    83  C    6.000000
    84  C    6.000000
    85  N    7.000000
    86  C    6.000000
    87  C    6.000000
    88  C    6.000000
    89  C    6.000000
    90  C    6.000000
    91  C    6.000000
    92  C    6.000000
    93  H    1.000000
    94  N    7.000000
    95  C    6.000000
    96  C    6.000000
    97  C    6.000000
    98  C    6.000000
    99  C    6.000000
   100  C    6.000000
   101  O    8.000000
   102  C    6.000000
   103  N    7.000000
   104  C    6.000000
   105  C    6.000000
   106  C    6.000000
   107  C    6.000000
   108  C    6.000000
   109  C    6.000000
   110  C    6.000000
   111  N    7.000000
   112  C    6.000000
   113  C    6.000000
   114  C    6.000000
   115  C    6.000000
   116  C    6.000000
   117  C    6.000000
   118  O    8.000000
   119  C    6.000000
   120  C    6.000000
   121  O    8.000000
   122  O    8.000000
   123  C    6.000000
   124  H    1.000000
   125  H    1.000000
   126  H    1.000000
   127  H    1.000000
   128  H    1.000000
   129  H    1.000000
   130  H    1.000000
   131  H    1.000000
   132  H    1.000000
   133  H    1.000000
   134  H    1.000000
   135  H    1.000000
   136  H    1.000000
   137  H    1.000000
   138  H    1.000000
   139  H    1.000000
   140  H    1.000000
   141  H    1.000000
   142  H    1.000000
   143  H    1.000000
   144  H    1.000000
   145  H    1.000000
   146  H    1.000000
   147  H    1.000000
   148  H    1.000000
   149  H    1.000000
   150  H    1.000000
   151  H    1.000000
   152  H    1.000000
   153  H    1.000000
   154  H    1.000000
   155  H    1.000000
   156  H    1.000000
   157  H    1.000000
   158  H    1.000000
 Sum of Mulliken charges = 624.00000

 Dipole moment (field-independent basis, Debye):
    X=             -0.0000    Y=              0.0000    Z=              0.0000  Tot=              0.0000
 Quadrupole moment (field-independent basis, Debye-Ang):
   XX=              0.0000   YY=             -0.0000   ZZ=              0.0000
   XY=             -0.0000   XZ=             -0.0000   YZ=             -0.0000

 Normal termination of Gaussian 16 at Fri Oct 15 09:39:12 2021.
