 Gaussian 16, Revision A.03,
 Gaussian 16:  ES64L-G16RevA.03 25-Dec-2016

 ---------------------------------------------------------
 #p PBE1PBE/Def2SVP td=(nstates=5, root=1) density=current
 ---------------------------------------------------------

 --------------------------------
 TDDFT excited states in gaussian
 --------------------------------
 Symbolic Z-matrix:
 Charge =  0 Multiplicity = 1

                         Standard orientation:
 ---------------------------------------------------------------------
 Center     Atomic      Atomic             Coordinates (Angstroms)
 Number     Number       Type             X           Y           Z
 ---------------------------------------------------------------------
      1         12           0       -0.704373    0.191675   -0.106813
      2          6           0        2.733712    0.400023   -0.255552
      3          6           0       -0.290653   -3.359201   -0.325916
      4          6           0       -3.944512   -0.141201   -0.316235
      5          6           0       -0.966686    3.638245   -0.239300
      6          7           0        1.089518   -1.291974   -0.487887
      7          6           0        2.349335   -0.949262   -0.277395
      8          6           0        3.222741   -2.198556    0.029238
      9          6           0        2.303636   -3.319344   -0.570785
     10          6           0        0.915252   -2.666602   -0.476263
     11          6           0        2.692732   -3.686126   -2.047034
     12          6           0        3.367528   -2.252803    1.566412
     13          6           0        4.315088   -3.321485    2.128086
     14          1           0        4.855862   -4.411612    1.224763
     15          7           0       -2.000293   -1.432046   -0.184552
     16          6           0       -1.612660   -2.815357   -0.230751
     17          6           0       -2.841813   -3.580055   -0.069904
     18          6           0       -3.907621   -2.633731    0.045306
     19          6           0       -3.321988   -1.314476   -0.188420
     20          6           0       -2.918172   -5.150074    0.016062
     21          6           0       -5.404778   -2.936162    0.383842
     22          8           0       -6.190875   -2.030903    0.322370
     23          6           0       -5.840300   -4.322064    0.733630
     24          7           0       -2.258199    1.576962   -0.165456
     25          6           0       -3.556053    1.207137   -0.249476
     26          6           0       -4.514210    2.391306   -0.372649
     27          6           0       -3.556593    3.593977   -0.206540
     28          6           0       -2.143200    2.881697   -0.203847
     29          6           0       -5.354382    2.452256   -1.700937
     30          6           0       -3.838905    4.554758    0.920207
     31          6           0       -4.146400    4.049293    2.350425
     32          7           0        0.550315    1.766612   -0.238686
     33          6           0        0.328790    3.113612   -0.273472
     34          6           0        1.622740    3.760062   -0.213096
     35          6           0        2.646495    2.752042   -0.171341
     36          6           0        1.903408    1.540346   -0.204810
     37          6           0        1.818033    5.244138   -0.209584
     38          6           0        4.043757    2.475709   -0.173081
     39          8           0        5.056529    3.208476   -0.199028
     40          6           0        4.103757    0.886732   -0.507203
     41          6           0        5.267450    0.317098    0.305773
     42          8           0        5.416568    0.439241    1.461243
     43          8           0        6.115016   -0.314012   -0.559649
     44          6           0        7.089509   -1.233030   -0.008465
     45          1           0       -0.158888   -4.434490   -0.459848
     46          1           0       -5.028647   -0.193028   -0.436462
     47          1           0       -0.980336    4.727799   -0.299613
     48          1           0        4.161314   -2.192211   -0.524770
     49          1           0        2.417067   -4.142364    0.135228
     50          1           0        3.218943   -4.639866   -2.055201
     51          1           0        3.314475   -2.879992   -2.436975
     52          1           0        1.832297   -3.841070   -2.698052
     53          1           0        2.389431   -2.507387    1.973772
     54          1           0        3.560017   -1.269707    1.994937
     55          1           0        4.016160   -3.685820    3.111196
     56          1           0        5.183634   -2.754784    2.464137
     57          1           0       -3.654722   -5.567935   -0.670864
     58          1           0       -3.126504   -5.374406    1.062062
     59          1           0       -1.928378   -5.572006   -0.162374
     60          1           0       -6.698657   -4.128584    1.377357
     61          1           0       -5.123812   -4.840180    1.370021
     62          1           0       -5.918688   -5.089911   -0.035974
     63          1           0       -5.190083    2.293656    0.476623
     64          1           0       -3.472309    4.198565   -1.109546
     65          1           0       -5.450436    3.512061   -1.935415
     66          1           0       -6.306507    2.021475   -1.390424
     67          1           0       -4.913303    1.807508   -2.461037
     68          1           0       -4.825057    4.907861    0.620547
     69          1           0       -3.150100    5.388903    1.057958
     70          1           0       -5.119380    4.281470    2.781412
     71          1           0       -3.508629    4.535129    3.088840
     72          1           0       -4.054218    2.963335    2.373018
     73          1           0        2.897000    5.395821   -0.220186
     74          1           0        1.448768    5.666644    0.725850
     75          1           0        1.267445    5.789030   -0.975860
     76          1           0        4.235950    0.836122   -1.588171
     77          1           0        7.902100   -0.716718   -0.519760
     78          1           0        6.879668   -2.280305   -0.226951
     79          1           0        7.243482   -1.135822    1.066534
 ---------------------------------------------------------------------

 SCF Done:  E(RPBE1PBE) =  -2033.68347844     A.U. after   16 cycles

 Excitation energies and oscillator strengths:

 Excited State   1:      Singlet-A      1.8858 eV  657.45 nm  f=0.3654  <S**2>=0.000
     155 ->158        -0.19023
     156 ->157         0.68804
     156 <-157        -0.10014
 This state for optimization and/or second-order correction.
 Total Energy, E(TD-HF/TD-DFT) =  -2033.61417482
 Copying the excited state density for this state as the 1-particle RhoCI density.

 Excited State   2:      Singlet-A      2.2137 eV  560.07 nm  f=0.0903  <S**2>=0.000
     155 ->157         0.64980
     156 ->158         0.26390

 Excited State   3:      Singlet-A      2.9291 eV  423.28 nm  f=0.0046  <S**2>=0.000
     151 ->157         0.15856
     152 ->157         0.32613
     152 ->159        -0.11685
     153 ->157         0.46574
     153 ->159        -0.12697
     154 ->157         0.29613

 Excited State   4:      Singlet-A      3.0583 eV  405.40 nm  f=0.0040  <S**2>=0.000
     153 ->157        -0.32900
     154 ->157         0.61435

 Excited State   5:      Singlet-A      3.1985 eV  387.63 nm  f=0.0174  <S**2>=0.000
     151 ->157        -0.10755
     152 ->157         0.53640
     153 ->157        -0.31173
     154 ->157        -0.12528
     156 ->158         0.26328

 The electronic state is 1-A.
 Alpha  occ. eigenvalues --  -46.91660 -19.25021 -19.20395 -19.19348 -19.19194
 Alpha  occ. eigenvalues --  -14.41248 -14.41171 -14.39011 -14.38920 -10.35865
 Alpha  occ. eigenvalues --  -10.32459 -10.32153 -10.28662 -10.28375 -10.28369
 Alpha  occ. eigenvalues --  -10.28286 -10.28246 -10.28154 -10.27221 -10.26932
 Alpha  occ. eigenvalues --  -10.26693 -10.26276 -10.26257 -10.26165 -10.25871
 Alpha  occ. eigenvalues --  -10.25629 -10.25621 -10.25402 -10.25318 -10.25277
 Alpha  occ. eigenvalues --  -10.25249 -10.25110 -10.24328 -10.24315 -10.24185
 Alpha  occ. eigenvalues --  -10.24078 -10.23814 -10.23754 -10.23539 -10.23380
 Alpha  occ. eigenvalues --  -10.23153 -10.22685 -10.22636  -3.13875  -1.86716
 Alpha  occ. eigenvalues --   -1.86265  -1.86089  -1.12342  -1.06326  -1.04609
 Alpha  occ. eigenvalues --   -1.02671  -0.99873  -0.98654  -0.97682  -0.96815
 Alpha  occ. eigenvalues --   -0.87334  -0.83657  -0.83049  -0.82765  -0.81649
 Alpha  occ. eigenvalues --   -0.80702  -0.79946  -0.78355  -0.77998  -0.76714
 Alpha  occ. eigenvalues --   -0.75958  -0.75729  -0.74604  -0.72330  -0.71665
 Alpha  occ. eigenvalues --   -0.71072  -0.70177  -0.69894  -0.67094  -0.66450
 Alpha  occ. eigenvalues --   -0.64632  -0.63292  -0.62499  -0.60682  -0.59657
 Alpha  occ. eigenvalues --   -0.59417  -0.58818  -0.58627  -0.56885  -0.55077
 Alpha  occ. eigenvalues --   -0.54194  -0.53715  -0.53373  -0.52725  -0.52373
 Alpha  occ. eigenvalues --   -0.50756  -0.50584  -0.50241  -0.49851  -0.48786
 Alpha  occ. eigenvalues --   -0.48276  -0.48068  -0.47663  -0.46993  -0.46736
 Alpha  occ. eigenvalues --   -0.46596  -0.46257  -0.45360  -0.45258  -0.44767
 Alpha  occ. eigenvalues --   -0.44625  -0.44265  -0.44114  -0.43933  -0.43902
 Alpha  occ. eigenvalues --   -0.43348  -0.42913  -0.42789  -0.42629  -0.42303
 Alpha  occ. eigenvalues --   -0.41537  -0.41418  -0.41250  -0.40679  -0.40642
 Alpha  occ. eigenvalues --   -0.40234  -0.39932  -0.39691  -0.39519  -0.38695
 Alpha  occ. eigenvalues --   -0.38188  -0.38161  -0.37783  -0.37713  -0.37589
 Alpha  occ. eigenvalues --   -0.37219  -0.36944  -0.36817  -0.36671  -0.36397
 Alpha  occ. eigenvalues --   -0.36303  -0.35830  -0.35096  -0.34446  -0.34414
 Alpha  occ. eigenvalues --   -0.33326  -0.32801  -0.32534  -0.32166  -0.31288
 Alpha  occ. eigenvalues --   -0.30878  -0.30131  -0.29126  -0.28827  -0.26956
 Alpha  occ. eigenvalues --   -0.26033  -0.25622  -0.25239  -0.24986  -0.20751
 Alpha  occ. eigenvalues --   -0.18730
 Alpha virt. eigenvalues --   -0.10941  -0.05345  -0.04008  -0.01806   0.00283
 Alpha virt. eigenvalues --    0.01292   0.01480   0.01830   0.03023   0.03622
 Alpha virt. eigenvalues --    0.04807   0.05461   0.06112   0.06772   0.07252

 Mulliken charges:
               1
     1  Mg   0.966129
     2  C   -0.027550
     3  C   -0.069354
     4  C   -0.083266
     5  C   -0.106677
     6  N   -0.331681
     7  C    0.016443
     8  C   -0.123047
     9  C   -0.120774
    10  C    0.049948
    11  C    0.034112
    12  C   -0.012241
    13  C   -0.106765
    14  H    0.052720
    15  N   -0.512979
    16  C    0.190105
    17  C   -0.200633
    18  C   -0.081185
    19  C    0.199191
    20  C    0.045923
    21  C    0.065073
    22  O   -0.221937
    23  C   -0.015714
    24  N   -0.387757
    25  C    0.045347
    26  C   -0.125783
    27  C   -0.084808
    28  C    0.120378
    29  C    0.025025
    30  C   -0.025035
    31  C   -0.087755
    32  N   -0.524641
    33  C    0.158772
    34  C   -0.195531
    35  C   -0.033231
    36  C    0.199397
    37  C    0.061288
    38  C    0.165825
    39  O   -0.249822
    40  C   -0.192043
    41  C    0.267416
    42  O   -0.193810
    43  O   -0.371813
    44  C    0.096075
    45  H    0.009176
    46  H    0.015182
    47  H   -0.001527
    48  H    0.041353
    49  H    0.037614
    50  H    0.046653
    51  H    0.051143
    52  H    0.047803
    53  H    0.035576
    54  H    0.077376
    55  H    0.048110
    56  H    0.047205
    57  H    0.064411
    58  H    0.064091
    59  H    0.034476
    60  H    0.058399
    61  H    0.026867
    62  H    0.071197
    63  H    0.062534
    64  H    0.045277
    65  H    0.054180
    66  H    0.055248
    67  H    0.061421
    68  H    0.040080
    69  H    0.048986
    70  H    0.038553
    71  H    0.039412
    72  H    0.048998
    73  H    0.065674
    74  H    0.045942
    75  H    0.049400
    76  H    0.091542
    77  H    0.073166
    78  H    0.064612
    79  H    0.066537
 Sum of Mulliken charges =  -0.00000

 Dipole moment (field-independent basis, Debye):
    X=             -2.7591    Y=             -3.7806    Z=             -0.2144  Tot=              4.6852
 Quadrupole moment (field-independent basis, Debye-Ang):
   XX=           -276.4791   YY=           -225.8274   ZZ=           -255.9123
   XY=            -35.4383   XZ=             -4.8669   YZ=             -1.4067

 Normal termination of Gaussian 16 at Wed Oct 13 12:59:07 2021.
