 Gaussian 16, Revision A.03,
 Gaussian 16:  ES64L-G16RevA.03 25-Dec-2016

 --------------------------------------------------------
 #p PBE1PBE/Def2SVP td=(nstates=5) density=(transition=1)
 --------------------------------------------------------

 --------------------------------
 TDDFT excited states in gaussian
 --------------------------------
 Symbolic Z-matrix:
 Charge =  0 Multiplicity = 1

                         Standard orientation:
 ---------------------------------------------------------------------
 Center     Atomic      Atomic             Coordinates (Angstroms)
 Number     Number       Type             X           Y           Z
 ---------------------------------------------------------------------
      1         12           0      -30.577223    0.169151    0.367599
      2          6           0      -27.690484   -1.591001   -0.242661
      3          6           0      -31.767204   -0.886414   -2.815066
      4          6           0      -33.222708    2.264141    0.572783
      5          6           0      -29.315250    1.426498    3.209630
      6          7           0      -29.800104   -1.098245   -1.337083
      7          6           0      -28.567213   -1.693430   -1.327198
      8          6           0      -28.371625   -2.573983   -2.563447
      9          6           0      -29.636487   -2.141215   -3.439346
     10          6           0      -30.458226   -1.323828   -2.486043
     11          6           0      -29.269775   -1.429052   -4.792877
     12          6           0      -28.360699   -4.137959   -2.241520
     13          6           0      -27.368187   -5.090431   -2.863699
     14          1           0      -27.133772   -5.009942   -4.330373
     15          7           0      -32.321477    0.614413   -0.911190
     16          6           0      -32.698500   -0.032484   -2.035944
     17          6           0      -34.007715    0.352651   -2.444697
     18          6           0      -34.482843    1.260801   -1.446619
     19          6           0      -33.283287    1.457426   -0.579013
     20          6           0      -34.544435   -0.188103   -3.730595
     21          6           0      -35.788657    2.036337   -1.410225
     22          8           0      -35.968193    2.994191   -0.651698
     23          6           0      -36.928257    1.659789   -2.340683
     24          7           0      -31.132177    1.780517    1.644906
     25          6           0      -32.341133    2.398789    1.588468
     26          6           0      -32.555554    3.278751    2.818802
     27          6           0      -31.353618    2.852480    3.744772
     28          6           0      -30.546798    1.958431    2.823970
     29          6           0      -32.759266    4.816981    2.686347
     30          6           0      -31.725122    2.208959    5.145584
     31          6           0      -31.842733    0.706643    5.292420
     32          7           0      -28.848776    0.066606    1.264540
     33          6           0      -28.456015    0.498080    2.506089
     34          6           0      -27.122189    0.144067    2.829833
     35          6           0      -26.785137   -0.726476    1.798126
     36          6           0      -27.873569   -0.756399    0.888725
     37          6           0      -26.222310    0.447006    4.020793
     38          6           0      -25.790679   -1.550660    1.265296
     39          8           0      -24.667379   -1.746648    1.691366
     40          6           0      -26.294968   -2.181525   -0.151191
     41          6           0      -25.372883   -1.739772   -1.190163
     42          8           0      -25.203508   -0.562886   -1.565976
     43          8           0      -24.630753   -2.748289   -1.719300
     44          6           0      -23.456789   -2.412672   -2.532888
     45          1           0      -32.058925   -1.341115   -3.763675
     46          1           0      -34.181776    2.729878    0.807979
     47          1           0      -29.030799    1.508184    4.260061
     48          1           0      -27.389812   -2.357949   -2.986655
     49          1           0      -30.207510   -3.009393   -3.768867
     50          1           0      -29.690171   -2.023904   -5.603027
     51          1           0      -28.183944   -1.335820   -4.766817
     52          1           0      -29.748617   -0.463101   -4.956188
     53          1           0      -29.365794   -4.422291   -2.553528
     54          1           0      -28.442638   -4.316292   -1.169853
     55          1           0      -27.586875   -6.111837   -2.552322
     56          1           0      -26.398825   -4.799541   -2.460564
     57          1           0      -35.565415   -0.489752   -3.499559
     58          1           0      -34.014420   -1.095814   -4.020184
     59          1           0      -34.537571    0.493613   -4.581759
     60          1           0      -37.089231    0.585331   -2.433421
     61          1           0      -36.849440    2.231702   -3.266256
     62          1           0      -37.817940    2.033683   -1.833056
     63          1           0      -33.535853    2.962574    3.176024
     64          1           0      -30.782397    3.703894    4.112866
     65          1           0      -31.885006    5.347354    3.063529
     66          1           0      -33.617748    5.064051    3.310676
     67          1           0      -32.939226    4.999477    1.627478
     68          1           0      -32.680665    2.642020    5.438242
     69          1           0      -30.986964    2.502415    5.892322
     70          1           0      -32.791203    0.416220    5.744877
     71          1           0      -31.037827    0.260714    5.878204
     72          1           0      -31.780053    0.323414    4.273921
     73          1           0      -26.781623    1.036174    4.748545
     74          1           0      -25.338181    0.982303    3.673650
     75          1           0      -25.910347   -0.497231    4.466222
     76          1           0      -26.132539   -3.241746    0.044996
     77          1           0      -22.705960   -3.201762   -2.576267
     78          1           0      -23.003991   -1.443100   -2.327694
     79          1           0      -23.818494   -2.427239   -3.561138
     80         12           0       30.643058    0.084247   -0.554299
     81          6           0       27.730972   -1.236725    1.073276
     82          6           0       28.783304    3.124264   -0.798198
     83          6           0       33.445946    1.843130   -1.136542
     84          6           0       32.379826   -2.679248    0.466996
     85          7           0       28.545520    0.807254    0.106057
     86          6           0       27.546862    0.103100    0.712960
     87          6           0       26.264005    0.978875    0.931659
     88          6           0       26.561344    2.206888   -0.055441
     89          6           0       28.070081    2.078384   -0.192560
     90          6           0       25.896627    2.105535   -1.409154
     91          6           0       25.975232    1.274077    2.394224
     92          6           0       24.506831    1.142000    2.875241
     93          1           0       23.582987    2.434485    3.059237
     94          7           0       31.080762    2.235317   -1.031017
     95          6           0       30.132712    3.271261   -1.163573
     96          6           0       30.826756    4.491896   -1.591893
     97          6           0       32.214907    4.098149   -1.739384
     98          6           0       32.320694    2.747512   -1.230746
     99          6           0       30.235115    5.837562   -1.783112
    100          6           0       33.303090    4.963453   -2.323834
    101          8           0       32.983107    6.006760   -2.847618
    102          6           0       34.772743    4.611238   -2.312998
    103          7           0       32.553759   -0.352586   -0.236977
    104          6           0       33.535701    0.506240   -0.722772
    105          6           0       34.889406   -0.166945   -0.484867
    106          6           0       34.521869   -1.665668   -0.182075
    107          6           0       33.042763   -1.572282   -0.014744
    108          6           0       36.019108    0.032710   -1.560835
    109          6           0       35.265107   -2.382791    0.986512
    110          6           0       35.968527   -3.666252    0.686682
    111          7           0       30.193946   -1.661978    0.420199
    112          6           0       30.988710   -2.757244    0.710267
    113          6           0       30.166796   -3.892546    1.172004
    114          6           0       28.874704   -3.270974    1.380073
    115          6           0       28.983262   -1.953954    0.923205
    116          6           0       30.552886   -5.318519    1.464727
    117          6           0       27.483164   -3.557619    1.837741
    118          8           0       27.014232   -4.539744    2.338527
    119          6           0       26.766011   -2.214340    1.750165
    120          6           0       25.533558   -2.407150    0.917932
    121          8           0       25.658023   -2.682128   -0.256176
    122          8           0       24.290580   -2.148645    1.570022
    123          6           0       23.073056   -2.134582    0.703580
    124          1           0       28.232699    4.056861   -0.939162
    125          1           0       34.440055    2.258062   -1.311098
    126          1           0       32.935655   -3.610118    0.595048
    127          1           0       25.382561    0.526154    0.478473
    128          1           0       26.372789    3.163680    0.431340
    129          1           0       26.493228    1.442642   -2.035420
    130          1           0       25.807627    3.119825   -1.798004
    131          1           0       24.896667    1.675288   -1.473589
    132          1           0       26.243621    2.318972    2.546902
    133          1           0       26.704668    0.729245    2.993482
    134          1           0       24.610650    0.641458    3.838235
    135          1           0       23.903748    0.485783    2.247610
    136          1           0       30.050982    5.938180   -2.852297
    137          1           0       30.989571    6.593338   -1.564493
    138          1           0       29.334154    6.125234   -1.239925
    139          1           0       35.442325    5.392444   -2.672293
    140          1           0       34.870126    3.755730   -2.981483
    141          1           0       35.230281    4.256946   -1.390032
    142          1           0       35.264643    0.401024    0.366924
    143          1           0       34.594489   -2.225215   -1.114193
    144          1           0       35.590789    0.338651   -2.515699
    145          1           0       36.627550   -0.867422   -1.646459
    146          1           0       36.725167    0.792721   -1.226939
    147          1           0       34.555071   -2.564111    1.793336
    148          1           0       35.942660   -1.652048    1.427943
    149          1           0       35.400937   -4.491753    1.115693
    150          1           0       36.952620   -3.661093    1.155138
    151          1           0       36.125466   -3.923242   -0.360676
    152          1           0       29.683736   -5.974920    1.427369
    153          1           0       31.008464   -5.316232    2.455347
    154          1           0       31.357383   -5.591478    0.781564
    155          1           0       26.611301   -1.861278    2.769842
    156          1           0       22.768550   -3.161320    0.499921
    157          1           0       23.290798   -1.687008   -0.265913
    158          1           0       22.270307   -1.566577    1.173362
 ---------------------------------------------------------------------

 SCF Done:  E(RPBE1PBE) =  -4067.39992780     A.U. after   16 cycles

 Excitation energies and oscillator strengths:

 Excited State   1:      Singlet-A      1.8362 eV  675.21 nm  f=0.3823  <S**2>=0.000
     309 -> 315       -0.16422
     312 -> 314        0.69670
     312 <- 314       -0.11953
 This state for optimization and/or second-order correction.
 Total Energy, E(TD-HF/TD-DFT) =  -4067.33244755
 Copying the excited state density for this state as the 1-particle RhoCI density.

 Excited State   2:      Singlet-A      1.8776 eV  660.35 nm  f=0.3949  <S**2>=0.000
     310 -> 316       -0.17163
     311 -> 313        0.69339
     311 <- 313       -0.11027

 Excited State   3:      Singlet-A      1.9276 eV  643.21 nm  f=0.0000  <S**2>=0.000
     312 -> 313        0.70711

 Excited State   4:      Singlet-A      2.0330 eV  609.85 nm  f=0.0000  <S**2>=0.000
     311 -> 314        0.70711

 Excited State   5:      Singlet-A      2.2360 eV  554.48 nm  f=0.1178  <S**2>=0.000
     308 -> 314        0.10036
     309 -> 314        0.64815
     312 -> 315        0.25669

 The electronic state is 1-A.
 Alpha  occ. eigenvalues --  -46.92723 -46.92508 -19.25845 -19.25697 -19.20846
 Alpha  occ. eigenvalues --  -19.19818 -19.19051 -19.18925 -19.18749 -19.18224
 Alpha  occ. eigenvalues --  -14.42113 -14.41627 -14.41344 -14.41047 -14.39182
 Alpha  occ. eigenvalues --  -14.39155 -14.38989 -14.38810 -10.37166 -10.35920
 Alpha  occ. eigenvalues --  -10.32461 -10.32447 -10.31736 -10.31675 -10.29441
 Alpha  occ. eigenvalues --  -10.29114 -10.29008 -10.28854 -10.28826 -10.28531
 Alpha  occ. eigenvalues --  -10.28472 -10.28202 -10.28172 -10.27931 -10.27907
 Alpha  occ. eigenvalues --  -10.27791 -10.27694 -10.27693 -10.27683 -10.27267
 Alpha  occ. eigenvalues --  -10.26775 -10.26744 -10.26689 -10.26376 -10.26353
 Alpha  occ. eigenvalues --  -10.26338 -10.26297 -10.26231 -10.26063 -10.25933
 Alpha  occ. eigenvalues --  -10.25915 -10.25911 -10.25822 -10.25797 -10.25753
 Alpha  occ. eigenvalues --  -10.25753 -10.25559 -10.25446 -10.25371 -10.25358
 Alpha  occ. eigenvalues --  -10.25145 -10.25143 -10.24770 -10.24705 -10.24487
 Alpha  occ. eigenvalues --  -10.24455 -10.24318 -10.24296 -10.24277 -10.24213
 Alpha  occ. eigenvalues --  -10.24056 -10.24026 -10.23920 -10.23892 -10.23888
 Alpha  occ. eigenvalues --  -10.23554 -10.23493 -10.23407 -10.23217 -10.23205
 Alpha  occ. eigenvalues --  -10.23202 -10.23169 -10.22832 -10.22817 -10.22455
 Alpha  occ. eigenvalues --  -10.22419  -3.14869  -3.14696  -1.87655  -1.87520
 Alpha  occ. eigenvalues --   -1.87250  -1.87098  -1.87031  -1.86969  -1.10617
 Alpha  occ. eigenvalues --   -1.10002  -1.06390  -1.04988  -1.04717  -1.04135
 Alpha  occ. eigenvalues --   -1.02624  -1.00623  -1.00097  -0.99329  -0.99225
 Alpha  occ. eigenvalues --   -0.98784  -0.98181  -0.98134  -0.97362  -0.96185
 Alpha  occ. eigenvalues --   -0.87020  -0.86997  -0.83714  -0.83324  -0.83129
 Alpha  occ. eigenvalues --   -0.82773  -0.82539  -0.82461  -0.82176  -0.81889
 Alpha  occ. eigenvalues --   -0.81697  -0.80741  -0.80537  -0.79947  -0.78748
 Alpha  occ. eigenvalues --   -0.78585  -0.78263  -0.78043  -0.76940  -0.76754
 Alpha  occ. eigenvalues --   -0.76014  -0.76012  -0.75500  -0.74834  -0.74611
 Alpha  occ. eigenvalues --   -0.74503  -0.72672  -0.72483  -0.71806  -0.71781
 Alpha  occ. eigenvalues --   -0.71410  -0.71082  -0.70584  -0.70553  -0.69854
 Alpha  occ. eigenvalues --   -0.69590  -0.68018  -0.67093  -0.66215  -0.65996
 Alpha  occ. eigenvalues --   -0.64025  -0.63901  -0.63655  -0.63296  -0.62567
 Alpha  occ. eigenvalues --   -0.62334  -0.61541  -0.61125  -0.60389  -0.60043
 Alpha  occ. eigenvalues --   -0.59687  -0.59505  -0.59242  -0.59126  -0.58828
 Alpha  occ. eigenvalues --   -0.58773  -0.56860  -0.56849  -0.54729  -0.54414
 Alpha  occ. eigenvalues --   -0.54341  -0.53975  -0.53779  -0.53658  -0.53460
 Alpha  occ. eigenvalues --   -0.52987  -0.52875  -0.52445  -0.52231  -0.51892
 Alpha  occ. eigenvalues --   -0.51099  -0.50855  -0.50185  -0.50041  -0.49871
 Alpha  occ. eigenvalues --   -0.49593  -0.49337  -0.48787  -0.48612  -0.48428
 Alpha  occ. eigenvalues --   -0.47889  -0.47864  -0.47773  -0.47716  -0.47476
 Alpha  occ. eigenvalues --   -0.47239  -0.47128  -0.46876  -0.46763  -0.46624
 Alpha  occ. eigenvalues --   -0.46320  -0.46239  -0.45993  -0.45880  -0.45557
 Alpha  occ. eigenvalues --   -0.45459  -0.45393  -0.45069  -0.45068  -0.44825
 Alpha  occ. eigenvalues --   -0.44478  -0.44471  -0.44424  -0.44297  -0.44156
 Alpha  occ. eigenvalues --   -0.43922  -0.43879  -0.43776  -0.43677  -0.43422
 Alpha  occ. eigenvalues --   -0.43378  -0.43309  -0.43262  -0.43173  -0.42818
 Alpha  occ. eigenvalues --   -0.42809  -0.42533  -0.42372  -0.42140  -0.41828
 Alpha  occ. eigenvalues --   -0.41824  -0.41654  -0.41604  -0.41213  -0.41098
 Alpha  occ. eigenvalues --   -0.41016  -0.40939  -0.40862  -0.40806  -0.40727
 Alpha  occ. eigenvalues --   -0.40679  -0.40617  -0.40598  -0.40103  -0.39942
 Alpha  occ. eigenvalues --   -0.39764  -0.39646  -0.39371  -0.39237  -0.38843
 Alpha  occ. eigenvalues --   -0.38781  -0.38593  -0.38429  -0.38400  -0.38250
 Alpha  occ. eigenvalues --   -0.38208  -0.38112  -0.37976  -0.37784  -0.37744
 Alpha  occ. eigenvalues --   -0.37489  -0.37418  -0.37165  -0.37127  -0.36798
 Alpha  occ. eigenvalues --   -0.36783  -0.36578  -0.36384  -0.36369  -0.36190
 Alpha  occ. eigenvalues --   -0.36016  -0.36008  -0.35641  -0.35517  -0.35472
 Alpha  occ. eigenvalues --   -0.35198  -0.34966  -0.34756  -0.34481  -0.34223
 Alpha  occ. eigenvalues --   -0.33440  -0.33433  -0.33214  -0.32675  -0.32335
 Alpha  occ. eigenvalues --   -0.32329  -0.32028  -0.31675  -0.31552  -0.31119
 Alpha  occ. eigenvalues --   -0.30841  -0.30583  -0.29775  -0.29749  -0.29546
 Alpha  occ. eigenvalues --   -0.28819  -0.28646  -0.28005  -0.26988  -0.26838
 Alpha  occ. eigenvalues --   -0.26542  -0.26334  -0.26128  -0.25558  -0.25400
 Alpha  occ. eigenvalues --   -0.25310  -0.25225  -0.24391  -0.21193  -0.20831
 Alpha  occ. eigenvalues --   -0.19077  -0.18770
 Alpha virt. eigenvalues --   -0.11469  -0.11387  -0.05013  -0.04786  -0.03943
 Alpha virt. eigenvalues --   -0.03535  -0.01950  -0.01933  -0.01538  -0.00977
 Alpha virt. eigenvalues --   -0.00198   0.00154   0.00253   0.01259   0.01813

 Mulliken charges:
               1
     1  Mg  12.000015
     2  C    6.000000
     3  C    5.999986
     4  C    6.000012
     5  C    5.999992
     6  N    7.000016
     7  C    6.000034
     8  C    5.999991
     9  C    6.000028
    10  C    5.999965
    11  C    6.000003
    12  C    5.999995
    13  C    5.999989
    14  H    1.000011
    15  N    6.999958
    16  C    5.999979
    17  C    5.999992
    18  C    6.000014
    19  C    5.999986
    20  C    6.000034
    21  C    5.999906
    22  O    7.999981
    23  C    6.000023
    24  N    6.999988
    25  C    5.999984
    26  C    6.000035
    27  C    5.999965
    28  C    6.000023
    29  C    5.999995
    30  C    5.999994
    31  C    5.999993
    32  N    7.000026
    33  C    6.000027
    34  C    6.000035
    35  C    5.999906
    36  C    6.000026
    37  C    5.999977
    38  C    6.000139
    39  O    7.999988
    40  C    6.000007
    41  C    6.000017
    42  O    7.999999
    43  O    8.000001
    44  C    5.999989
    45  H    0.999983
    46  H    0.999987
    47  H    1.000022
    48  H    1.000000
    49  H    1.000003
    50  H    0.999999
    51  H    0.999971
    52  H    0.999995
    53  H    1.000025
    54  H    0.999993
    55  H    1.000021
    56  H    0.999995
    57  H    0.999960
    58  H    0.999964
    59  H    0.999938
    60  H    0.999984
    61  H    0.999966
    62  H    0.999962
    63  H    1.000006
    64  H    0.999996
    65  H    0.999973
    66  H    0.999991
    67  H    1.000008
    68  H    1.000021
    69  H    0.999996
    70  H    1.000018
    71  H    0.999999
    72  H    1.000006
    73  H    1.000035
    74  H    1.000035
    75  H    1.000053
    76  H    1.000029
    77  H    1.000029
    78  H    0.999997
    79  H    1.000014
    80  Mg  12.000236
    81  C    6.022238
    82  C    6.000584
    83  C    5.967581
    84  C    6.000460
    85  N    7.014874
    86  C    5.971347
    87  C    6.008795
    88  C    5.992042
    89  C    6.025685
    90  C    5.994185
    91  C    6.004147
    92  C    6.000379
    93  H    0.992757
    94  N    6.996486
    95  C    6.037531
    96  C    6.023751
    97  C    6.006906
    98  C    6.039186
    99  C    5.995192
   100  C    6.010916
   101  O    8.017682
   102  C    5.997743
   103  N    6.990294
   104  C    6.037119
   105  C    5.991451
   106  C    6.010917
   107  C    5.970712
   108  C    5.999510
   109  C    6.004176
   110  C    6.001245
   111  N    6.999779
   112  C    5.968737
   113  C    5.967494
   114  C    5.998224
   115  C    5.969900
   116  C    5.999664
   117  C    5.982114
   118  O    7.975300
   119  C    5.999714
   120  C    5.995063
   121  O    7.997252
   122  O    7.998051
   123  C    6.001657
   124  H    1.012678
   125  H    1.003474
   126  H    0.986813
   127  H    0.999100
   128  H    1.000951
   129  H    1.005145
   130  H    0.998786
   131  H    1.015487
   132  H    0.989929
   133  H    1.005755
   134  H    1.002952
   135  H    1.002456
   136  H    1.019178
   137  H    1.014948
   138  H    1.018236
   139  H    1.011315
   140  H    1.010169
   141  H    1.011179
   142  H    0.999852
   143  H    0.995980
   144  H    0.996801
   145  H    1.007787
   146  H    0.996637
   147  H    1.003404
   148  H    0.988517
   149  H    1.003707
   150  H    0.993698
   151  H    0.995765
   152  H    0.984978
   153  H    0.979764
   154  H    0.984237
   155  H    0.992194
   156  H    0.999288
   157  H    0.994506
   158  H    0.995264
 Sum of Mulliken charges = 624.00000

 Dipole moment (field-independent basis, Debye):
    X=              1.2191    Y=              9.7657    Z=             -3.5966  Tot=             10.4781
 Quadrupole moment (field-independent basis, Debye-Ang):
   XX=             69.6307   YY=              6.3808   ZZ=              1.4348
   XY=            299.7192   XZ=           -110.1170   YZ=             -3.7094

 Normal termination of Gaussian 16 at Fri Oct 15 19:04:22 2021.
