 Gaussian 16, Revision A.03,
 Gaussian 16:  ES64L-G16RevA.03 25-Dec-2016

 ---------------------------------------------------------
 #p PBE1PBE/Def2SVP td=(nstates=5, root=1) density=current
 ---------------------------------------------------------

 --------------------------------
 TDDFT excited states in gaussian
 --------------------------------
 Symbolic Z-matrix:
 Charge =  0 Multiplicity = 1

                         Standard orientation:
 ---------------------------------------------------------------------
 Center     Atomic      Atomic             Coordinates (Angstroms)
 Number     Number       Type             X           Y           Z
 ---------------------------------------------------------------------
      1         12           0       -0.652438    0.149752    0.261411
      2          6           0        2.808977   -0.125998    0.375593
      3          6           0       -0.801435   -3.267916   -0.004091
      4          6           0       -4.072727    0.420208   -0.117245
      5          6           0       -0.413529    3.614650   -0.035207
      6          7           0        0.843331   -1.489412    0.293544
      7          6           0        2.174035   -1.395882    0.456972
      8          6           0        2.902306   -2.747459    0.642691
      9          6           0        1.741800   -3.767956    0.274351
     10          6           0        0.476673   -2.793746    0.127209
     11          6           0        2.141089   -4.549242   -1.028004
     12          6           0        3.392834   -2.813004    2.179355
     13          6           0        4.903995   -3.104997    2.415428
     14          1           0        5.621954   -3.789098    1.196296
     15          7           0       -2.239389   -1.181781   -0.092507
     16          6           0       -2.081839   -2.583118   -0.081003
     17          6           0       -3.392404   -3.197198   -0.065249
     18          6           0       -4.340388   -2.169529   -0.148578
     19          6           0       -3.571005   -0.874799   -0.042292
     20          6           0       -3.566137   -4.707450   -0.280037
     21          6           0       -5.881660   -2.298332   -0.274208
     22          8           0       -6.677862   -1.343075   -0.338643
     23          6           0       -6.496892   -3.707988   -0.242672
     24          7           0       -1.996437    1.813933   -0.111615
     25          6           0       -3.409698    1.615860   -0.167146
     26          6           0       -4.121731    2.933381   -0.538584
     27          6           0       -2.961825    3.989406   -0.224884
     28          6           0       -1.711189    3.084967   -0.068967
     29          6           0       -4.637229    2.846344   -1.965616
     30          6           0       -3.246176    4.783603    1.119157
     31          6           0       -3.566056    4.129292    2.506292
     32          7           0        0.836615    1.486658    0.104925
     33          6           0        0.814426    2.878308   -0.029043
     34          6           0        2.155390    3.365862   -0.044638
     35          6           0        2.961169    2.258802    0.151336
     36          6           0        2.136359    1.106947    0.135225
     37          6           0        2.614897    4.789300   -0.285560
     38          6           0        4.299850    1.845452    0.302016
     39          8           0        5.276104    2.518312    0.203667
     40          6           0        4.254613    0.261686    0.335018
     41          6           0        4.933647   -0.198736   -0.925184
     42          8           0        4.346635   -0.650479   -1.886142
     43          8           0        6.245144    0.023056   -0.777527
     44          6           0        6.954333    0.055373   -2.033167
     45          1           0       -0.865462   -4.357808   -0.007381
     46          1           0       -5.102738    0.481675   -0.472805
     47          1           0       -0.320951    4.698250   -0.138848
     48          1           0        3.787722   -2.885683    0.022476
     49          1           0        1.495919   -4.484716    1.058206
     50          1           0        1.341646   -4.667625   -1.759811
     51          1           0        2.423592   -5.496463   -0.569460
     52          1           0        3.053382   -4.086120   -1.403202
     53          1           0        2.723990   -3.498406    2.699482
     54          1           0        3.170068   -1.839721    2.617302
     55          1           0        4.851980   -3.765988    3.279899
     56          1           0        5.504299   -2.236635    2.685260
     57          1           0       -4.220501   -4.832888   -1.143062
     58          1           0       -4.102352   -5.132858    0.569322
     59          1           0       -2.592397   -5.177099   -0.415686
     60          1           0       -6.261493   -4.174747   -1.200031
     61          1           0       -7.575965   -3.555133   -0.250314
     62          1           0       -6.262354   -4.186775    0.707725
     63          1           0       -4.887828    3.056062    0.227572
     64          1           0       -2.946125    4.760099   -0.994677
     65          1           0       -4.874591    1.828021   -2.273911
     66          1           0       -3.902385    3.246644   -2.663716
     67          1           0       -5.580391    3.382466   -2.069039
     68          1           0       -4.023700    5.518001    0.908645
     69          1           0       -2.289142    5.269156    1.310179
     70          1           0       -4.643251    3.974474    2.569410
     71          1           0       -3.239462    4.857657    3.249457
     72          1           0       -2.991049    3.238704    2.761913
     73          1           0        2.219991    5.482030    0.457810
     74          1           0        2.198765    5.032748   -1.262931
     75          1           0        3.683205    4.969458   -0.157762
     76          1           0        4.770623   -0.244747    1.150913
     77          1           0        7.821900    0.714825   -2.034134
     78          1           0        6.431277    0.157641   -2.983880
     79          1           0        7.415247   -0.897286   -2.295021
 ---------------------------------------------------------------------

 SCF Done:  E(RPBE1PBE) =  -2033.69166742     A.U. after   16 cycles

 Excitation energies and oscillator strengths:

 Excited State   1:      Singlet-A      1.8555 eV  668.19 nm  f=0.3763  <S**2>=0.000
     155 ->158        -0.16977
     156 ->157         0.69320
     156 <-157        -0.10777
 This state for optimization and/or second-order correction.
 Total Energy, E(TD-HF/TD-DFT) =  -2033.62347791
 Copying the excited state density for this state as the 1-particle RhoCI density.

 Excited State   2:      Singlet-A      2.2281 eV  556.47 nm  f=0.1214  <S**2>=0.000
     155 ->157         0.65666
     156 ->158         0.24644

 Excited State   3:      Singlet-A      3.0394 eV  407.93 nm  f=0.0049  <S**2>=0.000
     151 ->157         0.26933
     151 ->159        -0.10002
     152 ->157         0.44854
     153 ->157         0.41321

 Excited State   4:      Singlet-A      3.0655 eV  404.45 nm  f=0.0015  <S**2>=0.000
     152 ->157         0.11110
     154 ->157         0.67280

 Excited State   5:      Singlet-A      3.1447 eV  394.26 nm  f=0.0060  <S**2>=0.000
     151 ->157        -0.16672
     152 ->157        -0.36544
     153 ->157         0.54618
     156 ->158        -0.12016

 The electronic state is 1-A.
 Alpha  occ. eigenvalues --  -46.91471 -19.26692 -19.20176 -19.19346 -19.18995
 Alpha  occ. eigenvalues --  -14.41708 -14.40933 -14.39314 -14.38644 -10.36208
 Alpha  occ. eigenvalues --  -10.32438 -10.31739 -10.29186 -10.28498 -10.28232
 Alpha  occ. eigenvalues --  -10.28206 -10.27735 -10.27671 -10.27621 -10.27562
 Alpha  occ. eigenvalues --  -10.27371 -10.26374 -10.26333 -10.26266 -10.25662
 Alpha  occ. eigenvalues --  -10.25613 -10.25582 -10.25532 -10.25331 -10.25252
 Alpha  occ. eigenvalues --  -10.24917 -10.24723 -10.24711 -10.24282 -10.24258
 Alpha  occ. eigenvalues --  -10.24149 -10.23509 -10.23334 -10.23192 -10.23006
 Alpha  occ. eigenvalues --  -10.22917 -10.22780 -10.22136  -3.13651  -1.86493
 Alpha  occ. eigenvalues --   -1.86003  -1.85897  -1.12837  -1.06578  -1.03778
 Alpha  occ. eigenvalues --   -1.03200  -0.98680  -0.97888  -0.97286  -0.95985
 Alpha  occ. eigenvalues --   -0.87010  -0.82932  -0.82341  -0.82026  -0.81319
 Alpha  occ. eigenvalues --   -0.80808  -0.80366  -0.78183  -0.77623  -0.76531
 Alpha  occ. eigenvalues --   -0.75480  -0.75184  -0.74193  -0.72053  -0.71375
 Alpha  occ. eigenvalues --   -0.71007  -0.70093  -0.69343  -0.67343  -0.65636
 Alpha  occ. eigenvalues --   -0.63228  -0.63062  -0.62311  -0.60861  -0.60257
 Alpha  occ. eigenvalues --   -0.59064  -0.59016  -0.58385  -0.56907  -0.54440
 Alpha  occ. eigenvalues --   -0.53919  -0.53535  -0.52746  -0.52588  -0.51822
 Alpha  occ. eigenvalues --   -0.50685  -0.50296  -0.49503  -0.49025  -0.48493
 Alpha  occ. eigenvalues --   -0.47797  -0.47754  -0.47007  -0.46800  -0.46512
 Alpha  occ. eigenvalues --   -0.46371  -0.46203  -0.45558  -0.45081  -0.44427
 Alpha  occ. eigenvalues --   -0.44399  -0.44050  -0.43814  -0.43523  -0.43273
 Alpha  occ. eigenvalues --   -0.42961  -0.42594  -0.42441  -0.42169  -0.41684
 Alpha  occ. eigenvalues --   -0.41340  -0.41022  -0.40927  -0.40413  -0.40255
 Alpha  occ. eigenvalues --   -0.39741  -0.39659  -0.39497  -0.39231  -0.38941
 Alpha  occ. eigenvalues --   -0.38461  -0.38375  -0.38146  -0.37875  -0.37749
 Alpha  occ. eigenvalues --   -0.37479  -0.37243  -0.36865  -0.36623  -0.36209
 Alpha  occ. eigenvalues --   -0.35694  -0.35638  -0.35169  -0.34487  -0.34084
 Alpha  occ. eigenvalues --   -0.32669  -0.32463  -0.32075  -0.31929  -0.31533
 Alpha  occ. eigenvalues --   -0.31197  -0.29600  -0.29179  -0.28252  -0.27126
 Alpha  occ. eigenvalues --   -0.26134  -0.25576  -0.25461  -0.25157  -0.20674
 Alpha  occ. eigenvalues --   -0.18601
 Alpha virt. eigenvalues --   -0.10996  -0.04912  -0.03623  -0.01905  -0.00320
 Alpha virt. eigenvalues --    0.00557   0.01622   0.01895   0.03809   0.04653
 Alpha virt. eigenvalues --    0.05137   0.05600   0.06179   0.06322   0.07498

 Mulliken charges:
               1
     1  Mg   0.963219
     2  C   -0.029764
     3  C   -0.064781
     4  C   -0.061621
     5  C   -0.090438
     6  N   -0.380103
     7  C    0.045467
     8  C   -0.101505
     9  C   -0.147726
    10  C    0.098537
    11  C    0.017150
    12  C   -0.009661
    13  C   -0.145176
    14  H    0.043782
    15  N   -0.494800
    16  C    0.154145
    17  C   -0.183631
    18  C   -0.091323
    19  C    0.160332
    20  C    0.068697
    21  C    0.051367
    22  O   -0.259284
    23  C   -0.029001
    24  N   -0.381788
    25  C    0.046967
    26  C   -0.089622
    27  C   -0.097433
    28  C    0.120155
    29  C    0.032960
    30  C   -0.074054
    31  C   -0.071780
    32  N   -0.523100
    33  C    0.156468
    34  C   -0.193655
    35  C   -0.010048
    36  C    0.175790
    37  C    0.071986
    38  C    0.102666
    39  O   -0.180760
    40  C   -0.140899
    41  C    0.267102
    42  O   -0.243993
    43  O   -0.309730
    44  C    0.126960
    45  H   -0.004923
    46  H    0.036566
    47  H    0.006881
    48  H    0.061232
    49  H    0.050306
    50  H    0.058076
    51  H    0.040378
    52  H    0.056613
    53  H    0.039927
    54  H    0.054889
    55  H    0.062254
    56  H    0.076592
    57  H    0.053148
    58  H    0.046756
    59  H    0.046254
    60  H    0.066347
    61  H    0.046058
    62  H    0.068478
    63  H    0.050412
    64  H    0.040208
    65  H    0.055087
    66  H    0.042999
    67  H    0.044269
    68  H    0.046682
    69  H    0.035151
    70  H    0.053876
    71  H    0.044278
    72  H    0.051902
    73  H    0.040057
    74  H    0.059558
    75  H    0.059284
    76  H    0.065633
    77  H    0.060457
    78  H    0.057922
    79  H    0.028319
 Sum of Mulliken charges =  -0.00000

 Dipole moment (field-independent basis, Debye):
    X=              0.1103    Y=             -1.8613    Z=              1.5253  Tot=              2.4090
 Quadrupole moment (field-independent basis, Debye-Ang):
   XX=           -276.1060   YY=           -223.6951   ZZ=           -250.8551
   XY=            -15.8149   XZ=             -1.8497   YZ=             -5.0929

 Normal termination of Gaussian 16 at Wed Oct 13 14:13:07 2021.
