 Gaussian 16, Revision A.03,
 Gaussian 16:  ES64L-G16RevA.03 25-Dec-2016

 --------------------------------------------------------
 #p PBE1PBE/Def2SVP td=(nstates=5) density=(transition=1)
 --------------------------------------------------------

 --------------------------------
 TDDFT excited states in gaussian
 --------------------------------
 Symbolic Z-matrix:
 Charge =  0 Multiplicity = 1

                         Standard orientation:
 ---------------------------------------------------------------------
 Center     Atomic      Atomic             Coordinates (Angstroms)
 Number     Number       Type             X           Y           Z
 ---------------------------------------------------------------------
      1         12           0       -0.720818    0.040264    0.230750
      2          6           0        2.745253    0.481000    0.039047
      3          6           0       -0.282474   -3.349195    0.235909
      4          6           0       -4.007351   -0.295452    0.065856
      5          6           0       -1.040800    3.594378    0.025061
      6          7           0        1.063573   -1.267369    0.097237
      7          6           0        2.394460   -0.913206    0.095942
      8          6           0        3.268703   -2.130030    0.336762
      9          6           0        2.272174   -3.334098    0.106485
     10          6           0        0.910892   -2.571313    0.247265
     11          6           0        2.424295   -4.001229   -1.254587
     12          6           0        4.017318   -1.989765    1.712182
     13          6           0        4.767943   -3.280919    2.141371
     14          1           0        5.287687   -4.167031    1.028439
     15          7           0       -1.928000   -1.542341    0.180056
     16          6           0       -1.579186   -2.883386    0.081294
     17          6           0       -2.766446   -3.749460   -0.026014
     18          6           0       -3.857053   -2.826315   -0.033992
     19          6           0       -3.274781   -1.490445    0.063814
     20          6           0       -2.692746   -5.230212   -0.051852
     21          6           0       -5.318173   -3.179449   -0.140717
     22          8           0       -6.223020   -2.300593   -0.094146
     23          6           0       -5.771525   -4.611577   -0.227661
     24          7           0       -2.312016    1.475621    0.123765
     25          6           0       -3.566128    1.026301    0.070426
     26          6           0       -4.578093    2.234674   -0.152923
     27          6           0       -3.590130    3.529183   -0.208800
     28          6           0       -2.237320    2.839833   -0.025974
     29          6           0       -5.393384    1.967981   -1.484115
     30          6           0       -3.816753    4.580253    0.960406
     31          6           0       -4.912896    5.653815    0.703147
     32          7           0        0.507287    1.701687    0.002794
     33          6           0        0.275634    3.101833    0.049302
     34          6           0        1.611813    3.842118    0.006098
     35          6           0        2.601846    2.867861   -0.072431
     36          6           0        1.872826    1.576583    0.011232
     37          6           0        1.845321    5.318421    0.082972
     38          6           0        4.020515    2.600464   -0.111908
     39          8           0        5.003926    3.346838   -0.146898
     40          6           0        4.191977    1.021574    0.144704
     41          6           0        5.148672    0.371213   -0.828225
     42          8           0        4.828973   -0.047730   -1.907834
     43          8           0        6.395344    0.106801   -0.217408
     44          6           0        7.257603   -0.899845   -0.854509
     45          1           0        0.019477   -4.397574    0.181974
     46          1           0       -5.090883   -0.412996   -0.004181
     47          1           0       -1.066486    4.672908   -0.144543
     48          1           0        4.042823   -2.132100   -0.429539
     49          1           0        2.281802   -4.107050    0.875639
     50          1           0        2.618441   -5.053014   -1.044995
     51          1           0        3.193613   -3.470017   -1.814530
     52          1           0        1.480563   -4.080497   -1.793678
     53          1           0        3.245563   -1.528044    2.327276
     54          1           0        4.745979   -1.194160    1.560393
     55          1           0        4.029362   -3.801715    2.750839
     56          1           0        5.622483   -2.986011    2.750213
     57          1           0       -3.075274   -5.464425   -1.045140
     58          1           0       -3.245841   -5.703106    0.759225
     59          1           0       -1.718737   -5.719751   -0.014446
     60          1           0       -5.499903   -5.124249    0.694081
     61          1           0       -5.217401   -4.898183   -1.122343
     62          1           0       -6.825401   -4.774365   -0.451667
     63          1           0       -5.142283    2.179943    0.778910
     64          1           0       -3.419534    3.991120   -1.182155
     65          1           0       -5.114945    1.054928   -2.010053
     66          1           0       -5.240251    2.791150   -2.182515
     67          1           0       -6.424574    1.817183   -1.166094
     68          1           0       -2.879185    4.982904    1.342667
     69          1           0       -4.187179    4.000797    1.805429
     70          1           0       -5.613899    5.588558    1.534524
     71          1           0       -5.344485    5.477339   -0.282173
     72          1           0       -4.503904    6.664455    0.703140
     73          1           0        2.254407    5.507988    1.075588
     74          1           0        0.911754    5.857487   -0.082632
     75          1           0        2.574860    5.754476   -0.599155
     76          1           0        4.540023    0.921895    1.172414
     77          1           0        7.713976   -0.380224   -1.696596
     78          1           0        6.696153   -1.808869   -1.071206
     79          1           0        7.991285   -1.188174   -0.102205
 ---------------------------------------------------------------------

 SCF Done:  E(RPBE1PBE) =  -2033.70110462     A.U. after   15 cycles

 Excitation energies and oscillator strengths:

 Excited State   1:      Singlet-A      1.8621 eV  665.83 nm  f=0.3756  <S**2>=0.000
     155 ->158         0.19104
     156 ->157         0.68823
     156 <-157        -0.10018
 This state for optimization and/or second-order correction.
 Total Energy, E(TD-HF/TD-DFT) =  -2033.63267347
 Copying the excited state density for this state as the 1-particle RhoCI density.

 Excited State   2:      Singlet-A      2.2826 eV  543.18 nm  f=0.0467  <S**2>=0.000
     155 ->157         0.61489
     156 ->158        -0.34321

 Excited State   3:      Singlet-A      3.0559 eV  405.72 nm  f=0.0000  <S**2>=0.000
     154 ->157         0.65402
     154 ->159        -0.19320
     154 ->160        -0.15691

 Excited State   4:      Singlet-A      3.1397 eV  394.90 nm  f=0.1013  <S**2>=0.000
     151 ->157         0.14356
     152 ->157        -0.24161
     153 ->157         0.49750
     153 ->159         0.18940
     155 ->157         0.13619
     156 ->158         0.27374

 Excited State   5:      Singlet-A      3.2184 eV  385.23 nm  f=0.3266  <S**2>=0.000
     152 ->157         0.12245
     153 ->157        -0.26586
     155 ->157         0.26354
     155 ->160        -0.10074
     156 ->158         0.47853
     156 ->159         0.26956
     156 ->160        -0.11772

 The electronic state is 1-A.
 Alpha  occ. eigenvalues --  -46.91500 -19.24637 -19.20469 -19.19418 -19.18594
 Alpha  occ. eigenvalues --  -14.41604 -14.41141 -14.39652 -14.39523 -10.36415
 Alpha  occ. eigenvalues --  -10.32689 -10.32338 -10.28972 -10.28772 -10.28590
 Alpha  occ. eigenvalues --  -10.28457 -10.28085 -10.28076 -10.27916 -10.27757
 Alpha  occ. eigenvalues --  -10.27290 -10.27144 -10.26857 -10.26769 -10.26179
 Alpha  occ. eigenvalues --  -10.26175 -10.26114 -10.25950 -10.25596 -10.25514
 Alpha  occ. eigenvalues --  -10.25236 -10.24961 -10.24784 -10.24475 -10.24354
 Alpha  occ. eigenvalues --  -10.24137 -10.23769 -10.23679 -10.23650 -10.23240
 Alpha  occ. eigenvalues --  -10.23081 -10.22891 -10.22849  -3.13758  -1.86606
 Alpha  occ. eigenvalues --   -1.86119  -1.86013  -1.10195  -1.03855  -1.02602
 Alpha  occ. eigenvalues --   -1.02455  -0.98930  -0.98104  -0.97453  -0.96080
 Alpha  occ. eigenvalues --   -0.85958  -0.83164  -0.82836  -0.82106  -0.81872
 Alpha  occ. eigenvalues --   -0.81052  -0.80666  -0.78512  -0.77242  -0.76330
 Alpha  occ. eigenvalues --   -0.76180  -0.75053  -0.74339  -0.73216  -0.71769
 Alpha  occ. eigenvalues --   -0.71281  -0.70085  -0.68913  -0.66533  -0.65916
 Alpha  occ. eigenvalues --   -0.63720  -0.62986  -0.62781  -0.61492  -0.59940
 Alpha  occ. eigenvalues --   -0.59656  -0.58472  -0.58294  -0.55855  -0.55196
 Alpha  occ. eigenvalues --   -0.54071  -0.53267  -0.52206  -0.52185  -0.51362
 Alpha  occ. eigenvalues --   -0.50756  -0.50317  -0.49165  -0.48746  -0.48475
 Alpha  occ. eigenvalues --   -0.47974  -0.47855  -0.47148  -0.46787  -0.46511
 Alpha  occ. eigenvalues --   -0.46353  -0.45982  -0.45744  -0.45352  -0.45045
 Alpha  occ. eigenvalues --   -0.44596  -0.44100  -0.44044  -0.43891  -0.43646
 Alpha  occ. eigenvalues --   -0.43524  -0.43169  -0.42791  -0.42704  -0.42026
 Alpha  occ. eigenvalues --   -0.41535  -0.40932  -0.40775  -0.40469  -0.40331
 Alpha  occ. eigenvalues --   -0.39984  -0.39867  -0.39663  -0.39437  -0.38982
 Alpha  occ. eigenvalues --   -0.38818  -0.38311  -0.37985  -0.37835  -0.37733
 Alpha  occ. eigenvalues --   -0.37483  -0.37178  -0.37036  -0.36275  -0.36076
 Alpha  occ. eigenvalues --   -0.35762  -0.35285  -0.35078  -0.34138  -0.34059
 Alpha  occ. eigenvalues --   -0.33472  -0.33250  -0.33005  -0.31760  -0.31201
 Alpha  occ. eigenvalues --   -0.30935  -0.29395  -0.29367  -0.28696  -0.26842
 Alpha  occ. eigenvalues --   -0.26394  -0.25767  -0.25599  -0.25199  -0.20892
 Alpha  occ. eigenvalues --   -0.18165
 Alpha virt. eigenvalues --   -0.10483  -0.05544  -0.04410  -0.02197  -0.00197
 Alpha virt. eigenvalues --    0.00603   0.01089   0.01718   0.03043   0.03890
 Alpha virt. eigenvalues --    0.04894   0.05415   0.06011   0.06440   0.06863

 Mulliken charges:
               1
     1  Mg  12.001534
     2  C    6.022116
     3  C    5.992505
     4  C    5.979059
     5  C    6.008802
     6  N    7.010887
     7  C    5.965397
     8  C    6.006459
     9  C    5.991892
    10  C    6.029004
    11  C    5.998216
    12  C    6.003122
    13  C    5.999688
    14  H    0.995290
    15  N    6.995921
    16  C    6.033761
    17  C    6.024243
    18  C    6.014504
    19  C    6.025254
    20  C    5.995276
    21  C    6.012454
    22  O    8.030568
    23  C    5.997480
    24  N    6.996678
    25  C    6.028869
    26  C    5.994865
    27  C    6.008819
    28  C    5.966826
    29  C    5.997518
    30  C    6.006729
    31  C    5.998294
    32  N    7.000813
    33  C    5.965780
    34  C    5.969180
    35  C    5.996529
    36  C    5.975884
    37  C    6.003969
    38  C    5.981739
    39  O    7.969935
    40  C    5.997790
    41  C    5.998468
    42  O    7.992225
    43  O    7.999407
    44  C    6.001731
    45  H    1.012528
    46  H    1.004554
    47  H    0.991170
    48  H    1.000461
    49  H    1.000312
    50  H    1.003404
    51  H    1.014096
    52  H    0.994874
    53  H    0.997940
    54  H    1.006670
    55  H    0.993665
    56  H    1.001436
    57  H    1.016815
    58  H    1.018235
    59  H    1.017251
    60  H    1.006872
    61  H    1.004108
    62  H    1.014047
    63  H    0.997134
    64  H    1.000504
    65  H    0.993715
    66  H    1.009071
    67  H    0.998770
    68  H    1.004554
    69  H    0.990888
    70  H    0.994949
    71  H    0.995473
    72  H    1.000427
    73  H    0.981535
    74  H    0.983801
    75  H    0.982486
    76  H    0.994033
    77  H    0.998697
    78  H    0.993755
    79  H    0.996292
 Sum of Mulliken charges = 312.00000

 Dipole moment (field-independent basis, Debye):
    X=             -6.1211    Y=             -8.3005    Z=             -0.0673  Tot=             10.3136
 Quadrupole moment (field-independent basis, Debye-Ang):
   XX=              4.8881   YY=             -0.6527   ZZ=             -0.1654
   XY=              7.1814   XZ=              0.7622   YZ=              0.0849

 Normal termination of Gaussian 16 at Wed Oct 13 19:24:28 2021.
