 Gaussian 16, Revision A.03,
 Gaussian 16:  ES64L-G16RevA.03 25-Dec-2016

 --------------------------------------------------------
 #p PBE1PBE/Def2SVP td=(nstates=5) density=(transition=1)
 --------------------------------------------------------

 --------------------------------
 TDDFT excited states in gaussian
 --------------------------------
 Symbolic Z-matrix:
 Charge =  0 Multiplicity = 1

                         Standard orientation:
 ---------------------------------------------------------------------
 Center     Atomic      Atomic             Coordinates (Angstroms)
 Number     Number       Type             X           Y           Z
 ---------------------------------------------------------------------
      1         12           0       20.449351    0.032989    0.522590
      2          6           0       17.891221   -1.231542   -1.464959
      3          6           0       20.752117    2.679796   -1.632779
      4          6           0       23.154861    1.048256    2.329155
      5          6           0       20.121669   -2.923269    2.468479
      6          7           0       19.467987    0.632999   -1.344297
      7          6           0       18.371953    0.007614   -1.877573
      8          6           0       17.919420    0.863089   -3.063476
      9          6           0       19.009018    1.901534   -3.262680
     10          6           0       19.783500    1.748445   -1.958566
     11          6           0       19.880351    1.848586   -4.488836
     12          6           0       16.438548    1.465922   -2.954597
     13          6           0       16.046662    2.513260   -4.045998
     14          1           0       15.364504    2.010753   -5.345311
     15          7           0       21.657052    1.718355    0.434108
     16          6           0       21.650730    2.669240   -0.533012
     17          6           0       22.723612    3.578398   -0.224107
     18          6           0       23.417749    3.092747    0.922858
     19          6           0       22.782226    1.902483    1.271758
     20          6           0       22.960808    4.787842   -1.074849
     21          6           0       24.720403    3.687562    1.532732
     22          8           0       25.435109    3.039369    2.276110
     23          6           0       25.249833    4.994866    1.179837
     24          7           0       21.410461   -0.782185    2.069552
     25          6           0       22.490656   -0.177458    2.711591
     26          6           0       22.983227   -0.985903    3.924440
     27          6           0       21.839237   -2.044355    4.083108
     28          6           0       21.042847   -1.869231    2.800547
     29          6           0       24.392931   -1.411727    3.906802
     30          6           0       20.922481   -2.033747    5.428311
     31          6           0       20.859821   -3.263624    6.338984
     32          7           0       19.265023   -1.816056    0.501748
     33          6           0       19.283349   -2.888761    1.348390
     34          6           0       18.317229   -3.863131    0.967096
     35          6           0       17.654695   -3.209498   -0.141180
     36          6           0       18.346698   -1.998901   -0.425347
     37          6           0       18.076940   -5.130794    1.694664
     38          6           0       16.531407   -3.318648   -1.043357
     39          8           0       15.619176   -4.112336   -1.165847
     40          6           0       16.668054   -1.977447   -1.977332
     41          6           0       16.619920   -2.313530   -3.423199
     42          8           0       17.480318   -2.945506   -3.995956
     43          8           0       15.522834   -1.826597   -4.029121
     44          6           0       15.485753   -1.880367   -5.541037
     45          1           0       20.817736    3.552862   -2.285814
     46          1           0       24.028190    1.392527    2.886724
     47          1           0       20.160947   -3.735905    3.197108
     48          1           0       17.934096    0.109782   -3.851018
     49          1           0       18.554989    2.889450   -3.335882
     50          1           0       20.800124    1.487008   -4.030103
     51          1           0       19.956613    2.812438   -4.992306
     52          1           0       19.579992    1.059790   -5.178871
     53          1           0       16.469404    1.939665   -1.973187
     54          1           0       15.708479    0.657635   -2.974170
     55          1           0       16.916801    3.055103   -4.414499
     56          1           0       15.392125    3.249858   -3.580071
     57          1           0       22.252275    5.003888   -1.875085
     58          1           0       23.900757    4.599354   -1.592513
     59          1           0       23.126033    5.694585   -0.492605
     60          1           0       25.341129    5.282480    0.132943
     61          1           0       26.198132    5.258671    1.647881
     62          1           0       24.549159    5.661696    1.681888
     63          1           0       22.845262   -0.208313    4.676216
     64          1           0       22.429164   -2.949875    3.942171
     65          1           0       25.044892   -0.997278    4.676223
     66          1           0       24.804232   -1.137042    2.935120
     67          1           0       24.535620   -2.483921    4.040905
     68          1           0       19.896890   -1.832315    5.119561
     69          1           0       21.109717   -1.244578    6.157486
     70          1           0       19.948752   -3.855778    6.249051
     71          1           0       21.126493   -3.077592    7.378972
     72          1           0       21.603420   -3.972632    5.974761
     73          1           0       19.040509   -5.588838    1.916641
     74          1           0       17.409918   -5.804394    1.157332
     75          1           0       17.757270   -4.867588    2.703461
     76          1           0       15.775461   -1.389306   -1.766570
     77          1           0       14.418544   -1.791231   -5.742812
     78          1           0       15.902187   -2.833695   -5.865754
     79          1           0       16.013865   -0.995580   -5.896797
     80         12           0      -20.435145   -0.172247    0.079342
     81          6           0      -18.200434    2.442906    0.049208
     82          6           0      -18.190009   -2.247849   -1.462944
     83          6           0      -22.657999   -2.870752    0.299347
     84          6           0      -22.415277    1.518364    2.348069
     85          7           0      -18.339017    0.091645   -0.408402
     86          6           0      -17.629080    1.290050   -0.521994
     87          6           0      -16.212822    1.053507   -1.052591
     88          6           0      -16.397570   -0.367760   -1.642410
     89          6           0      -17.707528   -0.952023   -1.075160
     90          6           0      -16.264730   -0.407622   -3.180542
     91          6           0      -15.150534    1.136465    0.061420
     92          6           0      -13.819213    1.888268   -0.285161
     93          1           0      -12.599549    1.403799    0.396480
     94          7           0      -20.429284   -2.201354   -0.541456
     95          6           0      -19.459398   -2.839956   -1.235235
     96          6           0      -19.880149   -4.111516   -1.742692
     97          6           0      -21.223906   -4.269050   -1.365447
     98          6           0      -21.518190   -3.051104   -0.502351
     99          6           0      -19.037210   -4.997074   -2.662620
    100          6           0      -22.169303   -5.477728   -1.705407
    101          8           0      -21.681758   -6.465155   -2.312852
    102          6           0      -23.729019   -5.491365   -1.400895
    103          7           0      -22.125977   -0.725965    1.406471
    104          6           0      -22.922603   -1.798833    1.180530
    105          6           0      -24.217005   -1.742090    1.950497
    106          6           0      -24.145640   -0.370050    2.654906
    107          6           0      -22.846797    0.207215    2.086437
    108          6           0      -25.501034   -1.983192    1.089346
    109          6           0      -24.256420   -0.470848    4.250599
    110          6           0      -25.607400   -0.031765    4.827133
    111          7           0      -20.394506    1.629624    0.985045
    112          6           0      -21.285516    2.249917    1.888317
    113          6           0      -20.919282    3.664836    2.034669
    114          6           0      -19.767685    3.773378    1.267606
    115          6           0      -19.452792    2.494774    0.778832
    116          6           0      -21.566237    4.746364    2.823583
    117          6           0      -18.724088    4.716660    0.841444
    118          8           0      -18.657986    5.955854    0.893205
    119          6           0      -17.676671    3.895339   -0.012278
    120          6           0      -17.591134    4.419272   -1.439542
    121          8           0      -18.524996    4.716377   -2.191216
    122          8           0      -16.250293    4.544114   -1.651782
    123          6           0      -15.846736    5.196911   -2.885936
    124          1           0      -17.485208   -2.917722   -1.959731
    125          1           0      -23.466079   -3.601527    0.373775
    126          1           0      -23.002074    2.111579    3.052255
    127          1           0      -15.970327    1.812738   -1.796883
    128          1           0      -15.553937   -0.919973   -1.228466
    129          1           0      -15.737196    0.395451   -3.695165
    130          1           0      -17.283802   -0.342707   -3.561533
    131          1           0      -15.791325   -1.325028   -3.529547
    132          1           0      -14.909173    0.163965    0.489617
    133          1           0      -15.669028    1.588038    0.907545
    134          1           0      -13.941067    2.946533   -0.054394
    135          1           0      -13.613980    1.751904   -1.347864
    136          1           0      -19.641098   -5.145647   -3.557513
    137          1           0      -18.660054   -5.853523   -2.103603
    138          1           0      -18.205808   -4.359118   -2.962291
    139          1           0      -23.830694   -5.825062   -0.368890
    140          1           0      -24.161706   -6.230595   -2.074600
    141          1           0      -24.112692   -4.527384   -1.736110
    142          1           0      -24.198748   -2.538592    2.694485
    143          1           0      -24.843756    0.390743    2.306507
    144          1           0      -26.277931   -1.253104    1.314616
    145          1           0      -25.926687   -2.975173    1.239552
    146          1           0      -25.226657   -1.980952    0.035254
    147          1           0      -23.541124    0.175203    4.759424
    148          1           0      -23.991764   -1.475560    4.579980
    149          1           0      -25.886330   -0.689725    5.650359
    150          1           0      -26.372365   -0.085410    4.052804
    151          1           0      -25.617488    0.992288    5.199929
    152          1           0      -22.489295    4.339903    3.236978
    153          1           0      -21.579447    5.671002    2.246208
    154          1           0      -20.935685    4.891424    3.701429
    155          1           0      -16.686782    3.882407    0.444628
    156          1           0      -16.399471    4.862106   -3.764631
    157          1           0      -14.790318    5.148926   -3.150026
    158          1           0      -16.009986    6.271664   -2.802205
 ---------------------------------------------------------------------

 SCF Done:  E(RPBE1PBE) =  -4067.39773796     A.U. after   16 cycles

 Excitation energies and oscillator strengths:

 Excited State   1:      Singlet-A      1.8386 eV  674.35 nm  f=0.3416  <S**2>=0.000
     310 -> 315        0.16802
     312 -> 314        0.69257
     312 <- 314       -0.10465
 This state for optimization and/or second-order correction.
 Total Energy, E(TD-HF/TD-DFT) =  -4067.33017114
 Copying the excited state density for this state as the 1-particle RhoCI density.

 Excited State   2:      Singlet-A      1.8570 eV  667.66 nm  f=0.3922  <S**2>=0.000
     309 -> 316       -0.17290
     311 -> 313        0.69292
     311 <- 313       -0.11170

 Excited State   3:      Singlet-A      1.9492 eV  636.09 nm  f=0.0000  <S**2>=0.000
     312 -> 313        0.70711

 Excited State   4:      Singlet-A      1.9963 eV  621.08 nm  f=0.0000  <S**2>=0.000
     311 -> 314        0.70711

 Excited State   5:      Singlet-A      2.2290 eV  556.23 nm  f=0.0894  <S**2>=0.000
     309 -> 313        0.64384
     311 -> 316        0.27278

 The electronic state is 1-A.
 Alpha  occ. eigenvalues --  -46.92571 -46.91271 -19.27072 -19.25069 -19.20574
 Alpha  occ. eigenvalues --  -19.19689 -19.19281 -19.18931 -19.18905 -19.18482
 Alpha  occ. eigenvalues --  -14.42223 -14.41990 -14.41632 -14.41551 -14.39713
 Alpha  occ. eigenvalues --  -14.38879 -14.38734 -14.38107 -10.37045 -10.34959
 Alpha  occ. eigenvalues --  -10.33688 -10.32696 -10.32110 -10.31816 -10.29712
 Alpha  occ. eigenvalues --  -10.29364 -10.29337 -10.29301 -10.29005 -10.29002
 Alpha  occ. eigenvalues --  -10.28934 -10.28854 -10.28720 -10.28469 -10.28097
 Alpha  occ. eigenvalues --  -10.27797 -10.27712 -10.27449 -10.27327 -10.27138
 Alpha  occ. eigenvalues --  -10.26744 -10.26369 -10.26340 -10.25995 -10.25961
 Alpha  occ. eigenvalues --  -10.25947 -10.25946 -10.25924 -10.25854 -10.25809
 Alpha  occ. eigenvalues --  -10.25801 -10.25763 -10.25744 -10.25717 -10.25698
 Alpha  occ. eigenvalues --  -10.25441 -10.25339 -10.25333 -10.25244 -10.25137
 Alpha  occ. eigenvalues --  -10.25018 -10.24921 -10.24803 -10.24772 -10.24727
 Alpha  occ. eigenvalues --  -10.24717 -10.24702 -10.24674 -10.24629 -10.24607
 Alpha  occ. eigenvalues --  -10.24517 -10.24512 -10.24359 -10.24209 -10.24180
 Alpha  occ. eigenvalues --  -10.23699 -10.23582 -10.23513 -10.23448 -10.23419
 Alpha  occ. eigenvalues --  -10.23232 -10.23207 -10.23044 -10.23034 -10.22956
 Alpha  occ. eigenvalues --  -10.22601  -3.14682  -3.13508  -1.87488  -1.87043
 Alpha  occ. eigenvalues --   -1.86935  -1.86366  -1.85885  -1.85734  -1.11682
 Alpha  occ. eigenvalues --   -1.10619  -1.05699  -1.04281  -1.03251  -1.03125
 Alpha  occ. eigenvalues --   -1.02666  -1.01557  -0.99862  -0.99417  -0.98806
 Alpha  occ. eigenvalues --   -0.98727  -0.98010  -0.97952  -0.97005  -0.96735
 Alpha  occ. eigenvalues --   -0.86808  -0.85869  -0.83486  -0.83170  -0.83093
 Alpha  occ. eigenvalues --   -0.83029  -0.82962  -0.82653  -0.81887  -0.81766
 Alpha  occ. eigenvalues --   -0.81261  -0.81247  -0.81001  -0.80574  -0.78910
 Alpha  occ. eigenvalues --   -0.78568  -0.78215  -0.78001  -0.76800  -0.76784
 Alpha  occ. eigenvalues --   -0.76716  -0.75783  -0.75720  -0.75311  -0.75104
 Alpha  occ. eigenvalues --   -0.74518  -0.73134  -0.72325  -0.72123  -0.71720
 Alpha  occ. eigenvalues --   -0.71579  -0.70975  -0.70237  -0.70212  -0.69608
 Alpha  occ. eigenvalues --   -0.69528  -0.67243  -0.67200  -0.66277  -0.66142
 Alpha  occ. eigenvalues --   -0.63685  -0.63537  -0.63363  -0.63275  -0.62728
 Alpha  occ. eigenvalues --   -0.62337  -0.61565  -0.61353  -0.60567  -0.60100
 Alpha  occ. eigenvalues --   -0.59918  -0.59667  -0.59424  -0.59123  -0.59119
 Alpha  occ. eigenvalues --   -0.58762  -0.57331  -0.56010  -0.55075  -0.54489
 Alpha  occ. eigenvalues --   -0.54291  -0.54180  -0.53598  -0.53544  -0.53452
 Alpha  occ. eigenvalues --   -0.53194  -0.52579  -0.52340  -0.51763  -0.51701
 Alpha  occ. eigenvalues --   -0.50979  -0.50499  -0.50415  -0.50334  -0.49805
 Alpha  occ. eigenvalues --   -0.49769  -0.49572  -0.49361  -0.49090  -0.48409
 Alpha  occ. eigenvalues --   -0.48404  -0.47945  -0.47843  -0.47796  -0.47371
 Alpha  occ. eigenvalues --   -0.47273  -0.47139  -0.46968  -0.46910  -0.46741
 Alpha  occ. eigenvalues --   -0.46596  -0.46136  -0.45897  -0.45884  -0.45738
 Alpha  occ. eigenvalues --   -0.45616  -0.45550  -0.45464  -0.45440  -0.45075
 Alpha  occ. eigenvalues --   -0.44815  -0.44581  -0.44565  -0.44106  -0.44061
 Alpha  occ. eigenvalues --   -0.43964  -0.43946  -0.43701  -0.43674  -0.43607
 Alpha  occ. eigenvalues --   -0.43228  -0.43202  -0.42865  -0.42850  -0.42760
 Alpha  occ. eigenvalues --   -0.42502  -0.42418  -0.42236  -0.42147  -0.42108
 Alpha  occ. eigenvalues --   -0.41982  -0.41812  -0.41591  -0.41502  -0.41351
 Alpha  occ. eigenvalues --   -0.41291  -0.41224  -0.41149  -0.40985  -0.40795
 Alpha  occ. eigenvalues --   -0.40691  -0.40380  -0.40064  -0.39913  -0.39837
 Alpha  occ. eigenvalues --   -0.39581  -0.39531  -0.39245  -0.39185  -0.39055
 Alpha  occ. eigenvalues --   -0.38875  -0.38738  -0.38678  -0.38564  -0.38531
 Alpha  occ. eigenvalues --   -0.38288  -0.38171  -0.38078  -0.37712  -0.37678
 Alpha  occ. eigenvalues --   -0.37553  -0.37317  -0.37126  -0.36984  -0.36777
 Alpha  occ. eigenvalues --   -0.36755  -0.36650  -0.36496  -0.36337  -0.36146
 Alpha  occ. eigenvalues --   -0.36073  -0.35820  -0.35749  -0.35540  -0.35299
 Alpha  occ. eigenvalues --   -0.35092  -0.34665  -0.34467  -0.34237  -0.34215
 Alpha  occ. eigenvalues --   -0.33762  -0.33645  -0.33363  -0.33106  -0.32738
 Alpha  occ. eigenvalues --   -0.32375  -0.32308  -0.31926  -0.31916  -0.31464
 Alpha  occ. eigenvalues --   -0.31350  -0.30998  -0.30045  -0.29750  -0.29491
 Alpha  occ. eigenvalues --   -0.29259  -0.28663  -0.27891  -0.26951  -0.26620
 Alpha  occ. eigenvalues --   -0.26251  -0.26066  -0.25765  -0.25606  -0.25396
 Alpha  occ. eigenvalues --   -0.25352  -0.25203  -0.24683  -0.21125  -0.21080
 Alpha  occ. eigenvalues --   -0.18777  -0.18722
 Alpha virt. eigenvalues --   -0.11237  -0.11118  -0.05528  -0.05378  -0.03988
 Alpha virt. eigenvalues --   -0.03598  -0.02490  -0.01727  -0.01111   0.00238
 Alpha virt. eigenvalues --    0.00551   0.00698   0.00802   0.01339   0.01685

 Mulliken charges:
               1
     1  Mg  11.999912
     2  C    5.999643
     3  C    6.000309
     4  C    6.000386
     5  C    5.999816
     6  N    6.999934
     7  C    6.000670
     8  C    5.999893
     9  C    6.000097
    10  C    5.999461
    11  C    6.000022
    12  C    5.999919
    13  C    6.000024
    14  H    1.000021
    15  N    7.000094
    16  C    5.999316
    17  C    5.999407
    18  C    5.999841
    19  C    5.999282
    20  C    6.000158
    21  C    5.999746
    22  O    7.999567
    23  C    6.000168
    24  N    7.000081
    25  C    5.999188
    26  C    6.000164
    27  C    5.999755
    28  C    6.000664
    29  C    6.000039
    30  C    5.999943
    31  C    5.999976
    32  N    7.000017
    33  C    6.000537
    34  C    6.000641
    35  C    6.000075
    36  C    6.000514
    37  C    5.999913
    38  C    6.000358
    39  O    8.000678
    40  C    6.000028
    41  C    6.000079
    42  O    8.000122
    43  O    8.000013
    44  C    5.999971
    45  H    0.999816
    46  H    0.999804
    47  H    1.000228
    48  H    1.000010
    49  H    0.999980
    50  H    1.000097
    51  H    0.999976
    52  H    0.999802
    53  H    1.000082
    54  H    0.999909
    55  H    1.000114
    56  H    0.999993
    57  H    0.999599
    58  H    0.999580
    59  H    0.999577
    60  H    0.999903
    61  H    0.999721
    62  H    0.999824
    63  H    0.999988
    64  H    1.000050
    65  H    0.999951
    66  H    1.000075
    67  H    0.999786
    68  H    0.999930
    69  H    1.000188
    70  H    0.999939
    71  H    1.000087
    72  H    1.000060
    73  H    1.000372
    74  H    1.000312
    75  H    1.000402
    76  H    1.000129
    77  H    1.000100
    78  H    1.000078
    79  H    1.000097
    80  Mg  12.001015
    81  C    5.973041
    82  C    6.009279
    83  C    6.024386
    84  C    6.000591
    85  N    6.984174
    86  C    6.034559
    87  C    5.992615
    88  C    6.008401
    89  C    5.969663
    90  C    6.002938
    91  C    6.000406
    92  C    5.998652
    93  H    1.003703
    94  N    7.004378
    95  C    5.967259
    96  C    5.979717
    97  C    5.987912
    98  C    5.962597
    99  C    6.001732
   100  C    5.988980
   101  O    7.979192
   102  C    5.997978
   103  N    7.006974
   104  C    5.965126
   105  C    6.010690
   106  C    5.992274
   107  C    6.031630
   108  C    6.000637
   109  C    5.996902
   110  C    5.999437
   111  N    7.000022
   112  C    6.035632
   113  C    6.024034
   114  C    6.003116
   115  C    6.026493
   116  C    5.998226
   117  C    6.017425
   118  O    8.030219
   119  C    6.000508
   120  C    6.005740
   121  O    8.001915
   122  O    8.001782
   123  C    5.998386
   124  H    0.989707
   125  H    0.994666
   126  H    1.012727
   127  H    0.998187
   128  H    0.995004
   129  H    0.987297
   130  H    0.999251
   131  H    1.000789
   132  H    1.008317
   133  H    0.992704
   134  H    0.995275
   135  H    1.003857
   136  H    0.986323
   137  H    0.983835
   138  H    0.985164
   139  H    0.990102
   140  H    0.989427
   141  H    0.991743
   142  H    0.999263
   143  H    0.997528
   144  H    0.990458
   145  H    1.002388
   146  H    1.003432
   147  H    0.996874
   148  H    1.011010
   149  H    1.005263
   150  H    1.005253
   151  H    0.997988
   152  H    1.014721
   153  H    1.015008
   154  H    1.018338
   155  H    1.007386
   156  H    1.004857
   157  H    1.005083
   158  H    1.000438
 Sum of Mulliken charges = 624.00000

 Dipole moment (field-independent basis, Debye):
    X=             -0.5236    Y=              8.9658    Z=              4.1634  Tot=              9.8992
 Quadrupole moment (field-independent basis, Debye-Ang):
   XX=             10.4520   YY=             -3.4371   ZZ=              2.5503
   XY=           -189.7449   XZ=            -87.5288   YZ=             -2.0449

 Normal termination of Gaussian 16 at Fri Oct 15 06:21:53 2021.
