 Gaussian 16, Revision A.03,
 Gaussian 16:  ES64L-G16RevA.03 25-Dec-2016

 --------------------------------------------------------
 #p PBE1PBE/Def2SVP td=(nstates=5) density=(transition=1)
 --------------------------------------------------------

 --------------------------------
 TDDFT excited states in gaussian
 --------------------------------
 Symbolic Z-matrix:
 Charge =  0 Multiplicity = 1

                         Standard orientation:
 ---------------------------------------------------------------------
 Center     Atomic      Atomic             Coordinates (Angstroms)
 Number     Number       Type             X           Y           Z
 ---------------------------------------------------------------------
      1         12           0      -29.270518    0.380937    0.480212
      2          6           0      -27.909974   -2.084460   -1.594318
      3          6           0      -29.580958    2.331233   -2.372500
      4          6           0      -30.131279    2.826208    2.442611
      5          6           0      -28.629554   -1.731508    3.249764
      6          7           0      -28.414398    0.294452   -1.717614
      7          6           0      -28.068252   -0.851748   -2.312450
      8          6           0      -27.916919   -0.578775   -3.771640
      9          6           0      -28.035756    0.959012   -3.908241
     10          6           0      -28.751265    1.245894   -2.603040
     11          6           0      -26.777586    1.805968   -4.107334
     12          6           0      -28.997152   -1.322435   -4.619535
     13          6           0      -28.544867   -2.150404   -5.865523
     14          1           0      -27.271823   -1.707577   -6.652075
     15          7           0      -29.940287    2.310311    0.064660
     16          6           0      -30.158905    2.821524   -1.207751
     17          6           0      -30.750881    4.107673   -1.031784
     18          6           0      -30.813731    4.355173    0.398020
     19          6           0      -30.304055    3.160438    1.054314
     20          6           0      -31.106685    5.074938   -2.181958
     21          6           0      -31.252717    5.632850    1.169615
     22          8           0      -31.248224    5.739288    2.354969
     23          6           0      -31.775222    6.774504    0.319909
     24          7           0      -29.365266    0.483622    2.536714
     25          6           0      -29.697403    1.655521    3.122989
     26          6           0      -29.712165    1.601903    4.675561
     27          6           0      -29.487072    0.044430    4.895859
     28          6           0      -29.164757   -0.471049    3.498277
     29          6           0      -28.565510    2.589033    5.297968
     30          6           0      -30.655050   -0.657852    5.657063
     31          6           0      -31.696617   -1.395168    4.834597
     32          7           0      -28.473648   -1.558416    0.842624
     33          6           0      -28.364925   -2.297970    1.989269
     34          6           0      -27.805681   -3.646905    1.624655
     35          6           0      -27.622262   -3.584351    0.224778
     36          6           0      -28.000228   -2.277604   -0.229715
     37          6           0      -27.355369   -4.740153    2.555151
     38          6           0      -27.168380   -4.325919   -0.949160
     39          8           0      -26.719418   -5.474805   -0.994640
     40          6           0      -27.495874   -3.440060   -2.147516
     41          6           0      -26.235612   -3.375863   -2.961941
     42          8           0      -25.267289   -2.685091   -2.702719
     43          8           0      -26.338781   -4.340243   -3.861584
     44          6           0      -25.126364   -4.797101   -4.522537
     45          1           0      -29.548238    2.998426   -3.235809
     46          1           0      -30.586018    3.566099    3.104127
     47          1           0      -28.446500   -2.387793    4.103496
     48          1           0      -26.939472   -0.937824   -4.092226
     49          1           0      -28.623317    1.134541   -4.809481
     50          1           0      -25.835920    1.262866   -4.189326
     51          1           0      -26.674669    2.524719   -3.293893
     52          1           0      -26.933433    2.361075   -5.032093
     53          1           0      -29.833848   -0.688023   -4.911299
     54          1           0      -29.381723   -1.994779   -3.852744
     55          1           0      -29.403297   -2.085127   -6.535248
     56          1           0      -28.401928   -3.186474   -5.559618
     57          1           0      -30.674255    6.067965   -2.059084
     58          1           0      -32.172184    5.302667   -2.216489
     59          1           0      -30.844613    4.710609   -3.176157
     60          1           0      -32.551851    6.461208   -0.378104
     61          1           0      -30.923790    7.238974   -0.177672
     62          1           0      -32.113998    7.593907    0.953845
     63          1           0      -30.667535    1.915664    5.095825
     64          1           0      -28.640067   -0.176635    5.545177
     65          1           0      -27.806294    1.908567    5.683764
     66          1           0      -28.892303    3.127828    6.187631
     67          1           0      -28.057352    3.204949    4.555136
     68          1           0      -31.212016    0.170376    6.095383
     69          1           0      -30.301974   -1.298057    6.465246
     70          1           0      -31.899834   -0.719833    4.002604
     71          1           0      -32.514123   -1.472456    5.551022
     72          1           0      -31.455571   -2.336343    4.341111
     73          1           0      -27.357396   -4.547950    3.628113
     74          1           0      -26.329390   -5.016456    2.311583
     75          1           0      -27.961463   -5.605027    2.287288
     76          1           0      -28.197930   -3.874973   -2.859174
     77          1           0      -24.155242   -4.417959   -4.205910
     78          1           0      -25.254491   -4.418316   -5.537007
     79          1           0      -25.264579   -5.842643   -4.798199
     80         12           0       29.071317    0.500740   -0.569291
     81          6           0       27.699720   -2.363246    0.837602
     82          6           0       26.128158    2.260559    0.324807
     83          6           0       30.717864    3.396790   -0.826065
     84          6           0       32.144183   -1.217003   -0.757744
     85          7           0       27.221287    0.047368    0.817770
     86          6           0       26.829751   -1.255758    1.009856
     87          6           0       25.451671   -1.335335    1.587903
     88          6           0       24.854579    0.091299    1.187183
     89          6           0       26.129434    0.905156    0.767467
     90          6           0       23.729575    0.086179    0.033487
     91          6           0       25.512512   -1.727850    3.153046
     92          6           0       24.331433   -2.388480    3.657858
     93          1           0       23.704278   -1.685366    4.880321
     94          7           0       28.492000    2.533318   -0.474839
     95          6           0       27.223999    3.055042   -0.094052
     96          6           0       27.290250    4.501089   -0.221522
     97          6           0       28.609614    4.872194   -0.577815
     98          6           0       29.329964    3.563294   -0.728123
     99          6           0       26.155635    5.377069    0.159816
    100          6           0       29.112875    6.370686   -0.706604
    101          8           0       28.284085    7.255330   -0.498036
    102          6           0       30.444101    6.723281   -1.361271
    103          7           0       31.132600    0.962932   -0.659374
    104          6           0       31.505210    2.248195   -0.885472
    105          6           0       33.146016    2.436894   -0.945290
    106          6           0       33.585929    0.907334   -1.141548
    107          6           0       32.257118    0.132379   -0.873450
    108          6           0       33.692542    3.328349   -2.123952
    109          6           0       34.692680    0.471837   -0.179326
    110          6           0       36.040373   -0.069934   -0.713219
    111          7           0       29.712278   -1.449114   -0.343296
    112          6           0       30.957512   -1.988070   -0.489284
    113          6           0       30.872848   -3.414611   -0.338760
    114          6           0       29.565307   -3.577859    0.255854
    115          6           0       28.942131   -2.318262    0.255165
    116          6           0       32.002800   -4.395137   -0.465364
    117          6           0       28.700693   -4.545386    0.898630
    118          8           0       28.791437   -5.733807    0.960353
    119          6           0       27.354643   -3.817750    1.285892
    120          6           0       26.108760   -4.313198    0.518988
    121          8           0       26.044213   -4.434544   -0.685451
    122          8           0       25.108667   -4.693292    1.437629
    123          6           0       23.950078   -5.339403    0.898947
    124          1           0       25.170799    2.728882    0.559389
    125          1           0       31.334168    4.286654   -0.683151
    126          1           0       33.112960   -1.711509   -0.849354
    127          1           0       24.793961   -1.982312    1.006515
    128          1           0       24.427221    0.540497    2.084395
    129          1           0       22.843555    0.517239    0.499420
    130          1           0       23.526143   -0.910716   -0.356334
    131          1           0       24.096153    0.748965   -0.750907
    132          1           0       25.614663   -0.762383    3.648283
    133          1           0       26.463249   -2.259977    3.195112
    134          1           0       24.643778   -3.396372    3.928521
    135          1           0       23.553941   -2.399676    2.894048
    136          1           0       25.234104    4.809256    0.286916
    137          1           0       25.930938    6.068887   -0.652357
    138          1           0       26.350496    5.890202    1.101822
    139          1           0       31.314200    6.380933   -0.800182
    140          1           0       30.469098    7.806367   -1.485681
    141          1           0       30.437637    6.286779   -2.360097
    142          1           0       33.391997    2.778460    0.059785
    143          1           0       33.820616    0.624840   -2.168045
    144          1           0       34.130596    4.241186   -1.721345
    145          1           0       32.869856    3.595648   -2.788238
    146          1           0       34.445549    2.732412   -2.640764
    147          1           0       34.320041   -0.222119    0.573768
    148          1           0       35.002809    1.235695    0.533543
    149          1           0       36.252612   -1.128832   -0.563114
    150          1           0       36.800529    0.458290   -0.137176
    151          1           0       36.146572    0.117899   -1.782325
    152          1           0       31.554761   -5.379948   -0.599979
    153          1           0       32.509048   -4.640061    0.467821
    154          1           0       32.762233   -4.131766   -1.201097
    155          1           0       27.236245   -4.074599    2.338933
    156          1           0       23.210502   -5.063526    1.651325
    157          1           0       24.013869   -6.424616    0.976653
    158          1           0       23.774613   -5.029564   -0.130476
 ---------------------------------------------------------------------

 SCF Done:  E(RPBE1PBE) =  -4067.34570436     A.U. after   16 cycles

 Excitation energies and oscillator strengths:

 Excited State   1:      Singlet-A      1.8323 eV  676.65 nm  f=0.3782  <S**2>=0.000
     309 -> 315       -0.16921
     311 -> 313        0.69535
     311 <- 313       -0.11106
 This state for optimization and/or second-order correction.
 Total Energy, E(TD-HF/TD-DFT) =  -4067.27836805
 Copying the excited state density for this state as the 1-particle RhoCI density.

 Excited State   2:      Singlet-A      1.8764 eV  660.75 nm  f=0.3891  <S**2>=0.000
     310 -> 316       -0.18222
     312 -> 314        0.69073
     312 <- 314       -0.10329

 Excited State   3:      Singlet-A      1.9610 eV  632.24 nm  f=0.0000  <S**2>=0.000
     312 -> 313        0.70711

 Excited State   4:      Singlet-A      2.0648 eV  600.47 nm  f=0.0000  <S**2>=0.000
     311 -> 314        0.70711

 Excited State   5:      Singlet-A      2.2077 eV  561.59 nm  f=0.0948  <S**2>=0.000
     310 -> 314        0.65479
     312 -> 316        0.25274

 The electronic state is 1-A.
 Alpha  occ. eigenvalues --  -46.93185 -46.92177 -19.26806 -19.25818 -19.20966
 Alpha  occ. eigenvalues --  -19.19751 -19.19735 -19.19389 -19.18985 -19.18628
 Alpha  occ. eigenvalues --  -14.41704 -14.41648 -14.41387 -14.40981 -14.39742
 Alpha  occ. eigenvalues --  -14.38877 -14.38829 -14.38531 -10.37144 -10.36027
 Alpha  occ. eigenvalues --  -10.33396 -10.32395 -10.31792 -10.31301 -10.29392
 Alpha  occ. eigenvalues --  -10.29210 -10.29182 -10.28836 -10.28698 -10.28678
 Alpha  occ. eigenvalues --  -10.28666 -10.28540 -10.28460 -10.28413 -10.28403
 Alpha  occ. eigenvalues --  -10.28105 -10.27658 -10.27615 -10.27450 -10.27095
 Alpha  occ. eigenvalues --  -10.26947 -10.26941 -10.26828 -10.26755 -10.26552
 Alpha  occ. eigenvalues --  -10.26311 -10.26250 -10.26235 -10.26031 -10.25997
 Alpha  occ. eigenvalues --  -10.25966 -10.25868 -10.25862 -10.25753 -10.25681
 Alpha  occ. eigenvalues --  -10.25631 -10.25591 -10.25485 -10.25402 -10.25337
 Alpha  occ. eigenvalues --  -10.24879 -10.24836 -10.24712 -10.24323 -10.24316
 Alpha  occ. eigenvalues --  -10.24296 -10.24286 -10.24232 -10.24228 -10.24207
 Alpha  occ. eigenvalues --  -10.24132 -10.24127 -10.24120 -10.23948 -10.23906
 Alpha  occ. eigenvalues --  -10.23773 -10.23754 -10.23534 -10.23341 -10.23335
 Alpha  occ. eigenvalues --  -10.23286 -10.22898 -10.22697 -10.22634 -10.22613
 Alpha  occ. eigenvalues --  -10.22458  -3.15185  -3.14217  -1.87972  -1.87614
 Alpha  occ. eigenvalues --   -1.87373  -1.87066  -1.86627  -1.86400  -1.13022
 Alpha  occ. eigenvalues --   -1.10858  -1.06291  -1.05714  -1.04860  -1.04117
 Alpha  occ. eigenvalues --   -1.03590  -1.03350  -0.99813  -0.99598  -0.98395
 Alpha  occ. eigenvalues --   -0.97396  -0.97177  -0.96939  -0.96686  -0.96173
 Alpha  occ. eigenvalues --   -0.87568  -0.86686  -0.83521  -0.83019  -0.82860
 Alpha  occ. eigenvalues --   -0.82603  -0.82422  -0.82405  -0.81423  -0.81179
 Alpha  occ. eigenvalues --   -0.80802  -0.80430  -0.80079  -0.79856  -0.78745
 Alpha  occ. eigenvalues --   -0.78307  -0.77987  -0.77670  -0.76905  -0.76877
 Alpha  occ. eigenvalues --   -0.76363  -0.75740  -0.75483  -0.75110  -0.74625
 Alpha  occ. eigenvalues --   -0.74300  -0.72237  -0.72219  -0.71609  -0.71576
 Alpha  occ. eigenvalues --   -0.71331  -0.71019  -0.70595  -0.70486  -0.69502
 Alpha  occ. eigenvalues --   -0.69270  -0.67148  -0.67082  -0.66189  -0.65778
 Alpha  occ. eigenvalues --   -0.63868  -0.63612  -0.63310  -0.62931  -0.62378
 Alpha  occ. eigenvalues --   -0.61856  -0.60834  -0.60621  -0.60312  -0.59721
 Alpha  occ. eigenvalues --   -0.59446  -0.59338  -0.59174  -0.58875  -0.58872
 Alpha  occ. eigenvalues --   -0.58698  -0.57421  -0.57301  -0.54404  -0.54225
 Alpha  occ. eigenvalues --   -0.54193  -0.54072  -0.53762  -0.53545  -0.53103
 Alpha  occ. eigenvalues --   -0.53064  -0.52626  -0.52377  -0.52038  -0.51867
 Alpha  occ. eigenvalues --   -0.51391  -0.50840  -0.50579  -0.49956  -0.49564
 Alpha  occ. eigenvalues --   -0.49485  -0.49380  -0.49259  -0.49204  -0.48609
 Alpha  occ. eigenvalues --   -0.48151  -0.47855  -0.47835  -0.47452  -0.47339
 Alpha  occ. eigenvalues --   -0.47204  -0.47134  -0.46949  -0.46588  -0.46518
 Alpha  occ. eigenvalues --   -0.46302  -0.46278  -0.46187  -0.45913  -0.45746
 Alpha  occ. eigenvalues --   -0.45654  -0.45495  -0.45468  -0.44771  -0.44655
 Alpha  occ. eigenvalues --   -0.44489  -0.44283  -0.44277  -0.44178  -0.43962
 Alpha  occ. eigenvalues --   -0.43896  -0.43832  -0.43782  -0.43468  -0.43417
 Alpha  occ. eigenvalues --   -0.43273  -0.43128  -0.43071  -0.42821  -0.42688
 Alpha  occ. eigenvalues --   -0.42654  -0.42528  -0.42056  -0.41928  -0.41675
 Alpha  occ. eigenvalues --   -0.41564  -0.41553  -0.41139  -0.41138  -0.40870
 Alpha  occ. eigenvalues --   -0.40851  -0.40702  -0.40618  -0.40617  -0.40399
 Alpha  occ. eigenvalues --   -0.40379  -0.40264  -0.39961  -0.39935  -0.39740
 Alpha  occ. eigenvalues --   -0.39687  -0.39567  -0.39557  -0.39338  -0.39180
 Alpha  occ. eigenvalues --   -0.38833  -0.38672  -0.38479  -0.38447  -0.38225
 Alpha  occ. eigenvalues --   -0.38128  -0.38040  -0.37925  -0.37918  -0.37709
 Alpha  occ. eigenvalues --   -0.37562  -0.37546  -0.37464  -0.37313  -0.37048
 Alpha  occ. eigenvalues --   -0.37023  -0.36681  -0.36510  -0.36378  -0.36095
 Alpha  occ. eigenvalues --   -0.35993  -0.35962  -0.35881  -0.35560  -0.35339
 Alpha  occ. eigenvalues --   -0.35142  -0.34778  -0.34540  -0.34275  -0.33610
 Alpha  occ. eigenvalues --   -0.33273  -0.33148  -0.32750  -0.32177  -0.32132
 Alpha  occ. eigenvalues --   -0.32078  -0.31727  -0.31637  -0.31316  -0.31252
 Alpha  occ. eigenvalues --   -0.31189  -0.30687  -0.29774  -0.29448  -0.29409
 Alpha  occ. eigenvalues --   -0.29099  -0.28879  -0.28529  -0.26892  -0.26482
 Alpha  occ. eigenvalues --   -0.26191  -0.26015  -0.25589  -0.25408  -0.25371
 Alpha  occ. eigenvalues --   -0.25098  -0.24965  -0.24736  -0.21201  -0.20716
 Alpha  occ. eigenvalues --   -0.18797  -0.18706
 Alpha virt. eigenvalues --   -0.11272  -0.10981  -0.05155  -0.05008  -0.03943
 Alpha virt. eigenvalues --   -0.03768  -0.02318  -0.01615  -0.01444  -0.00122
 Alpha virt. eigenvalues --    0.00007   0.00384   0.01084   0.01221   0.01504

 Mulliken charges:
               1
     1  Mg  11.999989
     2  C    5.999917
     3  C    6.000044
     4  C    6.000029
     5  C    5.999939
     6  N    6.999998
     7  C    6.000079
     8  C    5.999961
     9  C    6.000036
    10  C    5.999916
    11  C    6.000004
    12  C    6.000011
    13  C    5.999998
    14  H    1.000006
    15  N    7.000006
    16  C    5.999859
    17  C    5.999984
    18  C    5.999953
    19  C    5.999964
    20  C    6.000026
    21  C    5.999916
    22  O    7.999928
    23  C    6.000017
    24  N    6.999962
    25  C    5.999929
    26  C    6.000046
    27  C    5.999943
    28  C    6.000115
    29  C    6.000020
    30  C    6.000011
    31  C    5.999972
    32  N    7.000043
    33  C    6.000085
    34  C    6.000117
    35  C    5.999962
    36  C    6.000074
    37  C    5.999959
    38  C    6.000126
    39  O    8.000094
    40  C    5.999973
    41  C    6.000024
    42  O    8.000022
    43  O    8.000004
    44  C    5.999978
    45  H    0.999961
    46  H    0.999964
    47  H    1.000028
    48  H    1.000008
    49  H    0.999993
    50  H    0.999959
    51  H    1.000003
    52  H    0.999986
    53  H    1.000040
    54  H    0.999982
    55  H    1.000019
    56  H    0.999995
    57  H    0.999926
    58  H    0.999939
    59  H    0.999939
    60  H    0.999986
    61  H    0.999955
    62  H    0.999945
    63  H    0.999993
    64  H    1.000007
    65  H    0.999958
    66  H    0.999981
    67  H    0.999996
    68  H    1.000027
    69  H    1.000007
    70  H    1.000029
    71  H    1.000021
    72  H    0.999985
    73  H    1.000065
    74  H    1.000066
    75  H    1.000077
    76  H    1.000054
    77  H    1.000010
    78  H    1.000023
    79  H    1.000034
    80  Mg  11.999712
    81  C    6.007107
    82  C    5.980838
    83  C    5.992239
    84  C    6.022291
    85  N    6.992808
    86  C    5.972279
    87  C    6.013324
    88  C    5.989524
    89  C    6.036797
    90  C    5.998715
    91  C    6.001307
    92  C    6.004341
    93  H    0.988558
    94  N    6.994900
    95  C    6.046726
    96  C    6.012334
    97  C    6.018729
    98  C    6.028728
    99  C    5.994440
   100  C    6.013267
   101  O    8.020973
   102  C    5.996596
   103  N    7.013967
   104  C    6.023414
   105  C    5.992184
   106  C    6.007264
   107  C    5.964404
   108  C    5.998472
   109  C    6.002252
   110  C    6.000776
   111  N    6.999408
   112  C    5.958802
   113  C    5.978850
   114  C    5.990649
   115  C    5.976532
   116  C    6.001111
   117  C    5.982563
   118  O    7.970833
   119  C    5.998532
   120  C    5.994663
   121  O    7.994571
   122  O    7.996830
   123  C    6.002689
   124  H    1.008609
   125  H    1.007765
   126  H    0.993401
   127  H    0.997323
   128  H    1.002836
   129  H    1.002499
   130  H    1.012719
   131  H    0.995435
   132  H    0.988717
   133  H    1.007957
   134  H    1.002817
   135  H    0.996119
   136  H    1.017545
   137  H    1.014956
   138  H    1.017308
   139  H    1.011534
   140  H    1.012428
   141  H    1.008132
   142  H    1.001736
   143  H    0.999381
   144  H    0.999632
   145  H    0.996323
   146  H    1.009796
   147  H    1.004801
   148  H    0.991891
   149  H    1.003395
   150  H    0.996166
   151  H    0.996942
   152  H    0.987899
   153  H    0.979123
   154  H    0.983088
   155  H    0.990450
   156  H    0.994000
   157  H    0.996903
   158  H    0.995072
 Sum of Mulliken charges = 624.00000

 Dipole moment (field-independent basis, Debye):
    X=             -1.9947    Y=             10.1986    Z=             -0.9326  Tot=             10.4336
 Quadrupole moment (field-independent basis, Debye-Ang):
   XX=           -119.2164   YY=             11.0566   ZZ=             -1.0761
   XY=            295.4293   XZ=            -25.5066   YZ=             -1.4656

 Normal termination of Gaussian 16 at Fri Oct 15 18:17:36 2021.
