 Gaussian 16, Revision A.03,
 Gaussian 16:  ES64L-G16RevA.03 25-Dec-2016

 --------------------------------------------------------
 #p PBE1PBE/Def2SVP td=(nstates=5) density=(transition=1)
 --------------------------------------------------------

 --------------------------------
 TDDFT excited states in gaussian
 --------------------------------
 Symbolic Z-matrix:
 Charge =  0 Multiplicity = 1

                         Standard orientation:
 ---------------------------------------------------------------------
 Center     Atomic      Atomic             Coordinates (Angstroms)
 Number     Number       Type             X           Y           Z
 ---------------------------------------------------------------------
      1         12           0       24.502808   -0.786858    0.199015
      2          6           0       22.692127    2.266727    0.699037
      3          6           0       27.344517    1.113538   -0.253446
      4          6           0       25.970505   -3.507271   -0.859483
      5          6           0       21.469823   -2.439730    0.480881
      6          7           0       24.917916    1.525800   -0.055125
      7          6           0       24.022112    2.490046    0.320220
      8          6           0       24.761272    3.843967    0.493254
      9          6           0       26.264560    3.496015    0.126699
     10          6           0       26.227900    1.942018   -0.109347
     11          6           0       26.910446    4.224909   -1.125795
     12          6           0       24.652161    4.480358    1.904605
     13          6           0       24.365898    5.937440    1.988406
     14          1           0       24.590488    6.938785    0.791721
     15          7           0       26.443213   -1.190417   -0.499176
     16          6           0       27.533777   -0.321141   -0.494007
     17          6           0       28.707406   -1.027181   -1.042823
     18          6           0       28.322376   -2.421175   -1.110278
     19          6           0       26.868028   -2.426627   -0.828646
     20          6           0       30.035022   -0.412035   -1.367240
     21          6           0       29.147448   -3.687987   -1.437824
     22          8           0       28.798208   -4.857942   -1.174139
     23          6           0       30.519524   -3.493283   -1.945341
     24          7           0       23.800230   -2.617383   -0.178770
     25          6           0       24.644163   -3.577788   -0.691755
     26          6           0       23.974597   -4.979870   -0.674981
     27          6           0       22.632122   -4.658678    0.119683
     28          6           0       22.623029   -3.140588    0.167101
     29          6           0       23.732006   -5.709865   -2.058646
     30          6           0       22.495818   -5.248977    1.514248
     31          6           0       21.377883   -6.298197    1.688684
     32          7           0       22.517768   -0.269151    0.709358
     33          6           0       21.389028   -1.052877    0.752459
     34          6           0       20.210244   -0.220575    1.026349
     35          6           0       20.712400    1.068097    1.065556
     36          6           0       22.109389    0.996389    0.867628
     37          6           0       18.778989   -0.626287    1.153694
     38          6           0       20.300929    2.408217    1.283443
     39          8           0       19.194282    2.909673    1.631866
     40          6           0       21.507615    3.217553    1.060614
     41          6           0       21.227378    4.300735    0.054340
     42          8           0       21.052814    4.131935   -1.103963
     43          8           0       21.273344    5.493685    0.646983
     44          6           0       20.742871    6.630235   -0.026335
     45          1           0       28.287720    1.637592   -0.422303
     46          1           0       26.334623   -4.495868   -1.149848
     47          1           0       20.510586   -2.959930    0.489969
     48          1           0       24.315238    4.520480   -0.236716
     49          1           0       26.909274    3.689656    0.983463
     50          1           0       26.315952    5.031315   -1.554284
     51          1           0       26.980070    3.479300   -1.919170
     52          1           0       27.916552    4.571464   -0.887738
     53          1           0       25.566567    4.373385    2.489313
     54          1           0       23.855870    4.040838    2.504619
     55          1           0       25.004099    6.393933    2.745593
     56          1           0       23.327456    6.043895    2.300882
     57          1           0       30.295300   -0.638482   -2.400973
     58          1           0       30.761142   -0.890416   -0.709964
     59          1           0       30.077107    0.634770   -1.064587
     60          1           0       30.444029   -2.979366   -2.903666
     61          1           0       30.894819   -4.495670   -2.150009
     62          1           0       31.177590   -3.059498   -1.192918
     63          1           0       24.610998   -5.595227   -0.038231
     64          1           0       21.811347   -5.043527   -0.485481
     65          1           0       24.100690   -5.092992   -2.877401
     66          1           0       22.701715   -6.041368   -2.193467
     67          1           0       24.285395   -6.648502   -2.025832
     68          1           0       22.466635   -4.542115    2.343583
     69          1           0       23.416069   -5.798347    1.710012
     70          1           0       20.762566   -6.220663    2.584828
     71          1           0       21.873434   -7.245502    1.902847
     72          1           0       20.674122   -6.375792    0.861050
     73          1           0       18.660524   -1.694872    1.335395
     74          1           0       18.272249   -0.511774    0.195575
     75          1           0       18.325183    0.065426    1.863300
     76          1           0       21.747791    3.662990    2.025660
     77          1           0       19.657497    6.530796    0.020205
     78          1           0       20.975720    6.596990   -1.090759
     79          1           0       21.010594    7.553617    0.487958
     80         12           0      -24.420975   -0.707866   -0.009278
     81          6           0      -23.286263    2.646351   -0.812795
     82          6           0      -24.315687    0.283394    3.211158
     83          6           0      -25.361448   -3.681893    0.678803
     84          6           0      -24.114232   -1.548456   -3.435091
     85          7           0      -23.859082    1.363829    1.084295
     86          6           0      -23.536145    2.550872    0.542543
     87          6           0      -23.492839    3.639572    1.631776
     88          6           0      -23.379026    2.663238    2.893659
     89          6           0      -23.930699    1.393398    2.396944
     90          6           0      -22.084576    2.660499    3.689498
     91          6           0      -24.769743    4.491683    1.530096
     92          6           0      -24.583129    5.931242    2.093549
     93          1           0      -23.153916    6.553418    2.447332
     94          7           0      -24.849712   -1.615879    1.739543
     95          6           0      -24.669826   -1.088565    3.003949
     96          6           0      -24.991697   -2.130309    3.974515
     97          6           0      -25.376804   -3.281612    3.244169
     98          6           0      -25.192826   -2.872132    1.822981
     99          6           0      -24.907397   -1.960814    5.426105
    100          6           0      -25.925552   -4.710224    3.767623
    101          8           0      -26.375616   -5.525930    3.010346
    102          6           0      -26.179400   -4.975471    5.262431
    103          7           0      -24.431195   -2.442443   -1.200718
    104          6           0      -25.020824   -3.517167   -0.683225
    105          6           0      -25.265143   -4.627524   -1.669475
    106          6           0      -25.242315   -3.799727   -2.977647
    107          6           0      -24.394805   -2.568639   -2.505090
    108          6           0      -24.142000   -5.766239   -1.670490
    109          6           0      -26.655387   -3.431251   -3.597100
    110          6           0      -27.870885   -4.377767   -3.375301
    111          7           0      -23.734180    0.245696   -1.750521
    112          6           0      -23.714647   -0.148862   -3.047710
    113          6           0      -23.395827    0.901187   -3.904950
    114          6           0      -23.179954    1.957866   -3.067157
    115          6           0      -23.406454    1.563334   -1.763355
    116          6           0      -23.378624    0.842890   -5.429964
    117          6           0      -22.833288    3.386525   -3.105776
    118          8           0      -22.406342    4.117633   -3.986820
    119          6           0      -22.981511    3.877181   -1.599655
    120          6           0      -21.753669    4.566414   -1.243367
    121          8           0      -20.673231    4.050796   -0.939549
    122          8           0      -21.928796    5.866593   -1.559104
    123          6           0      -20.676598    6.599432   -1.614151
    124          1           0      -24.104646    0.551802    4.248475
    125          1           0      -25.644735   -4.699172    0.954907
    126          1           0      -24.127769   -1.829667   -4.489997
    127          1           0      -22.568475    4.215604    1.587082
    128          1           0      -24.098797    3.039716    3.619215
    129          1           0      -22.217997    3.068162    4.691094
    130          1           0      -21.322688    3.242300    3.171059
    131          1           0      -21.620767    1.678320    3.780925
    132          1           0      -25.512436    4.039409    2.187708
    133          1           0      -25.212213    4.512446    0.534329
    134          1           0      -25.253541    6.126875    2.931051
    135          1           0      -25.123518    6.526313    1.357495
    136          1           0      -24.991777   -0.913857    5.716643
    137          1           0      -23.935782   -2.370729    5.702385
    138          1           0      -25.689301   -2.480004    5.980767
    139          1           0      -26.977765   -4.367733    5.688239
    140          1           0      -25.193745   -4.900611    5.722281
    141          1           0      -26.421162   -6.027664    5.414835
    142          1           0      -26.222992   -5.031659   -1.342776
    143          1           0      -24.692535   -4.287260   -3.782357
    144          1           0      -24.750389   -6.670343   -1.676594
    145          1           0      -23.501965   -5.768995   -0.787494
    146          1           0      -23.497355   -5.795358   -2.548118
    147          1           0      -26.528702   -3.245771   -4.662761
    148          1           0      -26.903168   -2.546786   -3.009949
    149          1           0      -28.373153   -4.137505   -2.438544
    150          1           0      -27.429615   -5.372042   -3.452877
    151          1           0      -28.588156   -4.326003   -4.193682
    152          1           0      -24.120160    0.084207   -5.681332
    153          1           0      -22.433259    0.484178   -5.835993
    154          1           0      -23.647726    1.827665   -5.811515
    155          1           0      -23.832500    4.559241   -1.582392
    156          1           0      -20.799714    7.646236   -1.890429
    157          1           0      -19.852186    6.119235   -2.141530
    158          1           0      -20.251293    6.698275   -0.614833
 ---------------------------------------------------------------------

 SCF Done:  E(RPBE1PBE) =  -4067.34833357     A.U. after   16 cycles

 Excitation energies and oscillator strengths:

 Excited State   1:      Singlet-A      1.8640 eV  665.14 nm  f=0.4061  <S**2>=0.000
     309 -> 315       -0.17338
     311 -> 313        0.69405
     311 <- 313       -0.11114
 This state for optimization and/or second-order correction.
 Total Energy, E(TD-HF/TD-DFT) =  -4067.27983184
 Copying the excited state density for this state as the 1-particle RhoCI density.

 Excited State   2:      Singlet-A      1.9474 eV  636.65 nm  f=0.3560  <S**2>=0.000
     310 -> 316       -0.18523
     312 -> 314        0.68732

 Excited State   3:      Singlet-A      1.9664 eV  630.51 nm  f=0.0000  <S**2>=0.000
     312 -> 313        0.70711

 Excited State   4:      Singlet-A      2.1492 eV  576.88 nm  f=0.0000  <S**2>=0.000
     311 -> 314        0.70711

 Excited State   5:      Singlet-A      2.2041 eV  562.52 nm  f=0.1209  <S**2>=0.000
     309 -> 313        0.66066
     311 -> 315        0.24062

 The electronic state is 1-A.
 Alpha  occ. eigenvalues --  -46.92740 -46.92293 -19.25550 -19.25518 -19.20489
 Alpha  occ. eigenvalues --  -19.19717 -19.19297 -19.19015 -19.19012 -19.18978
 Alpha  occ. eigenvalues --  -14.41521 -14.41146 -14.40761 -14.40723 -14.39421
 Alpha  occ. eigenvalues --  -14.39328 -14.39208 -14.38457 -10.35896 -10.35206
 Alpha  occ. eigenvalues --  -10.33929 -10.32287 -10.32167 -10.31565 -10.29248
 Alpha  occ. eigenvalues --  -10.28870 -10.28620 -10.28572 -10.28534 -10.28244
 Alpha  occ. eigenvalues --  -10.28219 -10.28102 -10.28021 -10.27945 -10.27767
 Alpha  occ. eigenvalues --  -10.27570 -10.27525 -10.27483 -10.27465 -10.26730
 Alpha  occ. eigenvalues --  -10.26722 -10.26707 -10.26650 -10.26500 -10.26123
 Alpha  occ. eigenvalues --  -10.26078 -10.26065 -10.25910 -10.25848 -10.25796
 Alpha  occ. eigenvalues --  -10.25786 -10.25724 -10.25645 -10.25409 -10.25277
 Alpha  occ. eigenvalues --  -10.25271 -10.25218 -10.25177 -10.25159 -10.25159
 Alpha  occ. eigenvalues --  -10.25107 -10.25100 -10.24983 -10.24804 -10.24593
 Alpha  occ. eigenvalues --  -10.24424 -10.24414 -10.24286 -10.24279 -10.24226
 Alpha  occ. eigenvalues --  -10.23903 -10.23799 -10.23674 -10.23568 -10.23448
 Alpha  occ. eigenvalues --  -10.23440 -10.23433 -10.23424 -10.23097 -10.23008
 Alpha  occ. eigenvalues --  -10.23001 -10.22909 -10.22890 -10.22853 -10.22583
 Alpha  occ. eigenvalues --  -10.21722  -3.14822  -3.14450  -1.87664  -1.87273
 Alpha  occ. eigenvalues --   -1.87214  -1.87031  -1.86839  -1.86672  -1.13295
 Alpha  occ. eigenvalues --   -1.11279  -1.07146  -1.04412  -1.04387  -1.03209
 Alpha  occ. eigenvalues --   -1.02529  -1.01444  -1.00427  -0.99747  -0.99330
 Alpha  occ. eigenvalues --   -0.99145  -0.98360  -0.98352  -0.97228  -0.96524
 Alpha  occ. eigenvalues --   -0.87769  -0.86785  -0.83461  -0.83205  -0.82946
 Alpha  occ. eigenvalues --   -0.82725  -0.82684  -0.82397  -0.81884  -0.81710
 Alpha  occ. eigenvalues --   -0.81283  -0.81232  -0.80617  -0.80158  -0.78829
 Alpha  occ. eigenvalues --   -0.78574  -0.77791  -0.77451  -0.76858  -0.76610
 Alpha  occ. eigenvalues --   -0.76337  -0.76019  -0.75885  -0.75065  -0.74842
 Alpha  occ. eigenvalues --   -0.74442  -0.72672  -0.72671  -0.71988  -0.71444
 Alpha  occ. eigenvalues --   -0.71132  -0.70965  -0.70593  -0.70094  -0.69600
 Alpha  occ. eigenvalues --   -0.69574  -0.67534  -0.67295  -0.66045  -0.65959
 Alpha  occ. eigenvalues --   -0.63955  -0.63720  -0.63381  -0.63143  -0.62177
 Alpha  occ. eigenvalues --   -0.61857  -0.61056  -0.60754  -0.60351  -0.59903
 Alpha  occ. eigenvalues --   -0.59520  -0.59432  -0.59235  -0.59118  -0.58955
 Alpha  occ. eigenvalues --   -0.58239  -0.57502  -0.56424  -0.55168  -0.54727
 Alpha  occ. eigenvalues --   -0.54469  -0.53985  -0.53899  -0.53822  -0.53477
 Alpha  occ. eigenvalues --   -0.52950  -0.52787  -0.52495  -0.52357  -0.52113
 Alpha  occ. eigenvalues --   -0.50986  -0.50866  -0.50727  -0.50000  -0.49793
 Alpha  occ. eigenvalues --   -0.49634  -0.49490  -0.49125  -0.48533  -0.48315
 Alpha  occ. eigenvalues --   -0.48199  -0.48018  -0.47970  -0.47743  -0.47626
 Alpha  occ. eigenvalues --   -0.47544  -0.47301  -0.47222  -0.46957  -0.46808
 Alpha  occ. eigenvalues --   -0.46194  -0.46119  -0.46060  -0.45925  -0.45916
 Alpha  occ. eigenvalues --   -0.45812  -0.45730  -0.45232  -0.44981  -0.44741
 Alpha  occ. eigenvalues --   -0.44731  -0.44599  -0.44365  -0.44261  -0.43869
 Alpha  occ. eigenvalues --   -0.43700  -0.43546  -0.43435  -0.43394  -0.43324
 Alpha  occ. eigenvalues --   -0.43286  -0.43250  -0.42967  -0.42924  -0.42860
 Alpha  occ. eigenvalues --   -0.42635  -0.42394  -0.42208  -0.42091  -0.42069
 Alpha  occ. eigenvalues --   -0.41714  -0.41537  -0.41488  -0.41437  -0.40920
 Alpha  occ. eigenvalues --   -0.40887  -0.40765  -0.40606  -0.40552  -0.40436
 Alpha  occ. eigenvalues --   -0.40259  -0.40054  -0.39818  -0.39530  -0.39417
 Alpha  occ. eigenvalues --   -0.39263  -0.39105  -0.39082  -0.38948  -0.38809
 Alpha  occ. eigenvalues --   -0.38653  -0.38450  -0.38398  -0.38304  -0.38054
 Alpha  occ. eigenvalues --   -0.37999  -0.37990  -0.37811  -0.37594  -0.37545
 Alpha  occ. eigenvalues --   -0.37414  -0.37381  -0.37137  -0.37043  -0.36836
 Alpha  occ. eigenvalues --   -0.36588  -0.36495  -0.36288  -0.36274  -0.36152
 Alpha  occ. eigenvalues --   -0.36115  -0.35813  -0.35332  -0.35181  -0.34945
 Alpha  occ. eigenvalues --   -0.34626  -0.34620  -0.34201  -0.33926  -0.33593
 Alpha  occ. eigenvalues --   -0.33190  -0.33158  -0.32974  -0.32857  -0.32417
 Alpha  occ. eigenvalues --   -0.31981  -0.31655  -0.31360  -0.31232  -0.30886
 Alpha  occ. eigenvalues --   -0.30838  -0.30683  -0.29473  -0.29402  -0.29240
 Alpha  occ. eigenvalues --   -0.28649  -0.28483  -0.27967  -0.27082  -0.26938
 Alpha  occ. eigenvalues --   -0.26558  -0.26141  -0.26114  -0.26014  -0.25666
 Alpha  occ. eigenvalues --   -0.25510  -0.25310  -0.25273  -0.20996  -0.20327
 Alpha  occ. eigenvalues --   -0.18919  -0.18865
 Alpha virt. eigenvalues --   -0.11363  -0.10751  -0.05034  -0.04624  -0.04345
 Alpha virt. eigenvalues --   -0.03602  -0.02377  -0.01809  -0.00501  -0.00426
 Alpha virt. eigenvalues --    0.00137   0.01121   0.01191   0.01671   0.01749

 Mulliken charges:
               1
     1  Mg  12.000108
     2  C    5.980153
     3  C    6.003422
     4  C    6.027121
     5  C    5.996863
     6  N    6.993793
     7  C    6.028945
     8  C    5.990464
     9  C    6.005847
    10  C    5.974965
    11  C    6.002136
    12  C    5.997839
    13  C    5.999083
    14  H    1.004916
    15  N    7.003503
    16  C    5.960298
    17  C    5.980386
    18  C    5.986483
    19  C    5.966973
    20  C    6.002613
    21  C    5.984994
    22  O    7.970571
    23  C    6.007326
    24  N    7.007411
    25  C    5.963973
    26  C    6.012025
    27  C    5.991721
    28  C    6.027564
    29  C    5.999085
    30  C    5.991654
    31  C    5.998715
    32  N    6.997701
    33  C    6.030660
    34  C    6.034640
    35  C    5.999426
    36  C    6.029903
    37  C    5.997546
    38  C    6.017341
    39  O    8.029906
    40  C    5.994926
    41  C    6.005417
    42  O    8.004999
    43  O    8.001673
    44  C    5.998647
    45  H    0.990097
    46  H    0.995057
    47  H    1.011986
    48  H    0.999443
    49  H    0.998595
    50  H    0.988494
    51  H    1.003931
    52  H    0.999167
    53  H    1.008324
    54  H    0.992923
    55  H    1.003346
    56  H    0.995017
    57  H    0.982925
    58  H    0.982625
    59  H    0.983603
    60  H    0.992494
    61  H    0.985659
    62  H    0.992917
    63  H    1.000967
    64  H    1.001742
    65  H    1.003043
    66  H    0.990854
    67  H    1.000937
    68  H    0.998270
    69  H    1.013328
    70  H    0.999769
    71  H    1.006378
    72  H    1.000592
    73  H    1.017717
    74  H    1.021847
    75  H    1.014592
    76  H    1.009789
    77  H    0.999947
    78  H    1.004709
    79  H    1.005183
    80  Mg  12.000006
    81  C    5.999978
    82  C    5.999977
    83  C    5.999969
    84  C    6.000051
    85  N    6.999904
    86  C    6.000007
    87  C    6.000024
    88  C    5.999978
    89  C    6.000078
    90  C    6.000009
    91  C    5.999990
    92  C    6.000009
    93  H    0.999936
    94  N    7.000001
    95  C    6.000019
    96  C    6.000049
    97  C    6.000012
    98  C    6.000050
    99  C    5.999967
   100  C    5.999997
   101  O    8.000053
   102  C    5.999989
   103  N    7.000049
   104  C    6.000016
   105  C    6.000000
   106  C    5.999977
   107  C    5.999949
   108  C    6.000007
   109  C    6.000004
   110  C    5.999993
   111  N    6.999959
   112  C    5.999947
   113  C    5.999989
   114  C    6.000001
   115  C    5.999977
   116  C    6.000011
   117  C    5.999966
   118  O    7.999969
   119  C    6.000009
   120  C    5.999991
   121  O    7.999949
   122  O    8.000025
   123  C    6.000031
   124  H    0.999983
   125  H    1.000033
   126  H    1.000012
   127  H    0.999963
   128  H    1.000017
   129  H    0.999996
   130  H    0.999965
   131  H    0.999962
   132  H    1.000020
   133  H    1.000029
   134  H    1.000020
   135  H    1.000026
   136  H    1.000023
   137  H    0.999984
   138  H    1.000043
   139  H    1.000040
   140  H    0.999979
   141  H    1.000039
   142  H    1.000028
   143  H    1.000002
   144  H    1.000034
   145  H    0.999964
   146  H    0.999994
   147  H    1.000017
   148  H    1.000007
   149  H    1.000008
   150  H    1.000002
   151  H    1.000042
   152  H    1.000015
   153  H    0.999950
   154  H    1.000001
   155  H    1.000018
   156  H    1.000001
   157  H    0.999954
   158  H    0.999960
 Sum of Mulliken charges = 624.00000

 Dipole moment (field-independent basis, Debye):
    X=            -10.1484    Y=              2.1625    Z=              2.6894  Tot=             10.7191
 Quadrupole moment (field-independent basis, Debye-Ang):
   XX=           -495.9325   YY=             -0.0035   ZZ=             -0.1620
   XY=             60.0367   XZ=             66.0924   YZ=             -2.8862

 Normal termination of Gaussian 16 at Fri Oct 15 10:55:18 2021.
