 Gaussian 16, Revision A.03,
 Gaussian 16:  ES64L-G16RevA.03 25-Dec-2016

 --------------------------------------------------------
 #p PBE1PBE/Def2SVP td=(nstates=5) density=(transition=1)
 --------------------------------------------------------

 --------------------------------
 TDDFT excited states in gaussian
 --------------------------------
 Symbolic Z-matrix:
 Charge =  0 Multiplicity = 1

                         Standard orientation:
 ---------------------------------------------------------------------
 Center     Atomic      Atomic             Coordinates (Angstroms)
 Number     Number       Type             X           Y           Z
 ---------------------------------------------------------------------
      1         12           0       26.397227    0.475622   -0.269937
      2          6           0       25.335742   -2.788670    0.151017
      3          6           0       23.177138    1.567458    0.745808
      4          6           0       27.522257    3.707876   -0.099627
      5          6           0       29.643449   -0.583410   -0.789076
      6          7           0       24.471721   -0.539446    0.238379
      7          6           0       24.321564   -1.895191    0.441298
      8          6           0       22.946726   -2.294318    1.097164
      9          6           0       22.121133   -0.935546    0.906642
     10          6           0       23.283766    0.151512    0.561281
     11          6           0       20.944313   -0.888839   -0.140886
     12          6           0       23.021260   -2.716183    2.522430
     13          6           0       22.592934   -4.108912    2.943175
     14          1           0       22.059336   -4.245771    4.378201
     15          7           0       25.440941    2.401108    0.164937
     16          6           0       24.086398    2.576823    0.505116
     17          6           0       23.796737    3.971251    0.614239
     18          6           0       25.124628    4.632946    0.521583
     19          6           0       26.135985    3.580892    0.193685
     20          6           0       22.436935    4.536304    1.037771
     21          6           0       25.276883    6.151176    0.719768
     22          8           0       24.392157    6.958038    0.990616
     23          6           0       26.656642    6.670636    0.919101
     24          7           0       28.423618    1.467159   -0.249419
     25          6           0       28.540786    2.798298   -0.349326
     26          6           0       30.026727    3.116373   -0.189468
     27          6           0       30.793615    1.746838   -0.498769
     28          6           0       29.538184    0.766511   -0.551220
     29          6           0       30.455442    4.182850   -1.258674
     30          6           0       31.911507    1.227579    0.495829
     31          6           0       33.363745    1.142116    0.050502
     32          7           0       27.338883   -1.356023   -0.396687
     33          6           0       28.681434   -1.651913   -0.652579
     34          6           0       28.888603   -3.066611   -0.594003
     35          6           0       27.600580   -3.596165   -0.272851
     36          6           0       26.696903   -2.464294   -0.219030
     37          6           0       30.159047   -3.832161   -0.790561
     38          6           0       26.831731   -4.752850   -0.062727
     39          8           0       27.201295   -5.909883   -0.079987
     40          6           0       25.366625   -4.292049    0.298705
     41          6           0       24.414674   -5.119587   -0.458680
     42          8           0       23.759666   -6.024478    0.046061
     43          8           0       24.403938   -4.737133   -1.791764
     44          6           0       23.497470   -5.560769   -2.623001
     45          1           0       22.218188    2.021047    1.003222
     46          1           0       27.776230    4.770249   -0.110701
     47          1           0       30.682242   -0.896206   -0.912657
     48          1           0       22.482807   -3.086270    0.510235
     49          1           0       21.762408   -0.652609    1.896921
     50          1           0       20.728553   -1.919016   -0.424054
     51          1           0       21.149629   -0.290489   -1.028636
     52          1           0       20.100835   -0.407867    0.352997
     53          1           0       22.343957   -2.060023    3.071145
     54          1           0       24.046927   -2.634786    2.880662
     55          1           0       23.477161   -4.745371    2.925429
     56          1           0       21.791402   -4.518367    2.328786
     57          1           0       21.617310    3.881642    1.333123
     58          1           0       22.187509    5.176840    0.192199
     59          1           0       22.703335    5.284413    1.783724
     60          1           0       27.245918    6.981038    0.057321
     61          1           0       27.252430    6.022366    1.561838
     62          1           0       26.545002    7.609099    1.463443
     63          1           0       30.277058    3.481681    0.806777
     64          1           0       31.167160    1.748995   -1.522164
     65          1           0       30.991270    4.965907   -0.722213
     66          1           0       29.642155    4.619244   -1.839895
     67          1           0       31.111348    3.778656   -2.030065
     68          1           0       31.559404    0.238605    0.788346
     69          1           0       31.914228    1.947037    1.315829
     70          1           0       33.813929    0.391975    0.701162
     71          1           0       33.852527    2.094306    0.257888
     72          1           0       33.605682    0.834748   -0.966345
     73          1           0       29.894820   -4.883024   -0.669490
     74          1           0       30.875014   -3.461370   -0.057699
     75          1           0       30.610999   -3.737200   -1.778057
     76          1           0       25.267311   -4.563372    1.350257
     77          1           0       24.035168   -6.419096   -3.025672
     78          1           0       23.071064   -4.880701   -3.360387
     79          1           0       22.636757   -5.914328   -2.056025
     80         12           0      -26.291717   -0.495138    0.556197
     81          6           0      -24.434069    1.817244   -1.488510
     82          6           0      -26.473929   -2.589267   -2.039417
     83          6           0      -28.706504   -2.113166    2.223992
     84          6           0      -26.394277    2.025630    2.993300
     85          7           0      -25.591858   -0.355584   -1.498683
     86          6           0      -24.699759    0.562644   -2.078256
     87          6           0      -24.178157    0.052939   -3.475643
     88          6           0      -24.907652   -1.316213   -3.626727
     89          6           0      -25.668806   -1.468509   -2.282910
     90          6           0      -25.820255   -1.486986   -4.814580
     91          6           0      -22.559785   -0.002672   -3.559389
     92          6           0      -21.941574    0.729636   -4.756756
     93          1           0      -21.061900   -0.189255   -5.683670
     94          7           0      -27.338624   -2.216698    0.201077
     95          6           0      -27.298791   -2.947847   -0.917414
     96          6           0      -28.209580   -4.091745   -0.846281
     97          6           0      -28.928658   -3.878933    0.380332
     98          6           0      -28.350622   -2.682932    1.002055
     99          6           0      -28.299623   -5.120841   -1.889872
    100          6           0      -30.150077   -4.740592    0.830329
    101          8           0      -30.696648   -4.573772    1.907814
    102          6           0      -30.718016   -5.840529   -0.008693
    103          7           0      -27.343619   -0.096820    2.297260
    104          6           0      -28.229081   -1.010799    2.858316
    105          6           0      -28.731999   -0.519142    4.255288
    106          6           0      -27.706834    0.621117    4.611900
    107          6           0      -27.058430    0.845308    3.246004
    108          6           0      -30.250754   -0.180242    4.406751
    109          6           0      -26.653429    0.218468    5.680024
    110          6           0      -26.249817    1.234863    6.718175
    111          7           0      -25.620305    1.533060    0.730823
    112          6           0      -25.741486    2.406963    1.773691
    113          6           0      -24.916472    3.654611    1.461354
    114          6           0      -24.352794    3.441800    0.226563
    115          6           0      -24.864722    2.171723   -0.209441
    116          6           0      -24.734219    4.782610    2.451226
    117          6           0      -23.516956    3.973796   -0.834971
    118          8           0      -22.943719    5.082134   -0.785109
    119          6           0      -23.605436    2.935186   -2.105163
    120          6           0      -24.306429    3.487087   -3.328911
    121          8           0      -25.453971    3.967754   -3.245479
    122          8           0      -23.468136    3.550223   -4.442774
    123          6           0      -23.982648    4.445825   -5.472207
    124          1           0      -26.483106   -3.367632   -2.804990
    125          1           0      -29.448694   -2.736750    2.726070
    126          1           0      -26.370004    2.709041    3.845209
    127          1           0      -24.541117    0.823943   -4.155001
    128          1           0      -24.113815   -2.022695   -3.873097
    129          1           0      -25.902885   -0.588045   -5.425610
    130          1           0      -26.775002   -1.550928   -4.293695
    131          1           0      -25.521009   -2.301152   -5.475334
    132          1           0      -22.359427   -1.073485   -3.582680
    133          1           0      -22.144971    0.333399   -2.609452
    134          1           0      -21.399095    1.583820   -4.351558
    135          1           0      -22.740787    1.117790   -5.389474
    136          1           0      -29.256407   -5.337702   -2.363856
    137          1           0      -28.184847   -6.060481   -1.350698
    138          1           0      -27.466611   -5.151306   -2.592541
    139          1           0      -29.903049   -6.556135   -0.123916
    140          1           0      -30.909001   -5.411948   -0.992933
    141          1           0      -31.600903   -6.190506    0.524749
    142          1           0      -28.538334   -1.369239    4.909495
    143          1           0      -28.191472    1.564767    4.861294
    144          1           0      -30.689867   -0.503383    3.463169
    145          1           0      -30.455010    0.859941    4.658908
    146          1           0      -30.751119   -0.844085    5.112854
    147          1           0      -25.832622    0.002063    4.996521
    148          1           0      -26.872447   -0.706978    6.213033
    149          1           0      -26.203612    0.687043    7.659449
    150          1           0      -26.984733    2.029949    6.848089
    151          1           0      -25.213603    1.490954    6.495940
    152          1           0      -25.316736    4.528802    3.336679
    153          1           0      -25.197967    5.676230    2.034113
    154          1           0      -23.671077    4.952019    2.620701
    155          1           0      -22.598024    2.585037   -2.330163
    156          1           0      -23.415448    5.364284   -5.616754
    157          1           0      -25.027160    4.726947   -5.337044
    158          1           0      -23.942819    3.885502   -6.405959
 ---------------------------------------------------------------------

 SCF Done:  E(RPBE1PBE) =  -4067.35081333     A.U. after   17 cycles

 Excitation energies and oscillator strengths:

 Excited State   1:      Singlet-A      1.6459 eV  753.31 nm  f=0.0000  <S**2>=0.000
     312 -> 313        0.70711
 This state for optimization and/or second-order correction.
 Total Energy, E(TD-HF/TD-DFT) =  -4067.29032918
 Copying the excited state density for this state as the 1-particle RhoCI density.

 Excited State   2:      Singlet-A      1.8518 eV  669.55 nm  f=0.3921  <S**2>=0.000
     310 -> 316        0.16653
     312 -> 314        0.69566
     312 <- 314       -0.11415

 Excited State   3:      Singlet-A      1.8585 eV  667.14 nm  f=0.3748  <S**2>=0.000
     309 -> 315       -0.16997
     311 -> 313        0.69125
     311 <- 313       -0.10664

 Excited State   4:      Singlet-A      2.1844 eV  567.59 nm  f=0.1536  <S**2>=0.000
     309 -> 313        0.65882
     311 -> 315        0.23362

 Excited State   5:      Singlet-A      2.2899 eV  541.44 nm  f=0.0908  <S**2>=0.000
     310 -> 314        0.64387
     312 -> 316       -0.28555

 The electronic state is 1-A.
 Alpha  occ. eigenvalues --  -46.93873 -46.91819 -19.27247 -19.25838 -19.20978
 Alpha  occ. eigenvalues --  -19.20155 -19.20045 -19.19171 -19.18884 -19.18804
 Alpha  occ. eigenvalues --  -14.42966 -14.42076 -14.41559 -14.41244 -14.39644
 Alpha  occ. eigenvalues --  -14.39640 -14.39279 -14.39084 -10.37748 -10.36214
 Alpha  occ. eigenvalues --  -10.33562 -10.32253 -10.32203 -10.31548 -10.30690
 Alpha  occ. eigenvalues --  -10.29557 -10.29520 -10.29297 -10.29256 -10.28908
 Alpha  occ. eigenvalues --  -10.28810 -10.28787 -10.28780 -10.28267 -10.28218
 Alpha  occ. eigenvalues --  -10.28019 -10.27977 -10.27821 -10.27618 -10.27450
 Alpha  occ. eigenvalues --  -10.27385 -10.27244 -10.27200 -10.27019 -10.26731
 Alpha  occ. eigenvalues --  -10.26523 -10.26501 -10.26481 -10.26408 -10.26373
 Alpha  occ. eigenvalues --  -10.26302 -10.26291 -10.26227 -10.26108 -10.26087
 Alpha  occ. eigenvalues --  -10.25785 -10.25781 -10.25687 -10.25631 -10.25530
 Alpha  occ. eigenvalues --  -10.25357 -10.25217 -10.25148 -10.25130 -10.25124
 Alpha  occ. eigenvalues --  -10.24882 -10.24752 -10.24642 -10.24628 -10.24394
 Alpha  occ. eigenvalues --  -10.24157 -10.24137 -10.23843 -10.23703 -10.23676
 Alpha  occ. eigenvalues --  -10.23540 -10.23537 -10.23470 -10.23401 -10.23307
 Alpha  occ. eigenvalues --  -10.23063 -10.22997 -10.22970 -10.22946 -10.22851
 Alpha  occ. eigenvalues --  -10.22640  -3.15675  -3.14045  -1.88542  -1.88023
 Alpha  occ. eigenvalues --   -1.87898  -1.86867  -1.86403  -1.86296  -1.11001
 Alpha  occ. eigenvalues --   -1.10358  -1.04969  -1.04769  -1.04642  -1.03654
 Alpha  occ. eigenvalues --   -1.02648  -1.02388  -0.99684  -0.98780  -0.98583
 Alpha  occ. eigenvalues --   -0.97997  -0.97248  -0.97065  -0.96534  -0.96271
 Alpha  occ. eigenvalues --   -0.87057  -0.86887  -0.83785  -0.83646  -0.83444
 Alpha  occ. eigenvalues --   -0.83013  -0.82500  -0.82391  -0.82029  -0.81724
 Alpha  occ. eigenvalues --   -0.81636  -0.81578  -0.80400  -0.79960  -0.78733
 Alpha  occ. eigenvalues --   -0.78583  -0.78227  -0.77922  -0.77163  -0.76985
 Alpha  occ. eigenvalues --   -0.76384  -0.76176  -0.75505  -0.75276  -0.75129
 Alpha  occ. eigenvalues --   -0.74559  -0.72826  -0.72267  -0.71914  -0.71492
 Alpha  occ. eigenvalues --   -0.71214  -0.71196  -0.70530  -0.70487  -0.69875
 Alpha  occ. eigenvalues --   -0.69149  -0.68035  -0.66858  -0.66746  -0.65457
 Alpha  occ. eigenvalues --   -0.63788  -0.63566  -0.63424  -0.62795  -0.62430
 Alpha  occ. eigenvalues --   -0.62195  -0.61546  -0.61199  -0.60085  -0.59908
 Alpha  occ. eigenvalues --   -0.59778  -0.59758  -0.59484  -0.59418  -0.59331
 Alpha  occ. eigenvalues --   -0.58899  -0.57615  -0.57146  -0.54922  -0.54827
 Alpha  occ. eigenvalues --   -0.54400  -0.54282  -0.54033  -0.53697  -0.53296
 Alpha  occ. eigenvalues --   -0.53139  -0.52903  -0.52464  -0.51959  -0.51514
 Alpha  occ. eigenvalues --   -0.51157  -0.50864  -0.50521  -0.50032  -0.49935
 Alpha  occ. eigenvalues --   -0.49651  -0.49362  -0.49326  -0.48520  -0.48380
 Alpha  occ. eigenvalues --   -0.48304  -0.48167  -0.47836  -0.47708  -0.47406
 Alpha  occ. eigenvalues --   -0.47347  -0.47231  -0.47043  -0.46890  -0.46716
 Alpha  occ. eigenvalues --   -0.46438  -0.46204  -0.46150  -0.46052  -0.45966
 Alpha  occ. eigenvalues --   -0.45926  -0.45718  -0.45698  -0.45319  -0.44984
 Alpha  occ. eigenvalues --   -0.44905  -0.44823  -0.44326  -0.44191  -0.44141
 Alpha  occ. eigenvalues --   -0.43954  -0.43863  -0.43657  -0.43552  -0.43406
 Alpha  occ. eigenvalues --   -0.43364  -0.43303  -0.42988  -0.42978  -0.42806
 Alpha  occ. eigenvalues --   -0.42687  -0.42621  -0.42356  -0.41943  -0.41914
 Alpha  occ. eigenvalues --   -0.41778  -0.41704  -0.41522  -0.41468  -0.41352
 Alpha  occ. eigenvalues --   -0.41182  -0.40820  -0.40815  -0.40772  -0.40693
 Alpha  occ. eigenvalues --   -0.40524  -0.40440  -0.40377  -0.40179  -0.40095
 Alpha  occ. eigenvalues --   -0.39987  -0.39461  -0.39329  -0.39322  -0.39107
 Alpha  occ. eigenvalues --   -0.39041  -0.38896  -0.38863  -0.38692  -0.38610
 Alpha  occ. eigenvalues --   -0.38507  -0.38430  -0.37926  -0.37841  -0.37795
 Alpha  occ. eigenvalues --   -0.37619  -0.37554  -0.37467  -0.37299  -0.37053
 Alpha  occ. eigenvalues --   -0.36637  -0.36586  -0.36441  -0.36406  -0.36050
 Alpha  occ. eigenvalues --   -0.36007  -0.35667  -0.35529  -0.35326  -0.35083
 Alpha  occ. eigenvalues --   -0.34968  -0.34681  -0.34431  -0.34423  -0.34068
 Alpha  occ. eigenvalues --   -0.33388  -0.33305  -0.32888  -0.32821  -0.32472
 Alpha  occ. eigenvalues --   -0.32469  -0.32269  -0.32224  -0.31798  -0.31525
 Alpha  occ. eigenvalues --   -0.31145  -0.30949  -0.29825  -0.29795  -0.29645
 Alpha  occ. eigenvalues --   -0.29374  -0.28781  -0.28550  -0.27451  -0.27094
 Alpha  occ. eigenvalues --   -0.26368  -0.26121  -0.25887  -0.25829  -0.25615
 Alpha  occ. eigenvalues --   -0.25575  -0.25443  -0.25041  -0.21593  -0.21070
 Alpha  occ. eigenvalues --   -0.19780  -0.18459
 Alpha virt. eigenvalues --   -0.12159  -0.10939  -0.05878  -0.04854  -0.04290
 Alpha virt. eigenvalues --   -0.04156  -0.02265  -0.02245  -0.01702  -0.00810
 Alpha virt. eigenvalues --   -0.00412   0.00353   0.00355   0.00604   0.01286

 Mulliken charges:
               1
     1  Mg  12.000000
     2  C    6.000000
     3  C    6.000000
     4  C    6.000000
     5  C    6.000000
     6  N    7.000000
     7  C    6.000000
     8  C    6.000000
     9  C    6.000000
    10  C    6.000000
    11  C    6.000000
    12  C    6.000000
    13  C    6.000000
    14  H    1.000000
    15  N    7.000000
    16  C    6.000000
    17  C    6.000000
    18  C    6.000000
    19  C    6.000000
    20  C    6.000000
    21  C    6.000000
    22  O    8.000000
    23  C    6.000000
    24  N    7.000000
    25  C    6.000000
    26  C    6.000000
    27  C    6.000000
    28  C    6.000000
    29  C    6.000000
    30  C    6.000000
    31  C    6.000000
    32  N    7.000000
    33  C    6.000000
    34  C    6.000000
    35  C    6.000000
    36  C    6.000000
    37  C    6.000000
    38  C    6.000000
    39  O    8.000000
    40  C    6.000000
    41  C    6.000000
    42  O    8.000000
    43  O    8.000000
    44  C    6.000000
    45  H    1.000000
    46  H    1.000000
    47  H    1.000000
    48  H    1.000000
    49  H    1.000000
    50  H    1.000000
    51  H    1.000000
    52  H    1.000000
    53  H    1.000000
    54  H    1.000000
    55  H    1.000000
    56  H    1.000000
    57  H    1.000000
    58  H    1.000000
    59  H    1.000000
    60  H    1.000000
    61  H    1.000000
    62  H    1.000000
    63  H    1.000000
    64  H    1.000000
    65  H    1.000000
    66  H    1.000000
    67  H    1.000000
    68  H    1.000000
    69  H    1.000000
    70  H    1.000000
    71  H    1.000000
    72  H    1.000000
    73  H    1.000000
    74  H    1.000000
    75  H    1.000000
    76  H    1.000000
    77  H    1.000000
    78  H    1.000000
    79  H    1.000000
    80  Mg  12.000000
    81  C    6.000000
    82  C    6.000000
    83  C    6.000000
    84  C    6.000000
    85  N    7.000000
    86  C    6.000000
    87  C    6.000000
    88  C    6.000000
    89  C    6.000000
    90  C    6.000000
    91  C    6.000000
    92  C    6.000000
    93  H    1.000000
    94  N    7.000000
    95  C    6.000000
    96  C    6.000000
    97  C    6.000000
    98  C    6.000000
    99  C    6.000000
   100  C    6.000000
   101  O    8.000000
   102  C    6.000000
   103  N    7.000000
   104  C    6.000000
   105  C    6.000000
   106  C    6.000000
   107  C    6.000000
   108  C    6.000000
   109  C    6.000000
   110  C    6.000000
   111  N    7.000000
   112  C    6.000000
   113  C    6.000000
   114  C    6.000000
   115  C    6.000000
   116  C    6.000000
   117  C    6.000000
   118  O    8.000000
   119  C    6.000000
   120  C    6.000000
   121  O    8.000000
   122  O    8.000000
   123  C    6.000000
   124  H    1.000000
   125  H    1.000000
   126  H    1.000000
   127  H    1.000000
   128  H    1.000000
   129  H    1.000000
   130  H    1.000000
   131  H    1.000000
   132  H    1.000000
   133  H    1.000000
   134  H    1.000000
   135  H    1.000000
   136  H    1.000000
   137  H    1.000000
   138  H    1.000000
   139  H    1.000000
   140  H    1.000000
   141  H    1.000000
   142  H    1.000000
   143  H    1.000000
   144  H    1.000000
   145  H    1.000000
   146  H    1.000000
   147  H    1.000000
   148  H    1.000000
   149  H    1.000000
   150  H    1.000000
   151  H    1.000000
   152  H    1.000000
   153  H    1.000000
   154  H    1.000000
   155  H    1.000000
   156  H    1.000000
   157  H    1.000000
   158  H    1.000000
 Sum of Mulliken charges = 624.00000

 Dipole moment (field-independent basis, Debye):
    X=              0.0000    Y=              0.0000    Z=             -0.0000  Tot=              0.0000
 Quadrupole moment (field-independent basis, Debye-Ang):
   XX=             -0.0000   YY=             -0.0000   ZZ=              0.0000
   XY=             -0.0000   XZ=              0.0000   YZ=             -0.0000

 Normal termination of Gaussian 16 at Fri Oct 15 08:25:15 2021.
