 Gaussian 16, Revision A.03,
 Gaussian 16:  ES64L-G16RevA.03 25-Dec-2016

 --------------------------------------------------------
 #p PBE1PBE/Def2SVP td=(nstates=5) density=(transition=1)
 --------------------------------------------------------

 --------------------------------
 TDDFT excited states in gaussian
 --------------------------------
 Symbolic Z-matrix:
 Charge =  0 Multiplicity = 1

                         Standard orientation:
 ---------------------------------------------------------------------
 Center     Atomic      Atomic             Coordinates (Angstroms)
 Number     Number       Type             X           Y           Z
 ---------------------------------------------------------------------
      1         12           0       -9.940921   -0.928632    0.388750
      2          6           0      -10.000024    2.581703   -0.148150
      3          6           0       -7.889043   -0.220029    3.181543
      4          6           0       -9.499079   -4.135531    0.794848
      5          6           0      -11.723506   -1.356852   -2.566857
      6          7           0       -9.020042    1.004756    1.417119
      7          6           0       -9.312272    2.287091    1.021758
      8          6           0       -8.764819    3.343635    1.966395
      9          6           0       -7.975078    2.392682    2.964514
     10          6           0       -8.336461    0.963131    2.532703
     11          6           0       -6.494768    2.759466    3.013167
     12          6           0       -9.914798    4.124511    2.639675
     13          6           0       -9.715013    5.661226    2.927975
     14          1           0       -8.270155    6.211490    2.977033
     15          7           0       -8.907453   -2.045699    1.840607
     16          6           0       -8.067970   -1.559955    2.843517
     17          6           0       -7.546605   -2.710335    3.598579
     18          6           0       -8.100294   -3.867145    2.959111
     19          6           0       -8.906823   -3.338924    1.842191
     20          6           0       -6.610178   -2.585483    4.678396
     21          6           0       -7.900557   -5.336642    3.316097
     22          8           0       -8.371286   -6.237738    2.603924
     23          6           0       -7.295377   -5.725066    4.607686
     24          7           0      -10.441947   -2.523796   -0.787581
     25          6           0      -10.235971   -3.767433   -0.346179
     26          6           0      -10.733522   -4.822762   -1.386661
     27          6           0      -11.599298   -3.935413   -2.336386
     28          6           0      -11.254049   -2.538375   -1.925542
     29          6           0       -9.585264   -5.650151   -2.068856
     30          6           0      -13.094152   -4.285022   -1.978059
     31          6           0      -13.878663   -3.423701   -0.929232
     32          7           0      -10.806414    0.304740   -1.023066
     33          6           0      -11.498769   -0.035794   -2.199241
     34          6           0      -11.829033    1.217050   -2.922900
     35          6           0      -11.212893    2.217320   -2.180033
     36          6           0      -10.637249    1.691255   -1.042894
     37          6           0      -12.367356    1.165428   -4.271220
     38          6           0      -10.892067    3.641177   -2.241255
     39          8           0      -11.173018    4.439211   -3.128333
     40          6           0      -10.051567    3.953071   -0.915320
     41          6           0       -8.718590    4.514082   -1.244204
     42          8           0       -7.673692    3.880020   -1.359422
     43          8           0       -8.831776    5.909908   -1.387528
     44          6           0       -7.700145    6.725054   -1.767356
     45          1           0       -7.467127   -0.087859    4.180424
     46          1           0       -9.407435   -5.220463    0.882779
     47          1           0      -12.314133   -1.617472   -3.447257
     48          1           0       -8.098237    4.048030    1.468131
     49          1           0       -8.325051    2.654656    3.962633
     50          1           0       -6.107392    2.976458    4.008016
     51          1           0       -6.185015    3.592755    2.382421
     52          1           0       -5.947274    1.863931    2.716290
     53          1           0      -10.197666    3.659899    3.584174
     54          1           0      -10.717647    3.945321    1.923693
     55          1           0      -10.087997    5.911119    3.920659
     56          1           0      -10.439612    6.164214    2.287634
     57          1           0       -7.039044   -3.134044    5.517249
     58          1           0       -6.284568   -1.552270    4.795107
     59          1           0       -5.738213   -3.061829    4.229097
     60          1           0       -6.221362   -5.543416    4.657779
     61          1           0       -7.419929   -6.797508    4.756324
     62          1           0       -7.708753   -5.070537    5.374486
     63          1           0      -11.286514   -5.463098   -0.699403
     64          1           0      -11.436492   -4.184016   -3.385397
     65          1           0       -9.457410   -6.603536   -1.556034
     66          1           0       -8.707674   -5.004897   -2.092116
     67          1           0       -9.913450   -5.823757   -3.093540
     68          1           0      -13.185819   -5.361658   -1.833291
     69          1           0      -13.637678   -3.952795   -2.863040
     70          1           0      -14.392285   -4.172435   -0.326861
     71          1           0      -14.633418   -2.780607   -1.383696
     72          1           0      -13.273062   -2.827440   -0.247578
     73          1           0      -11.763232    0.475039   -4.858480
     74          1           0      -12.244058    2.164669   -4.690081
     75          1           0      -13.447379    1.021583   -4.256270
     76          1           0      -10.649406    4.716686   -0.416780
     77          1           0       -7.660744    6.940280   -2.834892
     78          1           0       -6.786270    6.390414   -1.276257
     79          1           0       -7.901854    7.627717   -1.189922
     80         12           0        9.896853   -0.456703   -0.154491
     81          6           0        7.966554    2.344066   -0.181733
     82          6           0       12.602023    1.340866    0.980274
     83          6           0       11.742586   -3.287812   -0.351608
     84          6           0        7.250757   -2.159014   -1.764484
     85          7           0       10.299510    1.666907    0.132442
     86          6           0        9.277298    2.531503    0.370360
     87          6           0        9.702290    3.772465    1.079524
     88          6           0       11.287965    3.484057    1.195626
     89          6           0       11.434070    2.068018    0.743930
     90          6           0       12.162659    4.481264    0.308768
     91          6           0        8.991333    3.817803    2.511770
     92          6           0        8.845556    5.186883    3.179588
     93          1           0        9.596658    6.464467    2.728893
     94          7           0       11.860407   -0.983261    0.337024
     95          6           0       12.832522   -0.068570    0.773854
     96          6           0       14.058548   -0.810530    0.955662
     97          6           0       13.816535   -2.154026    0.603797
     98          6           0       12.410249   -2.172707    0.225341
     99          6           0       15.329728   -0.129739    1.514623
    100          6           0       14.886315   -3.365538    0.537229
    101          8           0       14.551915   -4.542751    0.353351
    102          6           0       16.384412   -3.194649    0.727585
    103          7           0        9.484821   -2.496635   -0.908741
    104          6           0       10.456548   -3.440058   -0.891863
    105          6           0       10.059964   -4.664652   -1.714800
    106          6           0        8.451117   -4.429715   -1.896177
    107          6           0        8.309007   -2.978528   -1.410915
    108          6           0       10.914560   -4.930652   -3.037496
    109          6           0        7.485793   -5.302600   -0.944449
    110          6           0        6.313207   -6.055413   -1.545670
    111          7           0        7.951631   -0.086585   -0.819298
    112          6           0        7.018062   -0.824652   -1.445014
    113          6           0        5.759834   -0.028535   -1.595596
    114          6           0        6.122800    1.220678   -1.038648
    115          6           0        7.498060    1.137040   -0.710593
    116          6           0        4.424290   -0.404261   -2.132909
    117          6           0        5.566701    2.495623   -0.779585
    118          8           0        4.418147    2.934010   -0.995489
    119          6           0        6.739858    3.291483   -0.213172
    120          6           0        6.995837    4.422289   -1.075686
    121          8           0        7.219797    4.475247   -2.244514
    122          8           0        7.055963    5.536913   -0.244513
    123          6           0        7.370935    6.920209   -0.770499
    124          1           0       13.423710    1.786464    1.544135
    125          1           0       12.371141   -4.168506   -0.501414
    126          1           0        6.474347   -2.553187   -2.422559
    127          1           0        9.542783    4.760371    0.647890
    128          1           0       11.632652    3.574120    2.225745
    129          1           0       13.120763    4.779951    0.733487
    130          1           0       11.541879    5.323199    0.002754
    131          1           0       12.408683    3.939498   -0.605083
    132          1           0        9.495965    3.170361    3.229158
    133          1           0        7.997362    3.401312    2.346542
    134          1           0        9.065896    5.020578    4.234812
    135          1           0        7.790851    5.459365    3.181448
    136          1           0       15.192208    0.913680    1.797981
    137          1           0       16.098077   -0.232482    0.749059
    138          1           0       15.653277   -0.717041    2.374290
    139          1           0       16.496051   -2.941169    1.781159
    140          1           0       16.759458   -2.271854    0.284537
    141          1           0       16.923284   -4.027277    0.275887
    142          1           0       10.178903   -5.541737   -1.077539
    143          1           0        8.145956   -4.601666   -2.928550
    144          1           0       10.279324   -4.944369   -3.923468
    145          1           0       11.460343   -5.869191   -2.947684
    146          1           0       11.614833   -4.113654   -3.212999
    147          1           0        7.119478   -4.722619   -0.097500
    148          1           0        8.128512   -6.036767   -0.459576
    149          1           0        5.422906   -5.705299   -1.024448
    150          1           0        6.421725   -7.137520   -1.477871
    151          1           0        6.180282   -5.756097   -2.586248
    152          1           0        4.319516   -1.452977   -2.410481
    153          1           0        4.190143    0.170638   -3.029258
    154          1           0        3.675032   -0.178798   -1.374306
    155          1           0        6.541985    3.655920    0.795283
    156          1           0        7.585877    6.880277   -1.838569
    157          1           0        8.275169    7.296395   -0.290149
    158          1           0        6.484829    7.518256   -0.557934
 ---------------------------------------------------------------------

 SCF Done:  E(RPBE1PBE) =  -4067.37536454     A.U. after   17 cycles

 Excitation energies and oscillator strengths:

 Excited State   1:      Singlet-A      1.8129 eV  683.89 nm  f=0.0000  <S**2>=0.000
     312 -> 313        0.70706
 This state for optimization and/or second-order correction.
 Total Energy, E(TD-HF/TD-DFT) =  -4067.30874107
 Copying the excited state density for this state as the 1-particle RhoCI density.

 Excited State   2:      Singlet-A      1.8848 eV  657.81 nm  f=0.4622  <S**2>=0.000
     310 -> 316        0.18168
     311 -> 313        0.12863
     312 -> 314        0.67667

 Excited State   3:      Singlet-A      1.8927 eV  655.07 nm  f=0.2911  <S**2>=0.000
     309 -> 315        0.18306
     311 -> 313        0.67755
     312 -> 314       -0.12815
     311 <- 313       -0.10019

 Excited State   4:      Singlet-A      2.0460 eV  605.98 nm  f=0.0000  <S**2>=0.000
     311 -> 314        0.70709

 Excited State   5:      Singlet-A      2.2349 eV  554.76 nm  f=0.0927  <S**2>=0.000
     309 -> 313        0.65099
     311 -> 315       -0.26698

 The electronic state is 1-A.
 Alpha  occ. eigenvalues --  -46.92769 -46.91800 -19.24482 -19.24319 -19.19912
 Alpha  occ. eigenvalues --  -19.19709 -19.19530 -19.19493 -19.18928 -19.18726
 Alpha  occ. eigenvalues --  -14.41996 -14.41322 -14.41136 -14.40873 -14.39224
 Alpha  occ. eigenvalues --  -14.39096 -14.38945 -14.38603 -10.36290 -10.35567
 Alpha  occ. eigenvalues --  -10.33493 -10.32509 -10.32168 -10.31503 -10.29395
 Alpha  occ. eigenvalues --  -10.29091 -10.28580 -10.28439 -10.28428 -10.28332
 Alpha  occ. eigenvalues --  -10.28211 -10.27989 -10.27987 -10.27922 -10.27756
 Alpha  occ. eigenvalues --  -10.27712 -10.27660 -10.27596 -10.27487 -10.27026
 Alpha  occ. eigenvalues --  -10.26624 -10.26532 -10.26403 -10.26372 -10.26317
 Alpha  occ. eigenvalues --  -10.26249 -10.26137 -10.26110 -10.26054 -10.26041
 Alpha  occ. eigenvalues --  -10.25993 -10.25822 -10.25682 -10.25678 -10.25534
 Alpha  occ. eigenvalues --  -10.25383 -10.25339 -10.25090 -10.25078 -10.24986
 Alpha  occ. eigenvalues --  -10.24975 -10.24920 -10.24908 -10.24900 -10.24863
 Alpha  occ. eigenvalues --  -10.24671 -10.24565 -10.24312 -10.24148 -10.24042
 Alpha  occ. eigenvalues --  -10.24009 -10.23962 -10.23752 -10.23697 -10.23576
 Alpha  occ. eigenvalues --  -10.23573 -10.23555 -10.23497 -10.23166 -10.23029
 Alpha  occ. eigenvalues --  -10.22761 -10.22690 -10.22588 -10.22563 -10.22451
 Alpha  occ. eigenvalues --  -10.22359  -3.14762  -3.13925  -1.87623  -1.87118
 Alpha  occ. eigenvalues --   -1.86995  -1.86774  -1.86313  -1.86135  -1.10305
 Alpha  occ. eigenvalues --   -1.09219  -1.04380  -1.04318  -1.03683  -1.02947
 Alpha  occ. eigenvalues --   -1.01978  -1.01885  -1.00188  -0.99166  -0.99096
 Alpha  occ. eigenvalues --   -0.98481  -0.98289  -0.97661  -0.97273  -0.96071
 Alpha  occ. eigenvalues --   -0.87803  -0.86254  -0.83852  -0.82941  -0.82790
 Alpha  occ. eigenvalues --   -0.82637  -0.82511  -0.81833  -0.81476  -0.81324
 Alpha  occ. eigenvalues --   -0.81177  -0.81011  -0.80522  -0.80515  -0.78642
 Alpha  occ. eigenvalues --   -0.78214  -0.77733  -0.77500  -0.76619  -0.76589
 Alpha  occ. eigenvalues --   -0.76145  -0.75815  -0.75443  -0.75076  -0.74693
 Alpha  occ. eigenvalues --   -0.74661  -0.72989  -0.72743  -0.71797  -0.71373
 Alpha  occ. eigenvalues --   -0.71365  -0.71070  -0.70469  -0.69950  -0.69545
 Alpha  occ. eigenvalues --   -0.69018  -0.67014  -0.66518  -0.66439  -0.65647
 Alpha  occ. eigenvalues --   -0.63710  -0.63559  -0.63081  -0.63001  -0.62613
 Alpha  occ. eigenvalues --   -0.62240  -0.60939  -0.60434  -0.59703  -0.59664
 Alpha  occ. eigenvalues --   -0.59221  -0.59082  -0.59062  -0.58897  -0.58801
 Alpha  occ. eigenvalues --   -0.58649  -0.56314  -0.55974  -0.55062  -0.54664
 Alpha  occ. eigenvalues --   -0.54448  -0.53805  -0.53788  -0.53459  -0.53370
 Alpha  occ. eigenvalues --   -0.52879  -0.52460  -0.52335  -0.52302  -0.51626
 Alpha  occ. eigenvalues --   -0.50720  -0.50651  -0.50143  -0.49961  -0.49791
 Alpha  occ. eigenvalues --   -0.49648  -0.48705  -0.48645  -0.48332  -0.48284
 Alpha  occ. eigenvalues --   -0.48088  -0.47696  -0.47686  -0.47590  -0.47486
 Alpha  occ. eigenvalues --   -0.47342  -0.47212  -0.46804  -0.46711  -0.46627
 Alpha  occ. eigenvalues --   -0.46223  -0.46207  -0.46147  -0.46039  -0.45973
 Alpha  occ. eigenvalues --   -0.45854  -0.45362  -0.45214  -0.45115  -0.45065
 Alpha  occ. eigenvalues --   -0.44446  -0.44335  -0.44212  -0.44183  -0.44042
 Alpha  occ. eigenvalues --   -0.43976  -0.43709  -0.43566  -0.43538  -0.43330
 Alpha  occ. eigenvalues --   -0.42989  -0.42929  -0.42872  -0.42778  -0.42594
 Alpha  occ. eigenvalues --   -0.42574  -0.42297  -0.42121  -0.41937  -0.41936
 Alpha  occ. eigenvalues --   -0.41601  -0.41500  -0.41284  -0.41173  -0.41153
 Alpha  occ. eigenvalues --   -0.40939  -0.40856  -0.40791  -0.40627  -0.40343
 Alpha  occ. eigenvalues --   -0.40107  -0.39869  -0.39590  -0.39421  -0.39297
 Alpha  occ. eigenvalues --   -0.39141  -0.39021  -0.38958  -0.38846  -0.38767
 Alpha  occ. eigenvalues --   -0.38744  -0.38698  -0.38642  -0.38523  -0.38373
 Alpha  occ. eigenvalues --   -0.38114  -0.38065  -0.38038  -0.37624  -0.37515
 Alpha  occ. eigenvalues --   -0.37391  -0.37132  -0.36678  -0.36649  -0.36556
 Alpha  occ. eigenvalues --   -0.36462  -0.36153  -0.35972  -0.35964  -0.35896
 Alpha  occ. eigenvalues --   -0.35822  -0.35664  -0.35249  -0.35096  -0.35076
 Alpha  occ. eigenvalues --   -0.34721  -0.34674  -0.34343  -0.34082  -0.33394
 Alpha  occ. eigenvalues --   -0.33324  -0.32792  -0.32602  -0.32562  -0.32306
 Alpha  occ. eigenvalues --   -0.32032  -0.31830  -0.31595  -0.31585  -0.31024
 Alpha  occ. eigenvalues --   -0.30866  -0.30622  -0.29411  -0.29328  -0.29174
 Alpha  occ. eigenvalues --   -0.28941  -0.28664  -0.28540  -0.26801  -0.26497
 Alpha  occ. eigenvalues --   -0.26095  -0.25989  -0.25727  -0.25688  -0.25673
 Alpha  occ. eigenvalues --   -0.25567  -0.25461  -0.25000  -0.20783  -0.20660
 Alpha  occ. eigenvalues --   -0.18767  -0.18332
 Alpha virt. eigenvalues --   -0.10990  -0.10570  -0.05182  -0.05056  -0.04188
 Alpha virt. eigenvalues --   -0.03869  -0.02117  -0.02082  -0.00101   0.00402
 Alpha virt. eigenvalues --    0.00656   0.00767   0.01209   0.01353   0.01618

 Mulliken charges:
               1
     1  Mg  12.000000
     2  C    6.000000
     3  C    6.000000
     4  C    6.000000
     5  C    6.000000
     6  N    7.000000
     7  C    6.000000
     8  C    6.000000
     9  C    6.000000
    10  C    6.000000
    11  C    6.000000
    12  C    6.000000
    13  C    6.000000
    14  H    1.000000
    15  N    7.000000
    16  C    6.000000
    17  C    6.000000
    18  C    6.000000
    19  C    6.000000
    20  C    6.000000
    21  C    6.000000
    22  O    8.000000
    23  C    6.000000
    24  N    7.000000
    25  C    6.000000
    26  C    6.000000
    27  C    6.000000
    28  C    6.000000
    29  C    6.000000
    30  C    6.000000
    31  C    6.000000
    32  N    7.000000
    33  C    6.000000
    34  C    6.000000
    35  C    6.000000
    36  C    6.000000
    37  C    6.000000
    38  C    6.000000
    39  O    8.000000
    40  C    6.000000
    41  C    6.000000
    42  O    8.000000
    43  O    8.000000
    44  C    6.000000
    45  H    1.000000
    46  H    1.000000
    47  H    1.000000
    48  H    1.000000
    49  H    1.000000
    50  H    1.000000
    51  H    1.000000
    52  H    1.000000
    53  H    1.000000
    54  H    1.000000
    55  H    1.000000
    56  H    1.000000
    57  H    1.000000
    58  H    1.000000
    59  H    1.000000
    60  H    1.000000
    61  H    1.000000
    62  H    1.000000
    63  H    1.000000
    64  H    1.000000
    65  H    1.000000
    66  H    1.000000
    67  H    1.000000
    68  H    1.000000
    69  H    1.000000
    70  H    1.000000
    71  H    1.000000
    72  H    1.000000
    73  H    1.000000
    74  H    1.000000
    75  H    1.000000
    76  H    1.000000
    77  H    1.000000
    78  H    1.000000
    79  H    1.000000
    80  Mg  12.000000
    81  C    6.000000
    82  C    6.000000
    83  C    6.000000
    84  C    6.000000
    85  N    7.000000
    86  C    6.000000
    87  C    6.000000
    88  C    6.000000
    89  C    6.000000
    90  C    6.000000
    91  C    6.000000
    92  C    6.000000
    93  H    1.000000
    94  N    7.000000
    95  C    6.000000
    96  C    6.000000
    97  C    6.000000
    98  C    6.000000
    99  C    6.000000
   100  C    6.000000
   101  O    8.000000
   102  C    6.000000
   103  N    7.000000
   104  C    6.000000
   105  C    6.000000
   106  C    6.000000
   107  C    6.000000
   108  C    6.000000
   109  C    6.000000
   110  C    6.000000
   111  N    7.000000
   112  C    6.000000
   113  C    6.000000
   114  C    6.000000
   115  C    6.000000
   116  C    6.000000
   117  C    6.000000
   118  O    8.000000
   119  C    6.000000
   120  C    6.000000
   121  O    8.000000
   122  O    8.000000
   123  C    6.000000
   124  H    1.000000
   125  H    1.000000
   126  H    1.000000
   127  H    1.000000
   128  H    1.000000
   129  H    1.000000
   130  H    1.000000
   131  H    1.000000
   132  H    1.000000
   133  H    1.000000
   134  H    1.000000
   135  H    1.000000
   136  H    1.000000
   137  H    1.000000
   138  H    1.000000
   139  H    1.000000
   140  H    1.000000
   141  H    1.000000
   142  H    1.000000
   143  H    1.000000
   144  H    1.000000
   145  H    1.000000
   146  H    1.000000
   147  H    1.000000
   148  H    1.000000
   149  H    1.000000
   150  H    1.000000
   151  H    1.000000
   152  H    1.000000
   153  H    1.000000
   154  H    1.000000
   155  H    1.000000
   156  H    1.000000
   157  H    1.000000
   158  H    1.000000
 Sum of Mulliken charges = 624.00000

 Dipole moment (field-independent basis, Debye):
    X=              0.0000    Y=             -0.0000    Z=              0.0000  Tot=              0.0000
 Quadrupole moment (field-independent basis, Debye-Ang):
   XX=             -0.0000   YY=              0.0000   ZZ=              0.0000
   XY=              0.0000   XZ=             -0.0000   YZ=             -0.0000

 Normal termination of Gaussian 16 at Thu Oct 14 11:32:45 2021.
