 Gaussian 16, Revision A.03,
 Gaussian 16:  ES64L-G16RevA.03 25-Dec-2016

 --------------------------------------------------------
 #p PBE1PBE/Def2SVP td=(nstates=5) density=(transition=1)
 --------------------------------------------------------

 --------------------------------
 TDDFT excited states in gaussian
 --------------------------------
 Symbolic Z-matrix:
 Charge =  0 Multiplicity = 1

                         Standard orientation:
 ---------------------------------------------------------------------
 Center     Atomic      Atomic             Coordinates (Angstroms)
 Number     Number       Type             X           Y           Z
 ---------------------------------------------------------------------
      1         12           0        4.771740   -0.704988   -0.409754
      2          6           0        2.935244    2.246426   -1.001875
      3          6           0        7.625907    1.201807   -0.238645
      4          6           0        6.603706   -3.477009    0.080472
      5          6           0        1.953892   -2.638031   -1.162258
      6          7           0        5.109192    1.454419   -0.475856
      7          6           0        4.318585    2.499127   -0.704583
      8          6           0        4.987924    3.889066   -0.679552
      9          6           0        6.506863    3.372014   -0.720715
     10          6           0        6.408529    1.881378   -0.506263
     11          6           0        7.228506    3.708612   -2.003004
     12          6           0        4.657051    4.768770    0.649436
     13          6           0        4.757374    6.278252    0.411009
     14          1           0        3.431374    7.046827    0.645288
     15          7           0        6.840490   -1.105970    0.052216
     16          6           0        7.870347   -0.133400    0.019185
     17          6           0        9.048165   -0.756728    0.579486
     18          6           0        8.778082   -2.116316    0.706653
     19          6           0        7.352013   -2.308985    0.295556
     20          6           0       10.382436   -0.052789    0.739591
     21          6           0        9.621165   -3.263469    1.214602
     22          8           0        9.142516   -4.355819    1.309435
     23          6           0       11.029591   -3.069555    1.680727
     24          7           0        4.416532   -2.756341   -0.711181
     25          6           0        5.313240   -3.725499   -0.367134
     26          6           0        4.576937   -5.082915   -0.540449
     27          6           0        3.098671   -4.786816   -0.361622
     28          6           0        3.096283   -3.300535   -0.790263
     29          6           0        4.818911   -5.612530   -1.953177
     30          6           0        2.576261   -5.034516    1.005031
     31          6           0        3.351781   -4.518303    2.191699
     32          7           0        2.815270   -0.338267   -0.939350
     33          6           0        1.771128   -1.196846   -1.227603
     34          6           0        0.573257   -0.399827   -1.534163
     35          6           0        0.994536    0.937068   -1.427802
     36          6           0        2.316643    0.919521   -1.076085
     37          6           0       -0.744362   -0.919025   -1.919207
     38          6           0        0.564896    2.309482   -1.399724
     39          8           0       -0.582696    2.821621   -1.553718
     40          6           0        1.854595    3.204094   -1.081296
     41          6           0        2.043095    4.114457   -2.267058
     42          8           0        2.015350    3.723981   -3.396420
     43          8           0        2.319578    5.473926   -1.958307
     44          6           0        2.822177    6.295028   -3.101551
     45          1           0        8.549745    1.782992   -0.232395
     46          1           0        7.181489   -4.402543    0.132763
     47          1           0        1.001979   -3.168569   -1.235588
     48          1           0        4.641980    4.485176   -1.524912
     49          1           0        6.977537    3.883386    0.119874
     50          1           0        7.806387    4.609319   -1.796556
     51          1           0        6.558910    3.778100   -2.860537
     52          1           0        7.983621    2.927251   -2.088274
     53          1           0        5.359989    4.516708    1.444046
     54          1           0        3.674870    4.510418    1.045773
     55          1           0        5.119765    6.309982   -0.616703
     56          1           0        5.560531    6.733142    0.990448
     57          1           0       10.129492    1.006468    0.713881
     58          1           0       10.894321   -0.295578   -0.191170
     59          1           0       10.873990   -0.300114    1.680718
     60          1           0       10.835497   -2.537522    2.612212
     61          1           0       11.639409   -2.438591    1.034681
     62          1           0       11.512230   -4.034261    1.840982
     63          1           0        4.912847   -5.881800    0.119741
     64          1           0        2.426101   -5.378719   -0.981542
     65          1           0        4.041089   -5.510795   -2.710045
     66          1           0        5.059036   -6.671994   -1.864462
     67          1           0        5.717873   -5.132171   -2.341145
     68          1           0        2.371541   -6.091511    1.176822
     69          1           0        1.608024   -4.534251    1.007066
     70          1           0        2.737080   -3.727082    2.621861
     71          1           0        4.355941   -4.098988    2.122289
     72          1           0        3.389780   -5.310342    2.939415
     73          1           0       -0.662294   -1.340253   -2.921115
     74          1           0       -1.397053   -0.049774   -1.839395
     75          1           0       -1.053783   -1.742099   -1.273670
     76          1           0        1.620765    3.689748   -0.133717
     77          1           0        1.997266    6.577073   -3.755748
     78          1           0        3.583252    5.785809   -3.694544
     79          1           0        3.237816    7.268618   -2.843386
     80         12           0       -4.904592   -0.582473    0.201929
     81          6           0       -2.947805    2.239690    0.988870
     82          6           0       -7.596826    1.449408   -0.190541
     83          6           0       -6.761840   -3.337379   -0.431374
     84          6           0       -2.215661   -2.605357    1.059910
     85          7           0       -5.258757    1.545254    0.469639
     86          6           0       -4.288242    2.528139    0.682247
     87          6           0       -4.908161    3.883034    0.516313
     88          6           0       -6.419657    3.574737    0.635078
     89          6           0       -6.432382    2.066750    0.274795
     90          6           0       -7.091903    3.786867    2.028231
     91          6           0       -4.538471    4.650817   -0.808373
     92          6           0       -4.141036    6.078387   -0.606144
     93          1           0       -4.753484    7.106891   -1.575202
     94          7           0       -6.830306   -0.860649   -0.337514
     95          6           0       -7.806008    0.128018   -0.547485
     96          6           0       -9.006153   -0.463800   -0.987209
     97          6           0       -8.800822   -1.920172   -1.082833
     98          6           0       -7.448563   -2.089924   -0.633251
     99          6           0      -10.315031    0.244809   -1.179656
    100          6           0       -9.772407   -3.121944   -1.457874
    101          8           0       -9.367790   -4.259902   -1.490081
    102          6           0      -11.209837   -2.863174   -1.886129
    103          7           0       -4.563745   -2.681582    0.409359
    104          6           0       -5.513887   -3.599413    0.094214
    105          6           0       -4.961335   -5.080603    0.360906
    106          6           0       -3.398731   -4.847296    0.550507
    107          6           0       -3.367586   -3.265796    0.690115
    108          6           0       -5.582702   -5.841329    1.564781
    109          6           0       -2.519277   -5.366526   -0.642226
    110          6           0       -1.449563   -6.259499   -0.171055
    111          7           0       -2.991270   -0.280290    0.930264
    112          6           0       -1.965193   -1.202626    1.129863
    113          6           0       -0.761648   -0.517963    1.516350
    114          6           0       -1.109158    0.817461    1.500434
    115          6           0       -2.411346    0.929411    1.127146
    116          6           0        0.577835   -1.259985    1.762815
    117          6           0       -0.627882    2.163614    1.750974
    118          8           0        0.437190    2.499696    2.219959
    119          6           0       -1.845775    3.168368    1.441674
    120          6           0       -2.156005    3.933809    2.663035
    121          8           0       -2.480611    3.418048    3.764725
    122          8           0       -1.989658    5.260473    2.392649
    123          6           0       -1.891370    6.123861    3.599264
    124          1           0       -8.425050    2.157922   -0.257104
    125          1           0       -7.291891   -4.276703   -0.601189
    126          1           0       -1.404715   -3.255351    1.393557
    127          1           0       -4.723540    4.560746    1.350691
    128          1           0       -7.037420    4.155400   -0.050192
    129          1           0       -6.673006    4.616113    2.599797
    130          1           0       -6.994133    2.847120    2.572370
    131          1           0       -8.175144    3.904958    2.018483
    132          1           0       -5.415514    4.546778   -1.446894
    133          1           0       -3.756044    4.135056   -1.365824
    134          1           0       -3.057217    6.006228   -0.698214
    135          1           0       -4.482093    6.417170    0.372036
    136          1           0      -10.623431    0.395084   -2.214495
    137          1           0      -10.227436    1.263093   -0.802958
    138          1           0      -11.201569   -0.165030   -0.696475
    139          1           0      -11.593162   -3.826998   -2.218855
    140          1           0      -11.275256   -2.041257   -2.599662
    141          1           0      -11.755097   -2.384192   -1.072356
    142          1           0       -5.221818   -5.729287   -0.475590
    143          1           0       -3.094779   -5.315845    1.487735
    144          1           0       -6.288828   -5.283082    2.180353
    145          1           0       -4.836226   -6.213049    2.267149
    146          1           0       -6.100071   -6.707597    1.151600
    147          1           0       -2.025188   -4.511731   -1.105575
    148          1           0       -3.064454   -5.937060   -1.393859
    149          1           0       -1.762521   -7.290972   -0.335113
    150          1           0       -1.067332   -6.141445    0.842262
    151          1           0       -0.536079   -6.052401   -0.728621
    152          1           0        0.516132   -2.255241    1.321990
    153          1           0        0.871696   -1.217943    2.812613
    154          1           0        1.300599   -0.704160    1.166673
    155          1           0       -1.605839    3.851903    0.626840
    156          1           0       -1.625362    7.141784    3.314840
    157          1           0       -1.018951    5.753040    4.137734
    158          1           0       -2.826828    6.004968    4.146681
 ---------------------------------------------------------------------

 SCF Done:  E(RPBE1PBE) =  -4067.39795455     A.U. after   17 cycles

 Excitation energies and oscillator strengths:

 Excited State   1:      Singlet-A      1.5542 eV  797.75 nm  f=0.0221  <S**2>=0.000
     312 -> 313        0.69461
     312 -> 314       -0.10678
 This state for optimization and/or second-order correction.
 Total Energy, E(TD-HF/TD-DFT) =  -4067.34083990
 Copying the excited state density for this state as the 1-particle RhoCI density.

 Excited State   2:      Singlet-A      1.7262 eV  718.24 nm  f=0.2107  <S**2>=0.000
     311 -> 313        0.45653
     311 -> 314        0.48706
     312 -> 314        0.21400

 Excited State   3:      Singlet-A      1.8000 eV  688.78 nm  f=0.5515  <S**2>=0.000
     309 -> 315       -0.12473
     311 -> 313       -0.43885
     311 -> 314        0.50893
     312 -> 314       -0.17295

 Excited State   4:      Singlet-A      1.8989 eV  652.94 nm  f=0.1370  <S**2>=0.000
     310 -> 316       -0.15474
     311 -> 313       -0.28024
     312 -> 314        0.62627

 Excited State   5:      Singlet-A      2.0437 eV  606.67 nm  f=0.0011  <S**2>=0.000
     310 -> 313        0.70094

 The electronic state is 1-A.
 Alpha  occ. eigenvalues --  -46.91910 -46.90062 -19.25691 -19.25087 -19.20162
 Alpha  occ. eigenvalues --  -19.19578 -19.19156 -19.19120 -19.19087 -19.18961
 Alpha  occ. eigenvalues --  -14.42569 -14.40988 -14.40920 -14.40582 -14.39138
 Alpha  occ. eigenvalues --  -14.38854 -14.38453 -14.37761 -10.36343 -10.35735
 Alpha  occ. eigenvalues --  -10.32984 -10.32350 -10.31979 -10.31852 -10.29228
 Alpha  occ. eigenvalues --  -10.28930 -10.28886 -10.28860 -10.28768 -10.28476
 Alpha  occ. eigenvalues --  -10.28191 -10.28170 -10.27949 -10.27861 -10.27841
 Alpha  occ. eigenvalues --  -10.27693 -10.27599 -10.27395 -10.26899 -10.26598
 Alpha  occ. eigenvalues --  -10.26513 -10.26465 -10.26319 -10.26019 -10.25953
 Alpha  occ. eigenvalues --  -10.25952 -10.25658 -10.25630 -10.25469 -10.25348
 Alpha  occ. eigenvalues --  -10.25306 -10.25214 -10.25177 -10.25171 -10.25098
 Alpha  occ. eigenvalues --  -10.25079 -10.24965 -10.24911 -10.24847 -10.24818
 Alpha  occ. eigenvalues --  -10.24786 -10.24749 -10.24650 -10.24631 -10.24476
 Alpha  occ. eigenvalues --  -10.24410 -10.24099 -10.23948 -10.23676 -10.23640
 Alpha  occ. eigenvalues --  -10.23582 -10.23575 -10.23421 -10.23269 -10.23228
 Alpha  occ. eigenvalues --  -10.22958 -10.22952 -10.22922 -10.22895 -10.22579
 Alpha  occ. eigenvalues --  -10.22568 -10.22361 -10.22331 -10.22319 -10.21905
 Alpha  occ. eigenvalues --  -10.21590  -3.13992  -3.12368  -1.86855  -1.86343
 Alpha  occ. eigenvalues --   -1.86233  -1.85215  -1.84731  -1.84618  -1.10280
 Alpha  occ. eigenvalues --   -1.09899  -1.06551  -1.05950  -1.04859  -1.02278
 Alpha  occ. eigenvalues --   -1.01803  -1.00492  -0.99680  -0.98891  -0.97886
 Alpha  occ. eigenvalues --   -0.97810  -0.97558  -0.96744  -0.96363  -0.95493
 Alpha  occ. eigenvalues --   -0.87273  -0.86225  -0.84223  -0.83622  -0.82871
 Alpha  occ. eigenvalues --   -0.82746  -0.82599  -0.81902  -0.81835  -0.81243
 Alpha  occ. eigenvalues --   -0.80873  -0.80695  -0.80165  -0.79647  -0.78697
 Alpha  occ. eigenvalues --   -0.77899  -0.77861  -0.77839  -0.76737  -0.76588
 Alpha  occ. eigenvalues --   -0.76437  -0.75743  -0.75348  -0.74970  -0.74468
 Alpha  occ. eigenvalues --   -0.74115  -0.72885  -0.72004  -0.71598  -0.71361
 Alpha  occ. eigenvalues --   -0.71025  -0.70630  -0.70433  -0.69545  -0.69257
 Alpha  occ. eigenvalues --   -0.68759  -0.66892  -0.66766  -0.65662  -0.64883
 Alpha  occ. eigenvalues --   -0.64066  -0.63212  -0.62528  -0.62337  -0.62150
 Alpha  occ. eigenvalues --   -0.61210  -0.61173  -0.60305  -0.60000  -0.59405
 Alpha  occ. eigenvalues --   -0.59334  -0.59172  -0.58743  -0.58530  -0.58062
 Alpha  occ. eigenvalues --   -0.57884  -0.56309  -0.55968  -0.54703  -0.54303
 Alpha  occ. eigenvalues --   -0.54286  -0.54051  -0.53662  -0.53548  -0.53266
 Alpha  occ. eigenvalues --   -0.52881  -0.52317  -0.52236  -0.51871  -0.51317
 Alpha  occ. eigenvalues --   -0.50821  -0.50269  -0.50186  -0.49705  -0.49458
 Alpha  occ. eigenvalues --   -0.49132  -0.49076  -0.48956  -0.48580  -0.48392
 Alpha  occ. eigenvalues --   -0.48346  -0.48012  -0.47837  -0.47603  -0.47576
 Alpha  occ. eigenvalues --   -0.47251  -0.47072  -0.46851  -0.46621  -0.46459
 Alpha  occ. eigenvalues --   -0.46283  -0.46073  -0.45881  -0.45845  -0.45690
 Alpha  occ. eigenvalues --   -0.45403  -0.45375  -0.45296  -0.44812  -0.44736
 Alpha  occ. eigenvalues --   -0.44678  -0.44486  -0.44084  -0.44078  -0.43920
 Alpha  occ. eigenvalues --   -0.43871  -0.43821  -0.43722  -0.43602  -0.43249
 Alpha  occ. eigenvalues --   -0.43128  -0.42982  -0.42800  -0.42492  -0.42365
 Alpha  occ. eigenvalues --   -0.42120  -0.42051  -0.42024  -0.41856  -0.41578
 Alpha  occ. eigenvalues --   -0.41381  -0.41282  -0.40985  -0.40942  -0.40720
 Alpha  occ. eigenvalues --   -0.40351  -0.40319  -0.40116  -0.40065  -0.40024
 Alpha  occ. eigenvalues --   -0.39978  -0.39760  -0.39594  -0.39471  -0.39232
 Alpha  occ. eigenvalues --   -0.39146  -0.38939  -0.38898  -0.38777  -0.38701
 Alpha  occ. eigenvalues --   -0.38506  -0.38421  -0.38227  -0.38014  -0.37945
 Alpha  occ. eigenvalues --   -0.37771  -0.37678  -0.37511  -0.37289  -0.37212
 Alpha  occ. eigenvalues --   -0.37075  -0.37001  -0.36954  -0.36636  -0.36565
 Alpha  occ. eigenvalues --   -0.36356  -0.36305  -0.36062  -0.35911  -0.35794
 Alpha  occ. eigenvalues --   -0.35753  -0.35250  -0.35209  -0.35082  -0.34973
 Alpha  occ. eigenvalues --   -0.34667  -0.34253  -0.34240  -0.33772  -0.33219
 Alpha  occ. eigenvalues --   -0.32990  -0.32909  -0.32620  -0.32480  -0.32223
 Alpha  occ. eigenvalues --   -0.32100  -0.31919  -0.31251  -0.31140  -0.31114
 Alpha  occ. eigenvalues --   -0.30817  -0.30451  -0.29745  -0.29421  -0.28966
 Alpha  occ. eigenvalues --   -0.28762  -0.28482  -0.27983  -0.27010  -0.26409
 Alpha  occ. eigenvalues --   -0.26070  -0.25897  -0.25666  -0.25584  -0.25469
 Alpha  occ. eigenvalues --   -0.25321  -0.24793  -0.24515  -0.20912  -0.20342
 Alpha  occ. eigenvalues --   -0.18865  -0.18583
 Alpha virt. eigenvalues --   -0.11397  -0.10879  -0.05159  -0.04305  -0.04008
 Alpha virt. eigenvalues --   -0.02994  -0.02218  -0.01134   0.00259   0.00472
 Alpha virt. eigenvalues --    0.00839   0.01120   0.01359   0.01642   0.02249

 Mulliken charges:
               1
     1  Mg  12.000006
     2  C    5.996842
     3  C    5.998962
     4  C    6.001548
     5  C    5.999709
     6  N    6.997988
     7  C    6.002707
     8  C    5.999102
     9  C    6.001294
    10  C    5.998076
    11  C    6.000373
    12  C    6.000021
    13  C    6.000323
    14  H    0.998979
    15  N    7.000576
    16  C    5.997263
    17  C    5.998714
    18  C    5.998462
    19  C    5.997467
    20  C    5.999978
    21  C    5.998892
    22  O    7.997535
    23  C    6.000271
    24  N    7.001011
    25  C    5.997507
    26  C    6.000412
    27  C    5.999830
    28  C    6.001416
    29  C    6.000004
    30  C    5.999920
    31  C    5.999893
    32  N    7.000243
    33  C    6.003063
    34  C    6.002700
    35  C    5.998182
    36  C    6.002658
    37  C    6.001683
    38  C    6.000513
    39  O    7.996961
    40  C    6.000674
    41  C    6.000034
    42  O    7.999438
    43  O    7.999954
    44  C    6.000210
    45  H    0.998313
    46  H    0.999338
    47  H    1.000389
    48  H    0.999443
    49  H    0.999092
    50  H    0.998809
    51  H    0.998770
    52  H    1.000141
    53  H    1.000358
    54  H    0.999791
    55  H    1.000028
    56  H    0.999830
    57  H    0.998933
    58  H    0.998519
    59  H    0.998498
    60  H    0.999320
    61  H    0.999305
    62  H    0.998526
    63  H    0.999669
    64  H    0.999326
    65  H    0.998926
    66  H    0.999393
    67  H    1.000344
    68  H    0.999652
    69  H    0.999491
    70  H    1.000381
    71  H    1.001106
    72  H    0.999528
    73  H    0.998142
    74  H    0.999567
    75  H    1.000043
    76  H    1.000021
    77  H    0.999378
    78  H    1.000128
    79  H    0.999746
    80  Mg  12.001281
    81  C    6.002907
    82  C    6.002425
    83  C    5.997043
    84  C    5.997891
    85  N    7.002003
    86  C    5.998135
    87  C    6.000808
    88  C    5.999165
    89  C    6.002011
    90  C    5.999475
    91  C    6.000244
    92  C    5.999710
    93  H    1.000334
    94  N    6.999654
    95  C    6.002390
    96  C    6.002889
    97  C    6.001215
    98  C    6.003944
    99  C    5.999286
   100  C    6.001557
   101  O    8.002723
   102  C    5.999781
   103  N    6.997742
   104  C    6.004552
   105  C    5.999133
   106  C    6.000022
   107  C    6.001502
   108  C    5.999696
   109  C    6.000268
   110  C    5.999652
   111  N    6.998687
   112  C    6.000768
   113  C    5.992734
   114  C    6.001062
   115  C    5.998612
   116  C    6.001634
   117  C    5.999006
   118  O    7.997656
   119  C    6.000002
   120  C    5.999509
   121  O    7.999888
   122  O    7.999928
   123  C    5.999908
   124  H    1.002622
   125  H    1.000990
   126  H    1.000252
   127  H    1.000752
   128  H    1.000828
   129  H    1.002207
   130  H    1.000358
   131  H    1.000376
   132  H    0.998959
   133  H    1.001022
   134  H    1.001107
   135  H    0.999987
   136  H    1.002766
   137  H    1.001739
   138  H    1.002474
   139  H    1.001781
   140  H    1.000606
   141  H    1.000760
   142  H    1.000698
   143  H    1.000846
   144  H    1.000040
   145  H    1.001444
   146  H    1.000550
   147  H    1.000486
   148  H    0.999615
   149  H    0.999889
   150  H    1.000651
   151  H    1.000834
   152  H    0.997975
   153  H    0.997517
   154  H    0.997884
   155  H    0.999565
   156  H    0.999997
   157  H    1.000569
   158  H    0.999380
 Sum of Mulliken charges = 624.00000

 Dipole moment (field-independent basis, Debye):
    X=             -2.7254    Y=             -0.1150    Z=             -0.2474  Tot=              2.7390
 Quadrupole moment (field-independent basis, Debye-Ang):
   XX=              4.1011   YY=              0.0994   ZZ=             -0.2470
   XY=              2.0262   XZ=              0.6364   YZ=              0.5627

 Normal termination of Gaussian 16 at Wed Oct 13 20:48:10 2021.
