 Gaussian 16, Revision A.03,
 Gaussian 16:  ES64L-G16RevA.03 25-Dec-2016

 --------------------------------------------------------
 #p PBE1PBE/Def2SVP td=(nstates=5) density=(transition=1)
 --------------------------------------------------------

 --------------------------------
 TDDFT excited states in gaussian
 --------------------------------
 Symbolic Z-matrix:
 Charge =  0 Multiplicity = 1

                         Standard orientation:
 ---------------------------------------------------------------------
 Center     Atomic      Atomic             Coordinates (Angstroms)
 Number     Number       Type             X           Y           Z
 ---------------------------------------------------------------------
      1         12           0       16.529157   -0.568476    0.266566
      2          6           0       15.531345    2.408601   -1.140200
      3          6           0       18.010185    1.267722    2.853750
      4          6           0       17.627583   -3.437270    1.665805
      5          6           0       15.401800   -2.256653   -2.453062
      6          7           0       16.959326    1.641492    0.633923
      7          6           0       16.220521    2.658323    0.016281
      8          6           0       16.291612    3.983719    0.800171
      9          6           0       17.198435    3.555631    2.012220
     10          6           0       17.391625    2.058793    1.897592
     11          6           0       18.522564    4.307342    2.062797
     12          6           0       14.964521    4.678785    1.268971
     13          6           0       14.590150    6.100709    0.579289
     14          1           0       14.480447    7.213397    1.626374
     15          7           0       17.723318   -1.024669    1.920291
     16          6           0       18.119282   -0.131783    2.929206
     17          6           0       18.644438   -0.845489    4.097888
     18          6           0       18.630465   -2.305242    3.761183
     19          6           0       17.916534   -2.345784    2.422862
     20          6           0       19.132278   -0.143192    5.345828
     21          6           0       19.104775   -3.469296    4.495419
     22          8           0       19.072791   -4.588049    3.961900
     23          6           0       19.713299   -3.381876    5.884077
     24          7           0       16.572975   -2.472284   -0.362464
     25          6           0       16.960602   -3.563597    0.436894
     26          6           0       16.640525   -4.987359   -0.174255
     27          6           0       15.934300   -4.519402   -1.549315
     28          6           0       15.957898   -2.978403   -1.434356
     29          6           0       17.928846   -5.922305   -0.400856
     30          6           0       14.488494   -5.108584   -1.688508
     31          6           0       14.033328   -5.537477   -3.048227
     32          7           0       15.722272    0.001245   -1.525835
     33          6           0       15.247977   -0.828193   -2.546132
     34          6           0       14.542254   -0.075979   -3.526511
     35          6           0       14.547518    1.245182   -2.943844
     36          6           0       15.340680    1.208246   -1.790027
     37          6           0       13.844035   -0.491180   -4.752933
     38          6           0       14.190654    2.605452   -3.199980
     39          8           0       13.542066    3.189726   -4.074943
     40          6           0       14.962123    3.443202   -2.081951
     41          6           0       15.956332    4.326166   -2.747416
     42          8           0       17.105271    4.161645   -2.877711
     43          8           0       15.355718    5.523167   -3.130418
     44          6           0       16.254909    6.653169   -3.238529
     45          1           0       18.391449    1.841711    3.700916
     46          1           0       17.867197   -4.433522    2.043153
     47          1           0       14.906323   -2.808361   -3.254622
     48          1           0       16.848487    4.707646    0.206233
     49          1           0       16.745406    3.819392    2.968289
     50          1           0       19.332753    3.599880    1.888215
     51          1           0       18.552507    4.665663    3.091073
     52          1           0       18.596319    5.183931    1.419519
     53          1           0       15.029853    4.827431    2.347100
     54          1           0       14.095663    4.055202    1.057958
     55          1           0       13.588292    5.908668    0.194823
     56          1           0       15.325394    6.359456   -0.182335
     57          1           0       20.087329    0.317077    5.089579
     58          1           0       19.279034   -0.896183    6.118618
     59          1           0       18.502482    0.693888    5.647857
     60          1           0       20.253325   -4.318639    6.023245
     61          1           0       18.981987   -3.217608    6.676158
     62          1           0       20.536150   -2.681628    6.026484
     63          1           0       15.865343   -5.475769    0.415320
     64          1           0       16.428621   -4.860577   -2.459187
     65          1           0       17.800931   -6.460230   -1.340437
     66          1           0       18.063752   -6.748283    0.296411
     67          1           0       18.864263   -5.362663   -0.417960
     68          1           0       13.709213   -4.471358   -1.270778
     69          1           0       14.367708   -6.047894   -1.149211
     70          1           0       13.244357   -4.831362   -3.306631
     71          1           0       13.478741   -6.466752   -3.178573
     72          1           0       14.860959   -5.462938   -3.754372
     73          1           0       13.514288   -1.522796   -4.626864
     74          1           0       14.617710   -0.457378   -5.519900
     75          1           0       13.110505    0.272773   -5.011330
     76          1           0       14.258100    4.064808   -1.529292
     77          1           0       16.771289    6.484529   -4.182909
     78          1           0       16.949201    6.554700   -2.404198
     79          1           0       15.710529    7.597031   -3.279695
     80         12           0      -16.076589   -0.783654    0.062198
     81          6           0      -17.925608    1.952131    1.142245
     82          6           0      -13.435067    1.424614   -0.356840
     83          6           0      -14.410187   -3.320820   -1.471469
     84          6           0      -18.885611   -2.773124    0.389763
     85          7           0      -15.746803    1.447722    0.310028
     86          6           0      -16.638961    2.385944    0.806424
     87          6           0      -16.080169    3.862963    0.800167
     88          6           0      -14.740913    3.639485   -0.003653
     89          6           0      -14.627140    2.071769   -0.068227
     90          6           0      -14.560091    4.211333   -1.412836
     91          6           0      -15.934234    4.401147    2.235330
     92          6           0      -16.924787    5.444341    2.681098
     93          1           0      -16.391800    6.560227    3.597224
     94          7           0      -14.136458   -1.027580   -0.627019
     95          6           0      -13.231113   -0.012691   -0.621777
     96          6           0      -12.001690   -0.580305   -1.208911
     97          6           0      -12.266460   -1.892857   -1.629972
     98          6           0      -13.601703   -2.160105   -1.259102
     99          6           0      -10.730838    0.167584   -1.177516
    100          6           0      -11.391808   -2.869818   -2.359678
    101          8           0      -11.721718   -4.067882   -2.581964
    102          6           0      -10.113281   -2.541162   -2.907235
    103          7           0      -16.531772   -2.735744   -0.381654
    104          6           0      -15.680464   -3.606214   -0.990014
    105          6           0      -16.263638   -4.945670   -1.214554
    106          6           0      -17.688620   -4.813430   -0.566663
    107          6           0      -17.717539   -3.369670   -0.231194
    108          6           0      -16.347406   -5.616116   -2.617415
    109          6           0      -18.001006   -5.841171    0.630250
    110          6           0      -17.582498   -5.578716    2.107446
    111          7           0      -18.024679   -0.535536    0.594804
    112          6           0      -19.044597   -1.434327    0.720016
    113          6           0      -20.139488   -0.835866    1.349513
    114          6           0      -19.738984    0.552368    1.445316
    115          6           0      -18.437591    0.661077    0.997267
    116          6           0      -21.431217   -1.499944    1.822663
    117          6           0      -20.177184    1.806518    1.987146
    118          8           0      -21.144271    2.168243    2.626084
    119          6           0      -19.063409    2.835580    1.584452
    120          6           0      -19.557611    3.713278    0.505068
    121          8           0      -19.145156    3.744357   -0.675258
    122          8           0      -20.571970    4.528952    0.866753
    123          6           0      -21.005207    5.631705   -0.057660
    124          1           0      -12.628769    2.135240   -0.546776
    125          1           0      -13.943125   -4.162277   -1.987833
    126          1           0      -19.754660   -3.367355    0.681475
    127          1           0      -16.604676    4.497353    0.084878
    128          1           0      -13.948960    4.017148    0.643020
    129          1           0      -14.548128    3.405329   -2.146921
    130          1           0      -13.537487    4.583118   -1.457406
    131          1           0      -15.285901    4.969085   -1.710000
    132          1           0      -14.959455    4.889928    2.254658
    133          1           0      -15.881534    3.548989    2.912934
    134          1           0      -17.718990    4.928820    3.221721
    135          1           0      -17.458195    5.959039    1.881811
    136          1           0      -10.065861   -0.441598   -0.566665
    137          1           0      -10.715247    1.190486   -0.799103
    138          1           0      -10.315946    0.222754   -2.183923
    139          1           0      -10.253514   -1.580228   -3.401554
    140          1           0       -9.700868   -3.383466   -3.461199
    141          1           0       -9.401254   -2.292062   -2.120386
    142          1           0      -15.594511   -5.530893   -0.584450
    143          1           0      -18.447283   -4.952201   -1.336006
    144          1           0      -15.720372   -6.505231   -2.684366
    145          1           0      -15.987171   -4.944329   -3.397275
    146          1           0      -17.365302   -5.861037   -2.920520
    147          1           0      -17.440589   -6.723333    0.319966
    148          1           0      -19.070891   -5.991864    0.485453
    149          1           0      -17.200669   -4.579362    2.314648
    150          1           0      -16.963284   -6.345710    2.573496
    151          1           0      -18.512740   -5.709116    2.658829
    152          1           0      -22.313558   -1.034776    1.381878
    153          1           0      -21.511135   -1.330762    2.896361
    154          1           0      -21.457421   -2.582574    1.696097
    155          1           0      -18.943521    3.525232    2.420156
    156          1           0      -21.585322    6.193231    0.674770
    157          1           0      -21.592361    5.310396   -0.917329
    158          1           0      -20.129949    6.169492   -0.423403
 ---------------------------------------------------------------------

 SCF Done:  E(RPBE1PBE) =  -4067.36993449     A.U. after   16 cycles

 Excitation energies and oscillator strengths:

 Excited State   1:      Singlet-A      1.7824 eV  695.61 nm  f=0.0000  <S**2>=0.000
     312 -> 313        0.70710
 This state for optimization and/or second-order correction.
 Total Energy, E(TD-HF/TD-DFT) =  -4067.30443311
 Copying the excited state density for this state as the 1-particle RhoCI density.

 Excited State   2:      Singlet-A      1.8151 eV  683.08 nm  f=0.3969  <S**2>=0.000
     309 -> 315        0.14964
     311 -> 313        0.69563
     311 <- 313       -0.11530

 Excited State   3:      Singlet-A      1.8655 eV  664.63 nm  f=0.3665  <S**2>=0.000
     310 -> 316        0.17018
     312 -> 314        0.69152
     312 <- 314       -0.10903

 Excited State   4:      Singlet-A      2.0779 eV  596.67 nm  f=0.0000  <S**2>=0.000
     311 -> 314        0.70710

 Excited State   5:      Singlet-A      2.1895 eV  566.27 nm  f=0.1126  <S**2>=0.000
     309 -> 313        0.65557
     311 -> 315       -0.22806

 The electronic state is 1-A.
 Alpha  occ. eigenvalues --  -46.91402 -46.90930 -19.24666 -19.22937 -19.19847
 Alpha  occ. eigenvalues --  -19.18926 -19.18502 -19.18495 -19.18492 -19.18164
 Alpha  occ. eigenvalues --  -14.42086 -14.41601 -14.41463 -14.41398 -14.39915
 Alpha  occ. eigenvalues --  -14.39181 -14.38411 -14.38052 -10.35520 -10.35199
 Alpha  occ. eigenvalues --  -10.32270 -10.31596 -10.31583 -10.31348 -10.29470
 Alpha  occ. eigenvalues --  -10.29213 -10.28882 -10.28733 -10.28679 -10.28587
 Alpha  occ. eigenvalues --  -10.28576 -10.28501 -10.28248 -10.28217 -10.28137
 Alpha  occ. eigenvalues --  -10.27934 -10.27879 -10.27784 -10.27675 -10.27377
 Alpha  occ. eigenvalues --  -10.27148 -10.27095 -10.26377 -10.26279 -10.26201
 Alpha  occ. eigenvalues --  -10.26151 -10.26101 -10.25972 -10.25961 -10.25951
 Alpha  occ. eigenvalues --  -10.25736 -10.25627 -10.25582 -10.25449 -10.25416
 Alpha  occ. eigenvalues --  -10.25305 -10.25245 -10.25179 -10.25119 -10.25103
 Alpha  occ. eigenvalues --  -10.24949 -10.24949 -10.24912 -10.24903 -10.24830
 Alpha  occ. eigenvalues --  -10.24474 -10.24450 -10.24347 -10.24308 -10.24258
 Alpha  occ. eigenvalues --  -10.24239 -10.23978 -10.23918 -10.23766 -10.23632
 Alpha  occ. eigenvalues --  -10.23611 -10.23491 -10.23451 -10.23411 -10.23395
 Alpha  occ. eigenvalues --  -10.23361 -10.23155 -10.22894 -10.22854 -10.22567
 Alpha  occ. eigenvalues --  -10.22409  -3.13736  -3.13222  -1.86547  -1.86121
 Alpha  occ. eigenvalues --   -1.86075  -1.85977  -1.85601  -1.85450  -1.11634
 Alpha  occ. eigenvalues --   -1.09865  -1.04318  -1.04118  -1.03110  -1.02684
 Alpha  occ. eigenvalues --   -1.02599  -0.99868  -0.99540  -0.99522  -0.98757
 Alpha  occ. eigenvalues --   -0.98119  -0.97858  -0.96867  -0.96659  -0.95140
 Alpha  occ. eigenvalues --   -0.87478  -0.87130  -0.83504  -0.83264  -0.82953
 Alpha  occ. eigenvalues --   -0.82793  -0.82726  -0.82605  -0.81829  -0.81809
 Alpha  occ. eigenvalues --   -0.81610  -0.81320  -0.80833  -0.80453  -0.78620
 Alpha  occ. eigenvalues --   -0.78509  -0.77931  -0.77866  -0.76968  -0.76705
 Alpha  occ. eigenvalues --   -0.76704  -0.75986  -0.75295  -0.75284  -0.74868
 Alpha  occ. eigenvalues --   -0.74648  -0.72993  -0.72877  -0.71822  -0.71788
 Alpha  occ. eigenvalues --   -0.71131  -0.71054  -0.70505  -0.69664  -0.69642
 Alpha  occ. eigenvalues --   -0.69623  -0.67611  -0.67551  -0.66154  -0.65771
 Alpha  occ. eigenvalues --   -0.64488  -0.63660  -0.63165  -0.63118  -0.62468
 Alpha  occ. eigenvalues --   -0.62431  -0.61984  -0.61498  -0.60163  -0.59845
 Alpha  occ. eigenvalues --   -0.59670  -0.59493  -0.59493  -0.59206  -0.58903
 Alpha  occ. eigenvalues --   -0.58554  -0.56066  -0.55526  -0.54667  -0.54487
 Alpha  occ. eigenvalues --   -0.54170  -0.54039  -0.53712  -0.53656  -0.53258
 Alpha  occ. eigenvalues --   -0.53196  -0.52924  -0.52268  -0.52243  -0.51831
 Alpha  occ. eigenvalues --   -0.51091  -0.50766  -0.50142  -0.50109  -0.49827
 Alpha  occ. eigenvalues --   -0.49458  -0.48917  -0.48562  -0.48391  -0.48354
 Alpha  occ. eigenvalues --   -0.47825  -0.47809  -0.47617  -0.47359  -0.47254
 Alpha  occ. eigenvalues --   -0.47093  -0.47011  -0.46845  -0.46585  -0.46501
 Alpha  occ. eigenvalues --   -0.46451  -0.46251  -0.46022  -0.45871  -0.45655
 Alpha  occ. eigenvalues --   -0.45436  -0.45400  -0.45198  -0.44953  -0.44824
 Alpha  occ. eigenvalues --   -0.44788  -0.44519  -0.44447  -0.44339  -0.44196
 Alpha  occ. eigenvalues --   -0.44172  -0.43992  -0.43596  -0.43519  -0.43437
 Alpha  occ. eigenvalues --   -0.43312  -0.43295  -0.43035  -0.42813  -0.42804
 Alpha  occ. eigenvalues --   -0.42715  -0.42596  -0.42410  -0.41970  -0.41887
 Alpha  occ. eigenvalues --   -0.41696  -0.41589  -0.41425  -0.41213  -0.41174
 Alpha  occ. eigenvalues --   -0.41006  -0.40983  -0.40846  -0.40771  -0.40422
 Alpha  occ. eigenvalues --   -0.40195  -0.40170  -0.40106  -0.40067  -0.39914
 Alpha  occ. eigenvalues --   -0.39846  -0.39579  -0.39495  -0.39098  -0.39036
 Alpha  occ. eigenvalues --   -0.38778  -0.38569  -0.38536  -0.38476  -0.38391
 Alpha  occ. eigenvalues --   -0.38194  -0.38174  -0.37843  -0.37809  -0.37758
 Alpha  occ. eigenvalues --   -0.37661  -0.37344  -0.37285  -0.36854  -0.36615
 Alpha  occ. eigenvalues --   -0.36442  -0.36330  -0.36244  -0.36092  -0.35991
 Alpha  occ. eigenvalues --   -0.35963  -0.35631  -0.35570  -0.35167  -0.35135
 Alpha  occ. eigenvalues --   -0.34885  -0.34798  -0.34596  -0.34053  -0.33814
 Alpha  occ. eigenvalues --   -0.33749  -0.33218  -0.32845  -0.32829  -0.32750
 Alpha  occ. eigenvalues --   -0.32197  -0.31908  -0.31584  -0.31467  -0.31215
 Alpha  occ. eigenvalues --   -0.30512  -0.29884  -0.29715  -0.29525  -0.29227
 Alpha  occ. eigenvalues --   -0.28775  -0.28658  -0.27558  -0.27139  -0.26656
 Alpha  occ. eigenvalues --   -0.26100  -0.25628  -0.25573  -0.25297  -0.25200
 Alpha  occ. eigenvalues --   -0.25012  -0.24883  -0.24858  -0.21334  -0.20605
 Alpha  occ. eigenvalues --   -0.19121  -0.18700
 Alpha virt. eigenvalues --   -0.11749  -0.11078  -0.05834  -0.04873  -0.04304
 Alpha virt. eigenvalues --   -0.03507  -0.02237  -0.02024  -0.00597   0.00618
 Alpha virt. eigenvalues --    0.00771   0.00846   0.01154   0.01444   0.01641

 Mulliken charges:
               1
     1  Mg  12.000000
     2  C    6.000000
     3  C    6.000000
     4  C    6.000000
     5  C    6.000000
     6  N    7.000000
     7  C    6.000000
     8  C    6.000000
     9  C    6.000000
    10  C    6.000000
    11  C    6.000000
    12  C    6.000000
    13  C    6.000000
    14  H    1.000000
    15  N    7.000000
    16  C    6.000000
    17  C    6.000000
    18  C    6.000000
    19  C    6.000000
    20  C    6.000000
    21  C    6.000000
    22  O    8.000000
    23  C    6.000000
    24  N    7.000000
    25  C    6.000000
    26  C    6.000000
    27  C    6.000000
    28  C    6.000000
    29  C    6.000000
    30  C    6.000000
    31  C    6.000000
    32  N    7.000000
    33  C    6.000000
    34  C    6.000000
    35  C    6.000000
    36  C    6.000000
    37  C    6.000000
    38  C    6.000000
    39  O    8.000000
    40  C    6.000000
    41  C    6.000000
    42  O    8.000000
    43  O    8.000000
    44  C    6.000000
    45  H    1.000000
    46  H    1.000000
    47  H    1.000000
    48  H    1.000000
    49  H    1.000000
    50  H    1.000000
    51  H    1.000000
    52  H    1.000000
    53  H    1.000000
    54  H    1.000000
    55  H    1.000000
    56  H    1.000000
    57  H    1.000000
    58  H    1.000000
    59  H    1.000000
    60  H    1.000000
    61  H    1.000000
    62  H    1.000000
    63  H    1.000000
    64  H    1.000000
    65  H    1.000000
    66  H    1.000000
    67  H    1.000000
    68  H    1.000000
    69  H    1.000000
    70  H    1.000000
    71  H    1.000000
    72  H    1.000000
    73  H    1.000000
    74  H    1.000000
    75  H    1.000000
    76  H    1.000000
    77  H    1.000000
    78  H    1.000000
    79  H    1.000000
    80  Mg  12.000000
    81  C    6.000000
    82  C    6.000000
    83  C    6.000000
    84  C    6.000000
    85  N    7.000000
    86  C    6.000000
    87  C    6.000000
    88  C    6.000000
    89  C    6.000000
    90  C    6.000000
    91  C    6.000000
    92  C    6.000000
    93  H    1.000000
    94  N    7.000000
    95  C    6.000000
    96  C    6.000000
    97  C    6.000000
    98  C    6.000000
    99  C    6.000000
   100  C    6.000000
   101  O    8.000000
   102  C    6.000000
   103  N    7.000000
   104  C    6.000000
   105  C    6.000000
   106  C    6.000000
   107  C    6.000000
   108  C    6.000000
   109  C    6.000000
   110  C    6.000000
   111  N    7.000000
   112  C    6.000000
   113  C    6.000000
   114  C    6.000000
   115  C    6.000000
   116  C    6.000000
   117  C    6.000000
   118  O    8.000000
   119  C    6.000000
   120  C    6.000000
   121  O    8.000000
   122  O    8.000000
   123  C    6.000000
   124  H    1.000000
   125  H    1.000000
   126  H    1.000000
   127  H    1.000000
   128  H    1.000000
   129  H    1.000000
   130  H    1.000000
   131  H    1.000000
   132  H    1.000000
   133  H    1.000000
   134  H    1.000000
   135  H    1.000000
   136  H    1.000000
   137  H    1.000000
   138  H    1.000000
   139  H    1.000000
   140  H    1.000000
   141  H    1.000000
   142  H    1.000000
   143  H    1.000000
   144  H    1.000000
   145  H    1.000000
   146  H    1.000000
   147  H    1.000000
   148  H    1.000000
   149  H    1.000000
   150  H    1.000000
   151  H    1.000000
   152  H    1.000000
   153  H    1.000000
   154  H    1.000000
   155  H    1.000000
   156  H    1.000000
   157  H    1.000000
   158  H    1.000000
 Sum of Mulliken charges = 624.00000

 Dipole moment (field-independent basis, Debye):
    X=             -0.0000    Y=              0.0000    Z=             -0.0000  Tot=              0.0000
 Quadrupole moment (field-independent basis, Debye-Ang):
   XX=             -0.0000   YY=             -0.0000   ZZ=             -0.0000
   XY=              0.0000   XZ=             -0.0000   YZ=              0.0000

 Normal termination of Gaussian 16 at Fri Oct 15 12:34:31 2021.
