 Gaussian 16, Revision A.03,
 Gaussian 16:  ES64L-G16RevA.03 25-Dec-2016

 --------------------------------------------------------
 #p PBE1PBE/Def2SVP td=(nstates=5) density=(transition=1)
 --------------------------------------------------------

 --------------------------------
 TDDFT excited states in gaussian
 --------------------------------
 Symbolic Z-matrix:
 Charge =  0 Multiplicity = 1

                         Standard orientation:
 ---------------------------------------------------------------------
 Center     Atomic      Atomic             Coordinates (Angstroms)
 Number     Number       Type             X           Y           Z
 ---------------------------------------------------------------------
      1         12           0        9.805507    0.748430   -0.086976
      2          6           0        8.385898   -1.873637   -1.967946
      3          6           0        7.548374    2.844349   -1.542873
      4          6           0       10.650661    3.090175    2.254690
      5          6           0       11.660378   -1.770830    1.619716
      6          7           0        8.031940    0.471178   -1.508036
      7          6           0        7.713945   -0.613840   -2.273586
      8          6           0        6.461008   -0.373701   -3.133449
      9          6           0        6.557270    1.229686   -3.182473
     10          6           0        7.440646    1.544283   -2.000835
     11          6           0        7.131843    1.830384   -4.493411
     12          6           0        5.094666   -0.850807   -2.463481
     13          6           0        3.910523   -1.177587   -3.360211
     14          1           0        2.645206   -0.294723   -3.405492
     15          7           0        9.241008    2.776327    0.351851
     16          6           0        8.397087    3.458876   -0.475280
     17          6           0        8.381853    4.819925   -0.165711
     18          6           0        9.305114    4.960677    0.937900
     19          6           0        9.774404    3.587376    1.276665
     20          6           0        7.565587    5.876688   -0.900129
     21          6           0        9.625372    6.298856    1.564622
     22          8           0        9.082804    7.340849    1.114529
     23          6           0       10.696556    6.497274    2.694188
     24          7           0       10.973213    0.614901    1.630056
     25          6           0       11.207529    1.762159    2.435480
     26          6           0       12.348718    1.501697    3.378956
     27          6           0       12.446492   -0.037825    3.446582
     28          6           0       11.729379   -0.451300    2.128387
     29          6           0       13.760422    2.034194    3.044402
     30          6           0       11.658371   -0.649149    4.721429
     31          6           0       12.374245   -0.697888    6.062843
     32          7           0       10.109424   -1.372186   -0.299546
     33          6           0       10.888909   -2.240498    0.449891
     34          6           0       10.728041   -3.551736    0.043509
     35          6           0        9.765185   -3.472977   -0.977235
     36          6           0        9.406811   -2.122496   -1.125708
     37          6           0       11.452611   -4.728405    0.617043
     38          6           0        9.119222   -4.194688   -1.941750
     39          8           0        9.262792   -5.352392   -2.282198
     40          6           0        8.018739   -3.235214   -2.441519
     41          6           0        6.742862   -3.785472   -1.877484
     42          8           0        6.542714   -3.949122   -0.714198
     43          8           0        5.873801   -4.143138   -2.909787
     44          6           0        4.720634   -4.823972   -2.432667
     45          1           0        6.994157    3.583609   -2.125345
     46          1           0       11.110278    3.840702    2.901858
     47          1           0       12.361835   -2.460569    2.093239
     48          1           0        6.593644   -0.701270   -4.164027
     49          1           0        5.535437    1.599619   -3.102869
     50          1           0        6.229461    2.112134   -5.036746
     51          1           0        7.672235    1.091517   -5.085029
     52          1           0        7.724828    2.724296   -4.299355
     53          1           0        4.703107   -0.074464   -1.806089
     54          1           0        5.350163   -1.679862   -1.803205
     55          1           0        3.622162   -2.184265   -3.054182
     56          1           0        4.292328   -1.260008   -4.377695
     57          1           0        7.979833    6.874920   -1.045585
     58          1           0        6.671624    5.834596   -0.278344
     59          1           0        7.411637    5.573056   -1.935625
     60          1           0       11.678417    6.214082    2.315875
     61          1           0       10.316118    5.853363    3.486882
     62          1           0       10.716968    7.477271    3.170751
     63          1           0       12.024290    1.860278    4.355282
     64          1           0       13.478978   -0.386174    3.475921
     65          1           0       14.504033    1.268821    2.822952
     66          1           0       14.006041    2.911104    3.643763
     67          1           0       13.633343    2.503365    2.068914
     68          1           0       11.452158   -1.651461    4.346542
     69          1           0       10.717933   -0.122421    4.884496
     70          1           0       11.747254   -0.226382    6.819108
     71          1           0       13.316906   -0.155275    5.986461
     72          1           0       12.529433   -1.725212    6.393443
     73          1           0       10.686794   -5.471743    0.836661
     74          1           0       11.931525   -4.503628    1.570849
     75          1           0       12.165795   -5.168602   -0.080089
     76          1           0        8.003591   -3.279230   -3.529980
     77          1           0        4.897038   -5.899085   -2.451850
     78          1           0        3.862116   -4.745411   -3.100742
     79          1           0        4.454257   -4.530445   -1.418727
     80         12           0       -9.817834    0.160629   -0.028832
     81          6           0       -6.906870   -1.924404   -0.010964
     82          6           0       -8.010509    2.588691   -1.651175
     83          6           0      -12.354505    2.363742    0.316721
     84          6           0      -11.169495   -1.981770    2.425653
     85          7           0       -7.714792    0.280161   -0.742766
     86          6           0       -6.703754   -0.693067   -0.708104
     87          6           0       -5.497166   -0.177136   -1.449488
     88          6           0       -5.750821    1.389259   -1.461301
     89          6           0       -7.285608    1.448307   -1.205988
     90          6           0       -4.915224    2.022274   -0.292144
     91          6           0       -5.247671   -0.872239   -2.834379
     92          6           0       -3.845411   -1.181602   -2.999456
     93          1           0       -3.510740   -2.202221   -4.199897
     94          7           0      -10.117829    2.136007   -0.779504
     95          6           0       -9.273455    2.932292   -1.446030
     96          6           0       -9.957090    4.127930   -1.833206
     97          6           0      -11.214132    4.110625   -1.266269
     98          6           0      -11.330388    2.761637   -0.541940
     99          6           0       -9.232473    5.298095   -2.571275
    100          6           0      -12.354797    5.140355   -1.400237
    101          8           0      -13.379908    4.960302   -0.793039
    102          6           0      -12.232541    6.310750   -2.347298
    103          7           0      -11.388273    0.288453    1.421150
    104          6           0      -12.372882    1.251178    1.227995
    105          6           0      -13.592395    0.930862    2.029626
    106          6           0      -13.227701   -0.483464    2.697954
    107          6           0      -11.872058   -0.794430    2.108612
    108          6           0      -13.975355    2.018861    2.975073
    109          6           0      -14.286158   -1.702172    2.499316
    110          6           0      -14.904193   -2.291146    3.705336
    111          7           0       -9.244504   -1.626039    0.995150
    112          6           0       -9.921857   -2.341525    1.956663
    113          6           0       -9.091211   -3.580076    2.286600
    114          6           0       -7.954432   -3.518087    1.455862
    115          6           0       -8.069721   -2.282577    0.727309
    116          6           0       -9.469824   -4.624633    3.345414
    117          6           0       -6.698286   -4.162971    1.219870
    118          8           0       -6.228172   -5.221247    1.695107
    119          6           0       -5.885316   -3.084768    0.392321
    120          6           0       -5.199856   -3.880293   -0.759022
    121          8           0       -5.672272   -3.867224   -1.910498
    122          8           0       -4.052499   -4.444717   -0.308729
    123          6           0       -3.521074   -5.367497   -1.369938
    124          1           0       -7.524201    3.269512   -2.353440
    125          1           0      -13.196031    3.051502    0.429033
    126          1           0      -11.545625   -2.753028    3.100843
    127          1           0       -4.651314   -0.334849   -0.780721
    128          1           0       -5.438395    1.842011   -2.401645
    129          1           0       -5.333135    1.831146    0.695938
    130          1           0       -4.803834    3.089400   -0.479575
    131          1           0       -3.907328    1.607433   -0.318457
    132          1           0       -5.422289   -0.108733   -3.592822
    133          1           0       -5.918126   -1.716898   -2.994709
    134          1           0       -3.467365   -1.756375   -2.153817
    135          1           0       -3.319999   -0.239222   -3.156209
    136          1           0       -9.851058    5.444710   -3.456644
    137          1           0       -8.219893    5.073210   -2.905912
    138          1           0       -9.165422    6.164921   -1.913977
    139          1           0      -13.091705    6.974304   -2.248513
    140          1           0      -12.225518    5.723326   -3.265389
    141          1           0      -11.294600    6.822815   -2.132652
    142          1           0      -14.352010    0.798075    1.259041
    143          1           0      -13.147531   -0.306765    3.770256
    144          1           0      -14.894055    2.428076    2.556707
    145          1           0      -13.277906    2.856332    2.966248
    146          1           0      -14.105982    1.715169    4.013983
    147          1           0      -13.651510   -2.483151    2.080604
    148          1           0      -15.002899   -1.395175    1.738818
    149          1           0      -14.621779   -3.337096    3.822198
    150          1           0      -15.930598   -2.264945    3.341001
    151          1           0      -14.818963   -1.655627    4.587841
    152          1           0       -8.963999   -4.312356    4.258362
    153          1           0       -9.146293   -5.629819    3.075343
    154          1           0      -10.555711   -4.662148    3.432588
    155          1           0       -5.168497   -2.707721    1.120498
    156          1           0       -4.070041   -6.302317   -1.482098
    157          1           0       -2.467832   -5.625554   -1.264431
    158          1           0       -3.546951   -4.790720   -2.294689
 ---------------------------------------------------------------------

 SCF Done:  E(RPBE1PBE) =  -4067.32199622     A.U. after   16 cycles

 Excitation energies and oscillator strengths:

 Excited State   1:      Singlet-A      1.4265 eV  869.15 nm  f=0.0000  <S**2>=0.000
     312 -> 313        0.70709
 This state for optimization and/or second-order correction.
 Total Energy, E(TD-HF/TD-DFT) =  -4067.26957351
 Copying the excited state density for this state as the 1-particle RhoCI density.

 Excited State   2:      Singlet-A      1.8309 eV  677.18 nm  f=0.2717  <S**2>=0.000
     310 -> 316        0.18068
     312 -> 314        0.68441

 Excited State   3:      Singlet-A      1.8623 eV  665.77 nm  f=0.4433  <S**2>=0.000
     309 -> 315        0.18062
     311 -> 313        0.68379
     311 <- 313       -0.10481

 Excited State   4:      Singlet-A      2.1538 eV  575.65 nm  f=0.1207  <S**2>=0.000
     309 -> 313        0.65692
     311 -> 315       -0.24310

 Excited State   5:      Singlet-A      2.2731 eV  545.43 nm  f=0.0128  <S**2>=0.000
     310 -> 314        0.57928
     312 -> 316       -0.39839

 The electronic state is 1-A.
 Alpha  occ. eigenvalues --  -46.93718 -46.92825 -19.26893 -19.26026 -19.21090
 Alpha  occ. eigenvalues --  -19.20115 -19.19479 -19.19191 -19.18373 -19.18194
 Alpha  occ. eigenvalues --  -14.42529 -14.42359 -14.41742 -14.41511 -14.39469
 Alpha  occ. eigenvalues --  -14.38939 -14.38936 -14.38855 -10.36830 -10.36690
 Alpha  occ. eigenvalues --  -10.32612 -10.32263 -10.32233 -10.30475 -10.30131
 Alpha  occ. eigenvalues --  -10.30126 -10.29473 -10.28927 -10.28906 -10.28862
 Alpha  occ. eigenvalues --  -10.28861 -10.28622 -10.28561 -10.28471 -10.28387
 Alpha  occ. eigenvalues --  -10.28212 -10.27947 -10.27709 -10.27241 -10.27084
 Alpha  occ. eigenvalues --  -10.26734 -10.26678 -10.26626 -10.26502 -10.26323
 Alpha  occ. eigenvalues --  -10.26228 -10.26219 -10.26101 -10.25991 -10.25918
 Alpha  occ. eigenvalues --  -10.25878 -10.25862 -10.25719 -10.25678 -10.25635
 Alpha  occ. eigenvalues --  -10.25630 -10.25528 -10.25481 -10.25306 -10.25301
 Alpha  occ. eigenvalues --  -10.25279 -10.25272 -10.25244 -10.25242 -10.25030
 Alpha  occ. eigenvalues --  -10.24964 -10.24800 -10.24178 -10.24177 -10.24100
 Alpha  occ. eigenvalues --  -10.24096 -10.24049 -10.24006 -10.23800 -10.23707
 Alpha  occ. eigenvalues --  -10.23695 -10.23604 -10.23591 -10.23558 -10.23335
 Alpha  occ. eigenvalues --  -10.23103 -10.22930 -10.22801 -10.22775 -10.22513
 Alpha  occ. eigenvalues --  -10.21893  -3.15597  -3.14747  -1.88435  -1.87963
 Alpha  occ. eigenvalues --   -1.87815  -1.87581  -1.87107  -1.86969  -1.12370
 Alpha  occ. eigenvalues --   -1.10903  -1.06280  -1.04836  -1.04304  -1.02750
 Alpha  occ. eigenvalues --   -1.02093  -1.02021  -1.00359  -0.99367  -0.98624
 Alpha  occ. eigenvalues --   -0.98587  -0.97600  -0.97381  -0.96544  -0.96269
 Alpha  occ. eigenvalues --   -0.88738  -0.85702  -0.83255  -0.83230  -0.83039
 Alpha  occ. eigenvalues --   -0.83016  -0.82951  -0.82504  -0.81948  -0.81608
 Alpha  occ. eigenvalues --   -0.81523  -0.81445  -0.80246  -0.79957  -0.78705
 Alpha  occ. eigenvalues --   -0.78678  -0.78172  -0.77930  -0.77197  -0.76893
 Alpha  occ. eigenvalues --   -0.76552  -0.76174  -0.75071  -0.75033  -0.74830
 Alpha  occ. eigenvalues --   -0.74610  -0.72416  -0.72387  -0.71880  -0.71718
 Alpha  occ. eigenvalues --   -0.71254  -0.70947  -0.70291  -0.70076  -0.69852
 Alpha  occ. eigenvalues --   -0.69254  -0.68090  -0.66717  -0.66617  -0.65981
 Alpha  occ. eigenvalues --   -0.63938  -0.63155  -0.62925  -0.62824  -0.62350
 Alpha  occ. eigenvalues --   -0.61891  -0.61668  -0.60758  -0.60709  -0.59820
 Alpha  occ. eigenvalues --   -0.59550  -0.59386  -0.59304  -0.59036  -0.58832
 Alpha  occ. eigenvalues --   -0.58791  -0.57369  -0.56726  -0.55049  -0.54745
 Alpha  occ. eigenvalues --   -0.54420  -0.54162  -0.53800  -0.53718  -0.53569
 Alpha  occ. eigenvalues --   -0.53036  -0.52860  -0.52734  -0.52056  -0.51585
 Alpha  occ. eigenvalues --   -0.51150  -0.50527  -0.50203  -0.50068  -0.49871
 Alpha  occ. eigenvalues --   -0.49686  -0.49685  -0.48956  -0.48604  -0.48468
 Alpha  occ. eigenvalues --   -0.48183  -0.48129  -0.48096  -0.47825  -0.47630
 Alpha  occ. eigenvalues --   -0.47354  -0.47352  -0.47241  -0.47190  -0.47071
 Alpha  occ. eigenvalues --   -0.46718  -0.46511  -0.46441  -0.46079  -0.45809
 Alpha  occ. eigenvalues --   -0.45630  -0.45500  -0.45228  -0.45183  -0.45070
 Alpha  occ. eigenvalues --   -0.44909  -0.44729  -0.44546  -0.44499  -0.44350
 Alpha  occ. eigenvalues --   -0.44032  -0.44006  -0.43860  -0.43662  -0.43567
 Alpha  occ. eigenvalues --   -0.43459  -0.43325  -0.43122  -0.42868  -0.42676
 Alpha  occ. eigenvalues --   -0.42600  -0.42519  -0.42172  -0.42045  -0.41919
 Alpha  occ. eigenvalues --   -0.41717  -0.41361  -0.41305  -0.41242  -0.41154
 Alpha  occ. eigenvalues --   -0.41101  -0.41016  -0.40944  -0.40813  -0.40571
 Alpha  occ. eigenvalues --   -0.40549  -0.40182  -0.40091  -0.39860  -0.39514
 Alpha  occ. eigenvalues --   -0.39509  -0.39424  -0.39315  -0.39118  -0.38806
 Alpha  occ. eigenvalues --   -0.38676  -0.38650  -0.38518  -0.38312  -0.38174
 Alpha  occ. eigenvalues --   -0.38031  -0.37846  -0.37813  -0.37797  -0.37647
 Alpha  occ. eigenvalues --   -0.37435  -0.37308  -0.37296  -0.37112  -0.36895
 Alpha  occ. eigenvalues --   -0.36873  -0.36429  -0.36428  -0.36234  -0.36074
 Alpha  occ. eigenvalues --   -0.36038  -0.35869  -0.35696  -0.35393  -0.35226
 Alpha  occ. eigenvalues --   -0.35153  -0.34720  -0.34396  -0.33763  -0.33510
 Alpha  occ. eigenvalues --   -0.33507  -0.32973  -0.32842  -0.32655  -0.32297
 Alpha  occ. eigenvalues --   -0.32124  -0.32100  -0.32011  -0.31938  -0.31619
 Alpha  occ. eigenvalues --   -0.31191  -0.30399  -0.30274  -0.29998  -0.29308
 Alpha  occ. eigenvalues --   -0.29033  -0.29012  -0.28402  -0.27129  -0.27105
 Alpha  occ. eigenvalues --   -0.26012  -0.25977  -0.25714  -0.25502  -0.25356
 Alpha  occ. eigenvalues --   -0.25259  -0.25099  -0.24655  -0.21329  -0.21079
 Alpha  occ. eigenvalues --   -0.19651  -0.17945
 Alpha virt. eigenvalues --   -0.12012  -0.10282  -0.06004  -0.05901  -0.04296
 Alpha virt. eigenvalues --   -0.04259  -0.01993  -0.01880  -0.01418  -0.00929
 Alpha virt. eigenvalues --    0.00077   0.00424   0.00738   0.00978   0.01207

 Mulliken charges:
               1
     1  Mg  12.000000
     2  C    6.000000
     3  C    6.000000
     4  C    6.000000
     5  C    6.000000
     6  N    7.000000
     7  C    6.000000
     8  C    6.000000
     9  C    6.000000
    10  C    6.000000
    11  C    6.000000
    12  C    6.000000
    13  C    6.000000
    14  H    1.000000
    15  N    7.000000
    16  C    6.000000
    17  C    6.000000
    18  C    6.000000
    19  C    6.000000
    20  C    6.000000
    21  C    6.000000
    22  O    8.000000
    23  C    6.000000
    24  N    7.000000
    25  C    6.000000
    26  C    6.000000
    27  C    6.000000
    28  C    6.000000
    29  C    6.000000
    30  C    6.000000
    31  C    6.000000
    32  N    7.000000
    33  C    6.000000
    34  C    6.000000
    35  C    6.000000
    36  C    6.000000
    37  C    6.000000
    38  C    6.000000
    39  O    8.000000
    40  C    6.000000
    41  C    6.000000
    42  O    8.000000
    43  O    8.000000
    44  C    6.000000
    45  H    1.000000
    46  H    1.000000
    47  H    1.000000
    48  H    1.000000
    49  H    1.000000
    50  H    1.000000
    51  H    1.000000
    52  H    1.000000
    53  H    1.000000
    54  H    1.000000
    55  H    1.000000
    56  H    1.000000
    57  H    1.000000
    58  H    1.000000
    59  H    1.000000
    60  H    1.000000
    61  H    1.000000
    62  H    1.000000
    63  H    1.000000
    64  H    1.000000
    65  H    1.000000
    66  H    1.000000
    67  H    1.000000
    68  H    1.000000
    69  H    1.000000
    70  H    1.000000
    71  H    1.000000
    72  H    1.000000
    73  H    1.000000
    74  H    1.000000
    75  H    1.000000
    76  H    1.000000
    77  H    1.000000
    78  H    1.000000
    79  H    1.000000
    80  Mg  12.000000
    81  C    6.000000
    82  C    6.000000
    83  C    6.000000
    84  C    6.000000
    85  N    7.000000
    86  C    6.000000
    87  C    6.000000
    88  C    6.000000
    89  C    6.000000
    90  C    6.000000
    91  C    5.999999
    92  C    6.000000
    93  H    1.000001
    94  N    7.000000
    95  C    6.000000
    96  C    6.000000
    97  C    6.000000
    98  C    6.000000
    99  C    6.000000
   100  C    6.000000
   101  O    8.000000
   102  C    6.000000
   103  N    7.000000
   104  C    6.000000
   105  C    6.000000
   106  C    6.000000
   107  C    6.000000
   108  C    6.000000
   109  C    6.000000
   110  C    6.000000
   111  N    7.000000
   112  C    6.000000
   113  C    6.000000
   114  C    6.000000
   115  C    6.000000
   116  C    6.000000
   117  C    6.000000
   118  O    8.000000
   119  C    6.000000
   120  C    6.000000
   121  O    8.000000
   122  O    8.000000
   123  C    6.000000
   124  H    1.000000
   125  H    1.000000
   126  H    1.000000
   127  H    1.000000
   128  H    1.000000
   129  H    1.000000
   130  H    1.000000
   131  H    1.000000
   132  H    1.000000
   133  H    1.000000
   134  H    0.999999
   135  H    0.999999
   136  H    1.000000
   137  H    1.000000
   138  H    1.000000
   139  H    1.000000
   140  H    1.000000
   141  H    1.000000
   142  H    1.000000
   143  H    1.000000
   144  H    1.000000
   145  H    1.000000
   146  H    1.000000
   147  H    1.000000
   148  H    1.000000
   149  H    1.000000
   150  H    1.000000
   151  H    1.000000
   152  H    1.000000
   153  H    1.000000
   154  H    1.000000
   155  H    1.000000
   156  H    1.000000
   157  H    1.000000
   158  H    1.000000
 Sum of Mulliken charges = 624.00000

 Dipole moment (field-independent basis, Debye):
    X=              0.0001    Y=             -0.0000    Z=              0.0000  Tot=              0.0001
 Quadrupole moment (field-independent basis, Debye-Ang):
   XX=             -0.0001   YY=              0.0000   ZZ=              0.0001
   XY=              0.0006   XZ=             -0.0001   YZ=              0.0001

 Normal termination of Gaussian 16 at Thu Oct 14 17:39:39 2021.
