 Gaussian 16, Revision A.03,
 Gaussian 16:  ES64L-G16RevA.03 25-Dec-2016

 --------------------------------------------------------
 #p PBE1PBE/Def2SVP td=(nstates=5) density=(transition=1)
 --------------------------------------------------------

 --------------------------------
 TDDFT excited states in gaussian
 --------------------------------
 Symbolic Z-matrix:
 Charge =  0 Multiplicity = 1

                         Standard orientation:
 ---------------------------------------------------------------------
 Center     Atomic      Atomic             Coordinates (Angstroms)
 Number     Number       Type             X           Y           Z
 ---------------------------------------------------------------------
      1         12           0      -26.316952    0.230836    0.247509
      2          6           0      -23.288099   -1.444023   -0.137753
      3          6           0      -27.971035   -2.533492   -0.959696
      4          6           0      -29.134004    2.084712    0.419874
      5          6           0      -24.459954    3.161275    1.104124
      6          7           0      -25.660430   -1.682388   -0.552522
      7          6           0      -24.395031   -2.180757   -0.595191
      8          6           0      -24.384547   -3.644113   -1.055804
      9          6           0      -25.914164   -3.867489   -1.438835
     10          6           0      -26.563102   -2.578909   -0.922772
     11          6           0      -26.110692   -4.033325   -2.940914
     12          6           0      -24.016896   -4.706505    0.040463
     13          6           0      -23.384131   -5.991814   -0.425914
     14          1           0      -23.443332   -6.354696   -1.842086
     15          7           0      -28.251406   -0.199158   -0.116232
     16          6           0      -28.734318   -1.420182   -0.627969
     17          6           0      -30.170363   -1.340914   -0.568556
     18          6           0      -30.557003   -0.049708   -0.128580
     19          6           0      -29.288022    0.689986    0.080784
     20          6           0      -31.082637   -2.407147   -1.136269
     21          6           0      -31.883014    0.528720    0.138996
     22          8           0      -32.068292    1.712869    0.322921
     23          6           0      -33.174547   -0.361202    0.036575
     24          7           0      -26.806728    2.328205    0.870318
     25          6           0      -28.012580    2.809869    0.819071
     26          6           0      -28.040306    4.319214    1.205917
     27          6           0      -26.590971    4.662828    1.498025
     28          6           0      -25.843536    3.340408    1.096815
     29          6           0      -28.785046    5.172847    0.074595
     30          6           0      -26.359085    5.127888    2.951241
     31          6           0      -26.340057    6.679797    3.216020
     32          7           0      -24.404083    0.722241    0.696143
     33          6           0      -23.779122    1.949898    1.028207
     34          6           0      -22.386711    1.784674    1.204863
     35          6           0      -22.162891    0.449242    0.660159
     36          6           0      -23.447658   -0.115246    0.416915
     37          6           0      -21.383116    2.892505    1.467802
     38          6           0      -21.099199   -0.424533    0.326579
     39          8           0      -19.884457   -0.325356    0.445893
     40          6           0      -21.860136   -1.825476   -0.162596
     41          6           0      -21.264940   -2.146010   -1.502210
     42          8           0      -21.304267   -1.395538   -2.482870
     43          8           0      -20.520654   -3.362917   -1.496268
     44          6           0      -19.886132   -3.743546   -2.796946
     45          1           0      -28.428971   -3.444592   -1.352241
     46          1           0      -30.051795    2.656437    0.269791
     47          1           0      -23.847832    4.011549    1.410861
     48          1           0      -23.735151   -3.681146   -1.930738
     49          1           0      -26.341245   -4.758614   -0.979022
     50          1           0      -25.164235   -4.231188   -3.443346
     51          1           0      -26.651518   -3.200035   -3.390333
     52          1           0      -26.633846   -4.948603   -3.217916
     53          1           0      -24.925465   -4.925172    0.600437
     54          1           0      -23.397856   -4.190030    0.774371
     55          1           0      -23.927936   -6.803716    0.056484
     56          1           0      -22.332229   -5.993892   -0.140144
     57          1           0      -31.643429   -2.072247   -2.008818
     58          1           0      -31.744485   -2.743537   -0.337111
     59          1           0      -30.594388   -3.306196   -1.511989
     60          1           0      -33.418739   -0.406204   -1.025083
     61          1           0      -34.025797    0.162274    0.472043
     62          1           0      -32.980748   -1.371484    0.394893
     63          1           0      -28.659801    4.327593    2.102915
     64          1           0      -26.192132    5.378274    0.780533
     65          1           0      -28.135480    5.964691   -0.298175
     66          1           0      -29.646694    5.728818    0.444664
     67          1           0      -28.995447    4.450240   -0.714943
     68          1           0      -25.390568    4.721260    3.244450
     69          1           0      -27.120249    4.638012    3.558673
     70          1           0      -25.326312    7.033668    3.025115
     71          1           0      -26.708297    7.057441    4.170091
     72          1           0      -26.939179    7.027872    2.375271
     73          1           0      -21.419984    3.006263    2.550907
     74          1           0      -21.687316    3.825826    0.995494
     75          1           0      -20.406517    2.785705    0.993882
     76          1           0      -21.686254   -2.598267    0.587200
     77          1           0      -19.139912   -3.013458   -3.108288
     78          1           0      -20.531055   -3.908149   -3.660537
     79          1           0      -19.372618   -4.649285   -2.474398
     80         12           0       26.482381   -0.114652   -0.165814
     81          6           0       23.023330    0.083015    0.215563
     82          6           0       26.296205    2.223728   -2.692056
     83          6           0       29.750981   -0.381041   -0.282397
     84          6           0       26.638551   -1.687822    3.117978
     85          7           0       24.733559    0.993135   -1.171327
     86          6           0       23.409660    0.945158   -0.835745
     87          6           0       22.598088    1.792680   -1.749964
     88          6           0       23.669290    2.515779   -2.660126
     89          6           0       25.033863    1.888344   -2.174240
     90          6           0       23.366782    2.468924   -4.179053
     91          6           0       21.702284    2.808170   -0.999798
     92          6           0       20.254137    2.707987   -1.475920
     93          1           0       19.559019    4.021434   -1.945681
     94          7           0       27.839953    0.780903   -1.358884
     95          6           0       27.593723    1.691561   -2.385333
     96          6           0       28.891033    1.944074   -2.999059
     97          6           0       29.935704    1.154996   -2.326643
     98          6           0       29.184284    0.388652   -1.282919
     99          6           0       29.096946    2.970046   -3.997469
    100          6           0       31.367927    1.331922   -2.619353
    101          8           0       31.803654    2.076974   -3.471979
    102          6           0       32.460517    0.691454   -1.836466
    103          7           0       27.907622   -0.857068    1.205852
    104          6           0       29.184273   -1.099925    0.766260
    105          6           0       29.996320   -1.758018    1.861757
    106          6           0       29.116398   -1.697402    3.053933
    107          6           0       27.834280   -1.339028    2.485319
    108          6           0       30.588403   -3.180835    1.497275
    109          6           0       29.502385   -0.549298    4.048557
    110          6           0       29.204081   -0.776164    5.458290
    111          7           0       25.133161   -0.735609    1.386146
    112          6           0       25.319367   -1.405142    2.602680
    113          6           0       24.050801   -1.849428    3.088707
    114          6           0       23.120698   -1.270137    2.233686
    115          6           0       23.833967   -0.550697    1.209573
    116          6           0       23.875306   -2.691746    4.298044
    117          6           0       21.742810   -1.085991    2.005405
    118          8           0       20.787874   -1.498881    2.624800
    119          6           0       21.618480   -0.274701    0.696453
    120          6           0       20.804080   -1.035494   -0.264487
    121          8           0       21.228378   -1.904048   -1.045247
    122          8           0       19.472072   -0.756774   -0.060665
    123          6           0       18.462847   -1.307490   -0.950579
    124          1           0       26.154845    2.918257   -3.522116
    125          1           0       30.830049   -0.510409   -0.167343
    126          1           0       26.732508   -2.184306    4.086056
    127          1           0       22.156342    1.082039   -2.449066
    128          1           0       23.738486    3.588558   -2.482606
    129          1           0       22.302194    2.232378   -4.195307
    130          1           0       23.993631    1.812274   -4.782446
    131          1           0       23.496560    3.460237   -4.612600
    132          1           0       21.944965    3.850741   -1.204524
    133          1           0       21.809567    2.581192    0.060741
    134          1           0       19.777122    2.458963   -0.528119
    135          1           0       20.204075    1.883182   -2.185226
    136          1           0       28.129406    3.419349   -4.222304
    137          1           0       29.448313    2.626413   -4.970843
    138          1           0       29.741352    3.748237   -3.586983
    139          1           0       32.075884   -0.328054   -1.808251
    140          1           0       32.480724    1.134397   -0.840379
    141          1           0       33.412398    0.748700   -2.364874
    142          1           0       30.860168   -1.100498    1.952209
    143          1           0       28.910029   -2.627536    3.583526
    144          1           0       30.467001   -3.383742    0.433067
    145          1           0       30.261524   -3.994925    2.145140
    146          1           0       31.676815   -3.214693    1.536568
    147          1           0       29.034589    0.379234    3.721075
    148          1           0       30.573491   -0.351654    4.009538
    149          1           0       30.042865   -1.306780    5.910141
    150          1           0       28.262163   -1.306512    5.602216
    151          1           0       29.270407    0.166314    6.002786
    152          1           0       24.659940   -3.444702    4.371008
    153          1           0       22.893815   -3.160194    4.372808
    154          1           0       24.077504   -2.003268    5.118595
    155          1           0       21.009216    0.622093    0.809752
    156          1           0       18.227509   -2.370241   -0.892417
    157          1           0       18.703153   -1.042912   -1.980114
    158          1           0       17.539511   -0.829270   -0.625802
 ---------------------------------------------------------------------

 SCF Done:  E(RPBE1PBE) =  -4067.37926275     A.U. after   16 cycles

 Excitation energies and oscillator strengths:

 Excited State   1:      Singlet-A      1.8373 eV  674.82 nm  f=0.3699  <S**2>=0.000
     309 -> 315       -0.18250
     311 -> 313        0.68945
     311 <- 313       -0.10415
 This state for optimization and/or second-order correction.
 Total Energy, E(TD-HF/TD-DFT) =  -4067.31174301
 Copying the excited state density for this state as the 1-particle RhoCI density.

 Excited State   2:      Singlet-A      1.8459 eV  671.68 nm  f=0.3447  <S**2>=0.000
     310 -> 316        0.17448
     312 -> 314        0.69193
     312 <- 314       -0.10441

 Excited State   3:      Singlet-A      1.9867 eV  624.06 nm  f=0.0000  <S**2>=0.000
     312 -> 313        0.70711

 Excited State   4:      Singlet-A      2.0152 eV  615.24 nm  f=0.0000  <S**2>=0.000
     311 -> 314        0.70711

 Excited State   5:      Singlet-A      2.1967 eV  564.42 nm  f=0.0978  <S**2>=0.000
     309 -> 313        0.64584
     311 -> 315        0.27298

 The electronic state is 1-A.
 Alpha  occ. eigenvalues --  -46.92299 -46.91401 -19.25491 -19.24907 -19.19770
 Alpha  occ. eigenvalues --  -19.19554 -19.19174 -19.18877 -19.18605 -19.17569
 Alpha  occ. eigenvalues --  -14.42139 -14.41810 -14.41429 -14.41205 -14.39899
 Alpha  occ. eigenvalues --  -14.39733 -14.39212 -14.38832 -10.36191 -10.36063
 Alpha  occ. eigenvalues --  -10.32291 -10.31810 -10.31330 -10.30784 -10.29304
 Alpha  occ. eigenvalues --  -10.29299 -10.29160 -10.29088 -10.29004 -10.28857
 Alpha  occ. eigenvalues --  -10.28804 -10.28774 -10.28698 -10.28686 -10.28486
 Alpha  occ. eigenvalues --  -10.28390 -10.28321 -10.28226 -10.27675 -10.27111
 Alpha  occ. eigenvalues --  -10.26892 -10.26855 -10.26812 -10.26469 -10.26378
 Alpha  occ. eigenvalues --  -10.26175 -10.26132 -10.26117 -10.26009 -10.26006
 Alpha  occ. eigenvalues --  -10.25969 -10.25853 -10.25786 -10.25727 -10.25659
 Alpha  occ. eigenvalues --  -10.25631 -10.25485 -10.25444 -10.25426 -10.25410
 Alpha  occ. eigenvalues --  -10.25254 -10.25139 -10.25116 -10.25028 -10.24908
 Alpha  occ. eigenvalues --  -10.24889 -10.24762 -10.24740 -10.24607 -10.24500
 Alpha  occ. eigenvalues --  -10.24270 -10.24102 -10.24082 -10.23931 -10.23920
 Alpha  occ. eigenvalues --  -10.23673 -10.23594 -10.23468 -10.23382 -10.23307
 Alpha  occ. eigenvalues --  -10.23233 -10.22966 -10.22771 -10.22491 -10.22454
 Alpha  occ. eigenvalues --  -10.22233  -3.14371  -3.13674  -1.87214  -1.86754
 Alpha  occ. eigenvalues --   -1.86583  -1.86528  -1.86040  -1.85918  -1.10178
 Alpha  occ. eigenvalues --   -1.08268  -1.05565  -1.04825  -1.04551  -1.03743
 Alpha  occ. eigenvalues --   -1.01470  -1.00744  -0.99801  -0.99572  -0.98740
 Alpha  occ. eigenvalues --   -0.98449  -0.98165  -0.97610  -0.96849  -0.96147
 Alpha  occ. eigenvalues --   -0.87001  -0.86618  -0.85091  -0.83832  -0.83573
 Alpha  occ. eigenvalues --   -0.83360  -0.83239  -0.82653  -0.82032  -0.82030
 Alpha  occ. eigenvalues --   -0.81747  -0.81584  -0.80746  -0.80533  -0.79507
 Alpha  occ. eigenvalues --   -0.78845  -0.78552  -0.77718  -0.77383  -0.76780
 Alpha  occ. eigenvalues --   -0.76474  -0.75727  -0.75714  -0.75137  -0.74599
 Alpha  occ. eigenvalues --   -0.74301  -0.72994  -0.72847  -0.72265  -0.71661
 Alpha  occ. eigenvalues --   -0.71393  -0.71191  -0.70600  -0.70212  -0.69721
 Alpha  occ. eigenvalues --   -0.69415  -0.67849  -0.67654  -0.66469  -0.66057
 Alpha  occ. eigenvalues --   -0.63836  -0.63781  -0.63456  -0.63377  -0.62594
 Alpha  occ. eigenvalues --   -0.62327  -0.61844  -0.61667  -0.60914  -0.60392
 Alpha  occ. eigenvalues --   -0.60192  -0.59790  -0.59734  -0.59483  -0.59254
 Alpha  occ. eigenvalues --   -0.59242  -0.56593  -0.56072  -0.55278  -0.54798
 Alpha  occ. eigenvalues --   -0.54273  -0.54056  -0.53989  -0.53944  -0.53616
 Alpha  occ. eigenvalues --   -0.53240  -0.52519  -0.52424  -0.51882  -0.51830
 Alpha  occ. eigenvalues --   -0.50970  -0.50826  -0.50368  -0.50021  -0.49718
 Alpha  occ. eigenvalues --   -0.49542  -0.49219  -0.49000  -0.48800  -0.48622
 Alpha  occ. eigenvalues --   -0.47884  -0.47856  -0.47727  -0.47444  -0.47379
 Alpha  occ. eigenvalues --   -0.47073  -0.47054  -0.46840  -0.46754  -0.46746
 Alpha  occ. eigenvalues --   -0.46668  -0.46467  -0.46316  -0.46257  -0.46221
 Alpha  occ. eigenvalues --   -0.45949  -0.45795  -0.45767  -0.45290  -0.44992
 Alpha  occ. eigenvalues --   -0.44672  -0.44630  -0.44449  -0.44195  -0.44175
 Alpha  occ. eigenvalues --   -0.44083  -0.43883  -0.43843  -0.43753  -0.43635
 Alpha  occ. eigenvalues --   -0.43464  -0.43205  -0.43168  -0.43082  -0.43034
 Alpha  occ. eigenvalues --   -0.42865  -0.42375  -0.42280  -0.42248  -0.41902
 Alpha  occ. eigenvalues --   -0.41817  -0.41786  -0.41702  -0.41665  -0.41570
 Alpha  occ. eigenvalues --   -0.41476  -0.41254  -0.41006  -0.40864  -0.40499
 Alpha  occ. eigenvalues --   -0.40478  -0.40062  -0.39991  -0.39857  -0.39730
 Alpha  occ. eigenvalues --   -0.39509  -0.39306  -0.39286  -0.39221  -0.38901
 Alpha  occ. eigenvalues --   -0.38856  -0.38831  -0.38731  -0.38499  -0.38279
 Alpha  occ. eigenvalues --   -0.38197  -0.38072  -0.37942  -0.37870  -0.37792
 Alpha  occ. eigenvalues --   -0.37777  -0.37570  -0.37393  -0.37036  -0.36938
 Alpha  occ. eigenvalues --   -0.36854  -0.36745  -0.36591  -0.36497  -0.36338
 Alpha  occ. eigenvalues --   -0.36206  -0.36128  -0.36036  -0.35726  -0.35565
 Alpha  occ. eigenvalues --   -0.35131  -0.35097  -0.34727  -0.34432  -0.34064
 Alpha  occ. eigenvalues --   -0.33610  -0.33500  -0.32813  -0.32657  -0.32297
 Alpha  occ. eigenvalues --   -0.32293  -0.32054  -0.31999  -0.31374  -0.31250
 Alpha  occ. eigenvalues --   -0.31216  -0.30789  -0.29722  -0.29508  -0.29195
 Alpha  occ. eigenvalues --   -0.28900  -0.28584  -0.28202  -0.27009  -0.27008
 Alpha  occ. eigenvalues --   -0.26043  -0.25719  -0.25673  -0.25505  -0.25464
 Alpha  occ. eigenvalues --   -0.25093  -0.25032  -0.24307  -0.21240  -0.21117
 Alpha  occ. eigenvalues --   -0.19201  -0.19149
 Alpha virt. eigenvalues --   -0.11593  -0.11545  -0.05947  -0.05245  -0.03988
 Alpha virt. eigenvalues --   -0.03925  -0.02046  -0.02026  -0.00164  -0.00028
 Alpha virt. eigenvalues --   -0.00007   0.00767   0.01129   0.01245   0.01311

 Mulliken charges:
               1
     1  Mg  12.000012
     2  C    5.999195
     3  C    5.999994
     4  C    6.000590
     5  C    6.000097
     6  N    6.999479
     7  C    6.001109
     8  C    5.999607
     9  C    6.000409
    10  C    5.999140
    11  C    6.000135
    12  C    5.999918
    13  C    5.999997
    14  H    1.000130
    15  N    7.000327
    16  C    5.998829
    17  C    5.999327
    18  C    5.999377
    19  C    5.999068
    20  C    6.000117
    21  C    5.999687
    22  O    7.998948
    23  C    6.000064
    24  N    7.000255
    25  C    5.999117
    26  C    6.000065
    27  C    5.999855
    28  C    6.000765
    29  C    6.000088
    30  C    5.999881
    31  C    6.000037
    32  N    6.999970
    33  C    6.001064
    34  C    6.000872
    35  C    6.000258
    36  C    6.000933
    37  C    6.000032
    38  C    6.000467
    39  O    8.001132
    40  C    6.000239
    41  C    6.000139
    42  O    8.000110
    43  O    8.000097
    44  C    5.999933
    45  H    0.999541
    46  H    0.999908
    47  H    1.000400
    48  H    0.999925
    49  H    0.999904
    50  H    0.999518
    51  H    1.000052
    52  H    0.999874
    53  H    1.000317
    54  H    0.999773
    55  H    1.000109
    56  H    0.999891
    57  H    0.999375
    58  H    0.999436
    59  H    0.999459
    60  H    0.999701
    61  H    0.999507
    62  H    0.999843
    63  H    1.000114
    64  H    0.999982
    65  H    0.999729
    66  H    1.000006
    67  H    1.000188
    68  H    0.999829
    69  H    1.000330
    70  H    0.999951
    71  H    1.000155
    72  H    1.000174
    73  H    1.000517
    74  H    1.000541
    75  H    1.000460
    76  H    1.000233
    77  H    1.000038
    78  H    1.000186
    79  H    1.000165
    80  Mg  12.001395
    81  C    6.012978
    82  C    5.986597
    83  C    5.982868
    84  C    6.015097
    85  N    7.004428
    86  C    5.970366
    87  C    6.012462
    88  C    5.992488
    89  C    6.026474
    90  C    5.997343
    91  C    6.000969
    92  C    6.001192
    93  H    0.992612
    94  N    6.991285
    95  C    6.040873
    96  C    6.021642
    97  C    6.011111
    98  C    6.036268
    99  C    5.990695
   100  C    6.006861
   101  O    8.017451
   102  C    5.999592
   103  N    7.006030
   104  C    6.031859
   105  C    5.992771
   106  C    6.006762
   107  C    5.965195
   108  C    5.999307
   109  C    6.006275
   110  C    6.000947
   111  N    7.002150
   112  C    5.961446
   113  C    5.975349
   114  C    5.996583
   115  C    5.970186
   116  C    6.000353
   117  C    5.981983
   118  O    7.969311
   119  C    6.002832
   120  C    5.995301
   121  O    7.991696
   122  O    8.000292
   123  C    6.003139
   124  H    1.009539
   125  H    1.010522
   126  H    0.991164
   127  H    0.996809
   128  H    1.000581
   129  H    1.011009
   130  H    0.997491
   131  H    0.999718
   132  H    0.992970
   133  H    1.006605
   134  H    1.004026
   135  H    0.999539
   136  H    1.018317
   137  H    1.020742
   138  H    1.018897
   139  H    1.005657
   140  H    1.009824
   141  H    1.011400
   142  H    0.999080
   143  H    1.002435
   144  H    0.997597
   145  H    1.011599
   146  H    1.001577
   147  H    0.995104
   148  H    0.986655
   149  H    0.995061
   150  H    1.005628
   151  H    0.996589
   152  H    0.982615
   153  H    0.987499
   154  H    0.982689
   155  H    0.990814
   156  H    0.997177
   157  H    0.994015
   158  H    0.996240
 Sum of Mulliken charges = 624.00000

 Dipole moment (field-independent basis, Debye):
    X=              7.3814    Y=              3.4850    Z=             -6.2888  Tot=             10.3043
 Quadrupole moment (field-independent basis, Debye-Ang):
   XX=            351.9743   YY=              1.6074   ZZ=             -1.4231
   XY=             85.8926   XZ=           -171.8673   YZ=             -1.0524

 Normal termination of Gaussian 16 at Fri Oct 15 11:04:38 2021.
