 Gaussian 16, Revision A.03,
 Gaussian 16:  ES64L-G16RevA.03 25-Dec-2016

 --------------------------------------------------------
 #p PBE1PBE/Def2SVP td=(nstates=5) density=(transition=1)
 --------------------------------------------------------

 --------------------------------
 TDDFT excited states in gaussian
 --------------------------------
 Symbolic Z-matrix:
 Charge =  0 Multiplicity = 1

                         Standard orientation:
 ---------------------------------------------------------------------
 Center     Atomic      Atomic             Coordinates (Angstroms)
 Number     Number       Type             X           Y           Z
 ---------------------------------------------------------------------
      1         12           0      -23.603995    0.446182    0.451878
      2          6           0      -22.621625   -2.446967   -1.145182
      3          6           0      -21.740752    2.210830   -2.046569
      4          6           0      -24.170922    3.237519    2.045678
      5          6           0      -25.079126   -1.394577    2.981858
      6          7           0      -22.131556   -0.132505   -1.297842
      7          6           0      -22.115270   -1.338392   -1.840494
      8          6           0      -21.587268   -1.284537   -3.301968
      9          6           0      -20.834483    0.091211   -3.262209
     10          6           0      -21.584792    0.823838   -2.138416
     11          6           0      -19.304115   -0.072435   -2.951678
     12          6           0      -22.837467   -1.297185   -4.209521
     13          6           0      -22.586495   -1.398237   -5.720227
     14          1           0      -21.185880   -1.227841   -6.273442
     15          7           0      -23.180186    2.447469    0.081530
     16          6           0      -22.425425    2.954775   -1.031537
     17          6           0      -22.565046    4.403723   -0.981445
     18          6           0      -23.373343    4.703888    0.159303
     19          6           0      -23.592607    3.439532    0.860271
     20          6           0      -21.968913    5.400808   -2.043814
     21          6           0      -23.942010    6.102115    0.570557
     22          8           0      -24.504184    6.193677    1.627344
     23          6           0      -23.751294    7.290803   -0.314543
     24          7           0      -24.591190    0.869892    2.235904
     25          6           0      -24.714130    2.128314    2.714979
     26          6           0      -25.393643    2.189741    4.082451
     27          6           0      -25.800942    0.714271    4.301854
     28          6           0      -25.100651    0.001404    3.074481
     29          6           0      -24.516458    2.766886    5.253521
     30          6           0      -27.264452    0.423348    4.515999
     31          6           0      -28.349302    1.036921    3.598285
     32          7           0      -23.838529   -1.502773    0.919453
     33          6           0      -24.462345   -2.125769    1.962248
     34          6           0      -24.441957   -3.546319    1.683907
     35          6           0      -23.752272   -3.768778    0.442629
     36          6           0      -23.395296   -2.454164    0.035367
     37          6           0      -25.044013   -4.583805    2.579330
     38          6           0      -23.244406   -4.727603   -0.480100
     39          8           0      -23.265641   -5.977459   -0.507255
     40          6           0      -22.243297   -3.848375   -1.410060
     41          6           0      -22.367136   -4.407567   -2.828355
     42          8           0      -23.367465   -4.546128   -3.421996
     43          8           0      -21.116344   -4.754327   -3.253677
     44          6           0      -20.914825   -4.966327   -4.672296
     45          1           0      -21.116965    2.736855   -2.771643
     46          1           0      -24.343939    4.133813    2.645020
     47          1           0      -25.510622   -2.033012    3.754622
     48          1           0      -20.858014   -2.068238   -3.506632
     49          1           0      -21.044682    0.521327   -4.241749
     50          1           0      -18.732663    0.070360   -3.867995
     51          1           0      -19.154185   -1.068560   -2.534872
     52          1           0      -18.916455    0.680616   -2.265520
     53          1           0      -23.343055   -0.341229   -4.075516
     54          1           0      -23.583206   -2.015342   -3.869983
     55          1           0      -23.348891   -0.896098   -6.316223
     56          1           0      -22.883827   -2.416814   -5.970322
     57          1           0      -21.400783    6.208673   -1.581683
     58          1           0      -22.821701    5.749991   -2.625763
     59          1           0      -21.358185    4.847581   -2.758312
     60          1           0      -24.623047    7.895635   -0.063903
     61          1           0      -23.870019    7.052164   -1.370834
     62          1           0      -22.777271    7.773673   -0.392907
     63          1           0      -26.262765    2.830274    3.934314
     64          1           0      -25.271818    0.245752    5.131654
     65          1           0      -24.808691    2.204219    6.139748
     66          1           0      -24.854603    3.802033    5.305122
     67          1           0      -23.461644    2.759740    4.979080
     68          1           0      -27.435236    0.992259    5.429316
     69          1           0      -27.559432   -0.618741    4.643525
     70          1           0      -29.087802    1.700995    4.045464
     71          1           0      -29.018550    0.270482    3.207485
     72          1           0      -27.865517    1.608365    2.805998
     73          1           0      -24.804517   -5.541291    2.117647
     74          1           0      -26.131157   -4.494318    2.575445
     75          1           0      -24.780353   -4.500402    3.633257
     76          1           0      -21.260642   -3.974840   -0.955171
     77          1           0      -20.481110   -5.949452   -4.488824
     78          1           0      -20.325168   -4.186370   -5.154506
     79          1           0      -21.834062   -5.097735   -5.243710
     80         12           0       23.594117    0.576374   -0.435754
     81          6           0       22.655421   -2.685689    0.202391
     82          6           0       20.265634    1.450231   -0.346866
     83          6           0       24.539558    3.878532   -0.468866
     84          6           0       26.906947   -0.358966   -0.397135
     85          7           0       21.716635   -0.443865    0.083666
     86          6           0       21.596507   -1.810964    0.237598
     87          6           0       20.143352   -2.236153    0.430899
     88          6           0       19.383209   -0.958962   -0.087841
     89          6           0       20.500542    0.073932   -0.070943
     90          6           0       18.583606   -1.089401   -1.462559
     91          6           0       19.744431   -2.715959    1.862888
     92          6           0       18.905377   -3.974823    1.924651
     93          1           0       17.482097   -3.693415    2.380600
     94          7           0       22.532322    2.362119   -0.394392
     95          6           0       21.202978    2.512050   -0.387031
     96          6           0       20.841718    3.916026   -0.479569
     97          6           0       21.980465    4.703395   -0.515139
     98          6           0       23.101903    3.674125   -0.408745
     99          6           0       19.321192    4.420096   -0.435007
    100          6           0       22.050258    6.256982   -0.699494
    101          8           0       20.969712    6.910598   -0.742133
    102          6           0       23.339841    6.980963   -0.773306
    103          7           0       25.523490    1.678369   -0.187319
    104          6           0       25.650316    2.966778   -0.407083
    105          6           0       27.080650    3.377211   -0.688375
    106          6           0       27.945313    2.074489   -0.594299
    107          6           0       26.746805    1.018209   -0.456755
    108          6           0       27.393773    4.373972   -1.849679
    109          6           0       28.998845    1.904471    0.538410
    110          6           0       30.010789    0.815800    0.246598
    111          7           0       24.612089   -1.197196   -0.138588
    112          6           0       25.998375   -1.458868   -0.235533
    113          6           0       26.186923   -2.879782   -0.126407
    114          6           0       24.894854   -3.441745    0.016673
    115          6           0       24.023564   -2.356269    0.040619
    116          6           0       27.475489   -3.645610   -0.387045
    117          6           0       24.243096   -4.650554    0.131157
    118          8           0       24.578181   -5.795332    0.269969
    119          6           0       22.712042   -4.215546    0.412986
    120          6           0       22.554800   -4.386493    1.923153
    121          8           0       22.928456   -3.597357    2.769454
    122          8           0       21.931631   -5.607727    2.123190
    123          6           0       21.779417   -6.025498    3.513132
    124          1           0       19.234275    1.759173   -0.528478
    125          1           0       24.768553    4.945685   -0.492938
    126          1           0       27.893163   -0.815967   -0.501802
    127          1           0       19.938628   -3.029846   -0.287015
    128          1           0       18.760764   -0.612570    0.737992
    129          1           0       18.548972   -0.051411   -1.793254
    130          1           0       17.529828   -1.343576   -1.345663
    131          1           0       19.006159   -1.753082   -2.216807
    132          1           0       19.180830   -1.870434    2.257800
    133          1           0       20.534886   -2.744930    2.612565
    134          1           0       19.403177   -4.661365    2.609834
    135          1           0       18.818286   -4.466705    0.955653
    136          1           0       18.575417    3.636116   -0.296897
    137          1           0       19.071760    4.963772   -1.346828
    138          1           0       19.100886    5.037679    0.434612
    139          1           0       23.915970    6.611938   -1.621245
    140          1           0       23.845931    6.999949    0.191985
    141          1           0       23.062479    7.970517   -1.134434
    142          1           0       27.581121    3.917568    0.115408
    143          1           0       28.319629    1.750919   -1.565818
    144          1           0       26.432732    4.796176   -2.146578
    145          1           0       27.980878    3.938244   -2.658923
    146          1           0       27.995813    5.232683   -1.552239
    147          1           0       28.430628    1.745107    1.454735
    148          1           0       29.444906    2.893962    0.638080
    149          1           0       30.949600    1.107059    0.718325
    150          1           0       30.220869    0.644503   -0.809825
    151          1           0       29.715376   -0.092330    0.772143
    152          1           0       27.342875   -4.725969   -0.445536
    153          1           0       28.181622   -3.377494    0.397755
    154          1           0       27.936212   -3.336626   -1.325390
    155          1           0       22.019199   -4.760621   -0.228816
    156          1           0       22.763043   -6.200125    3.949434
    157          1           0       21.133498   -6.897912    3.605942
    158          1           0       21.347165   -5.209225    4.091200
 ---------------------------------------------------------------------

 SCF Done:  E(RPBE1PBE) =  -4067.36902255     A.U. after   17 cycles

 Excitation energies and oscillator strengths:

 Excited State   1:      Singlet-A      1.8855 eV  657.57 nm  f=0.0720  <S**2>=0.000
     309 -> 315        0.11210
     310 -> 316       -0.12038
     311 -> 313        0.53580
     312 -> 314       -0.43582
 This state for optimization and/or second-order correction.
 Total Energy, E(TD-HF/TD-DFT) =  -4067.29973248
 Copying the excited state density for this state as the 1-particle RhoCI density.

 Excited State   2:      Singlet-A      1.8861 eV  657.36 nm  f=0.6523  <S**2>=0.000
     310 -> 316        0.14725
     311 -> 313        0.43852
     312 -> 314        0.53242

 Excited State   3:      Singlet-A      1.9981 eV  620.51 nm  f=0.0000  <S**2>=0.000
     312 -> 313        0.70711

 Excited State   4:      Singlet-A      2.1055 eV  588.86 nm  f=0.0000  <S**2>=0.000
     311 -> 314        0.70711

 Excited State   5:      Singlet-A      2.2137 eV  560.07 nm  f=0.0906  <S**2>=0.000
     310 -> 314        0.64980
     312 -> 316       -0.26389

 The electronic state is 1-A.
 Alpha  occ. eigenvalues --  -46.92802 -46.91657 -19.25327 -19.25019 -19.20393
 Alpha  occ. eigenvalues --  -19.20279 -19.20085 -19.19346 -19.19192 -19.18480
 Alpha  occ. eigenvalues --  -14.41728 -14.41594 -14.41245 -14.41168 -14.39985
 Alpha  occ. eigenvalues --  -14.39009 -14.38917 -14.38425 -10.36307 -10.35863
 Alpha  occ. eigenvalues --  -10.33840 -10.32456 -10.32150 -10.30949 -10.30230
 Alpha  occ. eigenvalues --  -10.29692 -10.29019 -10.28660 -10.28548 -10.28479
 Alpha  occ. eigenvalues --  -10.28373 -10.28366 -10.28283 -10.28244 -10.28152
 Alpha  occ. eigenvalues --  -10.28128 -10.27855 -10.27218 -10.26929 -10.26874
 Alpha  occ. eigenvalues --  -10.26848 -10.26691 -10.26372 -10.26275 -10.26255
 Alpha  occ. eigenvalues --  -10.26163 -10.26132 -10.26058 -10.26024 -10.25868
 Alpha  occ. eigenvalues --  -10.25839 -10.25627 -10.25619 -10.25536 -10.25413
 Alpha  occ. eigenvalues --  -10.25399 -10.25332 -10.25315 -10.25275 -10.25271
 Alpha  occ. eigenvalues --  -10.25247 -10.25144 -10.25108 -10.24568 -10.24562
 Alpha  occ. eigenvalues --  -10.24544 -10.24535 -10.24513 -10.24463 -10.24326
 Alpha  occ. eigenvalues --  -10.24313 -10.24295 -10.24182 -10.24075 -10.23846
 Alpha  occ. eigenvalues --  -10.23811 -10.23751 -10.23636 -10.23537 -10.23377
 Alpha  occ. eigenvalues --  -10.23347 -10.23150 -10.23125 -10.22682 -10.22633
 Alpha  occ. eigenvalues --  -10.21448  -3.14823  -3.13872  -1.87646  -1.87201
 Alpha  occ. eigenvalues --   -1.87050  -1.86714  -1.86263  -1.86086  -1.12339
 Alpha  occ. eigenvalues --   -1.10373  -1.06324  -1.05043  -1.04607  -1.03493
 Alpha  occ. eigenvalues --   -1.02896  -1.02668  -0.99870  -0.99173  -0.98652
 Alpha  occ. eigenvalues --   -0.98385  -0.97907  -0.97679  -0.97219  -0.96813
 Alpha  occ. eigenvalues --   -0.87332  -0.86241  -0.83654  -0.83481  -0.83047
 Alpha  occ. eigenvalues --   -0.82769  -0.82763  -0.82184  -0.81646  -0.81386
 Alpha  occ. eigenvalues --   -0.80700  -0.80584  -0.80368  -0.79943  -0.78658
 Alpha  occ. eigenvalues --   -0.78352  -0.77996  -0.77941  -0.77241  -0.76712
 Alpha  occ. eigenvalues --   -0.76360  -0.75956  -0.75726  -0.75199  -0.74607
 Alpha  occ. eigenvalues --   -0.74602  -0.72327  -0.71991  -0.71663  -0.71356
 Alpha  occ. eigenvalues --   -0.71070  -0.70938  -0.70175  -0.69891  -0.69758
 Alpha  occ. eigenvalues --   -0.69490  -0.67092  -0.66949  -0.66447  -0.66123
 Alpha  occ. eigenvalues --   -0.64629  -0.64094  -0.63491  -0.63289  -0.62497
 Alpha  occ. eigenvalues --   -0.62489  -0.61619  -0.60679  -0.60033  -0.59919
 Alpha  occ. eigenvalues --   -0.59655  -0.59414  -0.59226  -0.58815  -0.58718
 Alpha  occ. eigenvalues --   -0.58625  -0.56882  -0.56404  -0.55074  -0.54365
 Alpha  occ. eigenvalues --   -0.54191  -0.54157  -0.53713  -0.53577  -0.53371
 Alpha  occ. eigenvalues --   -0.52998  -0.52722  -0.52535  -0.52371  -0.52074
 Alpha  occ. eigenvalues --   -0.50842  -0.50754  -0.50581  -0.50239  -0.50137
 Alpha  occ. eigenvalues --   -0.49848  -0.49702  -0.48783  -0.48727  -0.48349
 Alpha  occ. eigenvalues --   -0.48273  -0.48101  -0.48066  -0.48037  -0.47771
 Alpha  occ. eigenvalues --   -0.47661  -0.47223  -0.46991  -0.46734  -0.46615
 Alpha  occ. eigenvalues --   -0.46593  -0.46255  -0.46210  -0.45715  -0.45482
 Alpha  occ. eigenvalues --   -0.45358  -0.45255  -0.45233  -0.44764  -0.44756
 Alpha  occ. eigenvalues --   -0.44623  -0.44550  -0.44276  -0.44262  -0.44111
 Alpha  occ. eigenvalues --   -0.43986  -0.43931  -0.43899  -0.43753  -0.43386
 Alpha  occ. eigenvalues --   -0.43345  -0.43262  -0.42910  -0.42876  -0.42786
 Alpha  occ. eigenvalues --   -0.42626  -0.42301  -0.42266  -0.42027  -0.41614
 Alpha  occ. eigenvalues --   -0.41534  -0.41415  -0.41270  -0.41248  -0.41047
 Alpha  occ. eigenvalues --   -0.40827  -0.40676  -0.40640  -0.40608  -0.40232
 Alpha  occ. eigenvalues --   -0.40092  -0.40032  -0.39937  -0.39930  -0.39689
 Alpha  occ. eigenvalues --   -0.39583  -0.39517  -0.39450  -0.38886  -0.38813
 Alpha  occ. eigenvalues --   -0.38692  -0.38519  -0.38257  -0.38185  -0.38159
 Alpha  occ. eigenvalues --   -0.37865  -0.37781  -0.37710  -0.37587  -0.37510
 Alpha  occ. eigenvalues --   -0.37390  -0.37216  -0.37189  -0.37078  -0.36942
 Alpha  occ. eigenvalues --   -0.36869  -0.36815  -0.36669  -0.36465  -0.36395
 Alpha  occ. eigenvalues --   -0.36301  -0.35855  -0.35827  -0.35372  -0.35104
 Alpha  occ. eigenvalues --   -0.35094  -0.34905  -0.34444  -0.34411  -0.34197
 Alpha  occ. eigenvalues --   -0.33960  -0.33324  -0.33041  -0.32799  -0.32531
 Alpha  occ. eigenvalues --   -0.32447  -0.32164  -0.31554  -0.31425  -0.31286
 Alpha  occ. eigenvalues --   -0.30876  -0.30488  -0.30128  -0.29654  -0.29267
 Alpha  occ. eigenvalues --   -0.29124  -0.28825  -0.28708  -0.27227  -0.26954
 Alpha  occ. eigenvalues --   -0.26778  -0.26401  -0.26031  -0.25619  -0.25313
 Alpha  occ. eigenvalues --   -0.25236  -0.24984  -0.24941  -0.20875  -0.20748
 Alpha  occ. eigenvalues --   -0.18953  -0.18727
 Alpha virt. eigenvalues --   -0.11101  -0.10938  -0.05480  -0.05343  -0.04005
 Alpha virt. eigenvalues --   -0.03922  -0.02523  -0.01803  -0.00938   0.00282
 Alpha virt. eigenvalues --    0.00881   0.01256   0.01294   0.01482   0.01832

 Mulliken charges:
               1
     1  Mg  11.998061
     2  C    6.002932
     3  C    5.985235
     4  C    5.992475
     5  C    6.008442
     6  N    6.997071
     7  C    5.985576
     8  C    6.002620
     9  C    5.994508
    10  C    6.022622
    11  C    5.998480
    12  C    6.004302
    13  C    5.999141
    14  H    0.996498
    15  N    6.995146
    16  C    6.032335
    17  C    6.006675
    18  C    6.011936
    19  C    6.016077
    20  C    6.000410
    21  C    6.009054
    22  O    8.016201
    23  C    5.997234
    24  N    7.001310
    25  C    6.021437
    26  C    5.994169
    27  C    6.003096
    28  C    5.981115
    29  C    5.999311
    30  C    6.004104
    31  C    6.000981
    32  N    7.001464
    33  C    5.980060
    34  C    5.979103
    35  C    5.997559
    36  C    5.986438
    37  C    6.000550
    38  C    5.989191
    39  O    7.979424
    40  C    6.000522
    41  C    5.996340
    42  O    7.997027
    43  O    7.999073
    44  C    6.000482
    45  H    1.005241
    46  H    1.003923
    47  H    0.996675
    48  H    1.001084
    49  H    1.001201
    50  H    1.002741
    51  H    1.008807
    52  H    0.997748
    53  H    0.992204
    54  H    1.004854
    55  H    0.997684
    56  H    1.002307
    57  H    1.008640
    58  H    1.008855
    59  H    1.009918
    60  H    1.008514
    61  H    1.004015
    62  H    1.006352
    63  H    0.999649
    64  H    1.001749
    65  H    1.006760
    66  H    0.998690
    67  H    1.000262
    68  H    0.995076
    69  H    1.003260
    70  H    0.997670
    71  H    1.002290
    72  H    0.994191
    73  H    0.992788
    74  H    0.985872
    75  H    0.987105
    76  H    0.995581
    77  H    0.998928
    78  H    0.995576
    79  H    0.998002
    80  Mg  12.000862
    81  C    5.992732
    82  C    6.010083
    83  C    6.009587
    84  C    5.992716
    85  N    6.997919
    86  C    6.018595
    87  C    5.993357
    88  C    6.006523
    89  C    5.974418
    90  C    6.000581
    91  C    5.996061
    92  C    5.998163
    93  H    1.006918
    94  N    7.003860
    95  C    5.975979
    96  C    5.982047
    97  C    5.993419
    98  C    5.972429
    99  C    6.001371
   100  C    5.990954
   101  O    7.985184
   102  C    6.002904
   103  N    6.996709
   104  C    5.975783
   105  C    6.011876
   106  C    5.996726
   107  C    6.024587
   108  C    6.000442
   109  C    5.996289
   110  C    5.998404
   111  N    7.001049
   112  C    6.029016
   113  C    6.020052
   114  C    6.003695
   115  C    6.016069
   116  C    6.000567
   117  C    6.012405
   118  O    8.023413
   119  C    6.001339
   120  C    6.001421
   121  O    8.005129
   122  O    8.001251
   123  C    5.998191
   124  H    0.994201
   125  H    0.994650
   126  H    1.004022
   127  H    0.998858
   128  H    1.000187
   129  H    1.004681
   130  H    0.994958
   131  H    0.991982
   132  H    1.007885
   133  H    0.997866
   134  H    0.997421
   135  H    1.000047
   136  H    0.986858
   137  H    0.988634
   138  H    0.987701
   139  H    0.993414
   140  H    0.992990
   141  H    0.991256
   142  H    0.994120
   143  H    0.998368
   144  H    1.004863
   145  H    0.993407
   146  H    0.997650
   147  H    1.001938
   148  H    1.007832
   149  H    1.003373
   150  H    1.000642
   151  H    0.995115
   152  H    1.009198
   153  H    1.013078
   154  H    1.014182
   155  H    1.008473
   156  H    1.000471
   157  H    1.004052
   158  H    1.004553
 Sum of Mulliken charges = 624.00000

 Dipole moment (field-independent basis, Debye):
    X=              4.4568    Y=             -0.5196    Z=             -0.0599  Tot=              4.4874
 Quadrupole moment (field-independent basis, Debye-Ang):
   XX=            132.6774   YY=             -1.8485   ZZ=             -1.0806
   XY=           -306.4570   XZ=             31.1744   YZ=              2.3265

 Normal termination of Gaussian 16 at Thu Oct 14 07:12:53 2021.
