 Gaussian 16, Revision A.03,
 Gaussian 16:  ES64L-G16RevA.03 25-Dec-2016

 --------------------------------------------------------
 #p PBE1PBE/Def2SVP td=(nstates=5) density=(transition=1)
 --------------------------------------------------------

 --------------------------------
 TDDFT excited states in gaussian
 --------------------------------
 Symbolic Z-matrix:
 Charge =  0 Multiplicity = 1

                         Standard orientation:
 ---------------------------------------------------------------------
 Center     Atomic      Atomic             Coordinates (Angstroms)
 Number     Number       Type             X           Y           Z
 ---------------------------------------------------------------------
      1         12           0       19.306069   -0.770429   -0.090606
      2          6           0       21.104827    2.159484   -0.223599
      3          6           0       16.940653    0.890627    1.885322
      4          6           0       17.526246   -3.626825    0.169437
      5          6           0       21.813406   -2.407851   -1.687279
      6          7           0       19.214135    1.256040    0.952910
      7          6           0       19.973859    2.351513    0.523937
      8          6           0       19.364323    3.692493    0.978303
      9          6           0       18.086520    3.185940    1.743335
     10          6           0       18.004344    1.693795    1.503054
     11          6           0       18.101303    3.532780    3.226719
     12          6           0       19.019529    4.788756   -0.090989
     13          6           0       19.893882    6.156973   -0.056742
     14          1           0       19.000451    7.380875    0.167628
     15          7           0       17.579987   -1.327828    0.948087
     16          6           0       16.684421   -0.460679    1.594585
     17          6           0       15.422091   -1.136457    1.912122
     18          6           0       15.569720   -2.563504    1.480629
     19          6           0       16.908300   -2.573209    0.766100
     20          6           0       14.263012   -0.445542    2.596032
     21          6           0       14.681796   -3.709102    1.615871
     22          8           0       15.068572   -4.832371    1.260981
     23          6           0       13.301775   -3.618548    2.243291
     24          7           0       19.685437   -2.673652   -0.596477
     25          6           0       18.744277   -3.717200   -0.522861
     26          6           0       19.175820   -5.058993   -1.241477
     27          6           0       20.615631   -4.592296   -1.805096
     28          6           0       20.698024   -3.119397   -1.344414
     29          6           0       19.250726   -6.341011   -0.273973
     30          6           0       20.712344   -4.761717   -3.360347
     31          6           0       22.016428   -5.216439   -3.937025
     32          7           0       21.175053   -0.232484   -0.727674
     33          6           0       22.091855   -1.018660   -1.431473
     34          6           0       23.176645   -0.230922   -1.908666
     35          6           0       22.767633    1.098635   -1.521394
     36          6           0       21.600228    0.988467   -0.755370
     37          6           0       24.356026   -0.586721   -2.712706
     38          6           0       23.203825    2.459322   -1.481853
     39          8           0       24.161287    3.084907   -1.950372
     40          6           0       22.184196    3.182045   -0.489379
     41          6           0       22.933480    3.654355    0.704948
     42          8           0       23.014629    3.156457    1.758331
     43          8           0       23.480328    4.912344    0.462753
     44          6           0       23.710789    5.718331    1.643605
     45          1           0       16.165058    1.437919    2.425172
     46          1           0       17.019147   -4.592717    0.122232
     47          1           0       22.549315   -2.895796   -2.329716
     48          1           0       20.032646    4.146470    1.709187
     49          1           0       17.182917    3.688202    1.396770
     50          1           0       18.164944    2.608826    3.800866
     51          1           0       17.126832    3.997764    3.371077
     52          1           0       18.849416    4.262015    3.536875
     53          1           0       17.968000    5.050885    0.028604
     54          1           0       19.169492    4.414314   -1.103709
     55          1           0       20.274103    6.207884   -1.077160
     56          1           0       20.664827    6.096725    0.711124
     57          1           0       14.553452   -0.311062    3.638718
     58          1           0       13.397094   -1.102879    2.534125
     59          1           0       14.085327    0.567103    2.233340
     60          1           0       13.031374   -4.643566    2.497738
     61          1           0       12.554598   -3.153402    1.599429
     62          1           0       13.230715   -3.167100    3.232662
     63          1           0       18.547055   -5.227983   -2.115059
     64          1           0       21.462565   -5.173840   -1.440225
     65          1           0       20.116604   -6.937561   -0.561931
     66          1           0       18.450641   -7.074131   -0.368955
     67          1           0       19.317210   -6.075629    0.781323
     68          1           0       20.397915   -3.881839   -3.921403
     69          1           0       20.060421   -5.550712   -3.734801
     70          1           0       22.381431   -4.355707   -4.497167
     71          1           0       22.039951   -5.959829   -4.733848
     72          1           0       22.706651   -5.470716   -3.131976
     73          1           0       24.106943   -1.457794   -3.319376
     74          1           0       25.102619   -0.872330   -1.971774
     75          1           0       24.727109    0.313321   -3.203302
     76          1           0       21.732214    4.043243   -0.980832
     77          1           0       24.613470    5.290089    2.078023
     78          1           0       22.854623    5.536335    2.292991
     79          1           0       23.885028    6.763990    1.388343
     80         12           0      -19.818085   -0.645698    0.135249
     81          6           0      -19.614340    2.730444   -1.117735
     82          6           0      -18.862484    0.646932    3.251860
     83          6           0      -20.113161   -3.691704    1.324647
     84          6           0      -20.453478   -1.765223   -3.114992
     85          7           0      -19.273742    1.512262    0.925058
     86          6           0      -19.469178    2.707223    0.307706
     87          6           0      -19.402372    3.870198    1.284164
     88          6           0      -18.804760    3.205126    2.646394
     89          6           0      -18.958851    1.705724    2.259888
     90          6           0      -17.382063    3.678513    3.036304
     91          6           0      -20.788790    4.569483    1.487698
     92          6           0      -20.780540    6.088330    1.175114
     93          1           0      -21.092309    7.029950    2.476133
     94          7           0      -19.542464   -1.389655    1.970952
     95          6           0      -19.112001   -0.749664    3.182261
     96          6           0      -19.035029   -1.671638    4.340086
     97          6           0      -19.461052   -2.907271    3.751671
     98          6           0      -19.722601   -2.693094    2.318456
     99          6           0      -18.579936   -1.278771    5.747040
    100          6           0      -19.545199   -4.245726    4.380708
    101          8           0      -20.128974   -5.218431    3.915081
    102          6           0      -18.974011   -4.410649    5.802768
    103          7           0      -20.386279   -2.393758   -0.737381
    104          6           0      -20.407560   -3.552678   -0.040257
    105          6           0      -20.549366   -4.764131   -0.919232
    106          6           0      -20.709221   -4.185946   -2.346873
    107          6           0      -20.567515   -2.670637   -2.078848
    108          6           0      -19.459679   -5.801857   -0.749405
    109          6           0      -22.192062   -4.541078   -2.951958
    110          6           0      -22.203998   -5.279140   -4.398814
    111          7           0      -19.741216    0.227841   -1.801810
    112          6           0      -20.114059   -0.380436   -3.024608
    113          6           0      -20.118585    0.661949   -4.057349
    114          6           0      -20.065681    1.866090   -3.307064
    115          6           0      -19.720502    1.549473   -1.992309
    116          6           0      -20.231718    0.538032   -5.573819
    117          6           0      -19.935123    3.338210   -3.498346
    118          8           0      -19.921500    4.118522   -4.490502
    119          6           0      -19.763741    3.922727   -2.043060
    120          6           0      -18.556380    4.813176   -2.028209
    121          8           0      -17.507313    4.537628   -2.538035
    122          8           0      -18.879989    6.012359   -1.456649
    123          6           0      -17.855013    7.056777   -1.707985
    124          1           0      -18.434443    1.075887    4.160056
    125          1           0      -20.224932   -4.726122    1.657114
    126          1           0      -20.687584   -2.086353   -4.131873
    127          1           0      -18.649707    4.551422    0.887182
    128          1           0      -19.459512    3.353516    3.505523
    129          1           0      -16.668145    2.856818    2.972256
    130          1           0      -17.381495    4.092561    4.045441
    131          1           0      -16.987706    4.519956    2.466553
    132          1           0      -21.142923    4.472344    2.514308
    133          1           0      -21.554020    4.140797    0.840039
    134          1           0      -21.610775    6.399196    0.540408
    135          1           0      -19.900262    6.448551    0.643641
    136          1           0      -18.584160   -0.216012    5.991222
    137          1           0      -17.611619   -1.673570    6.054441
    138          1           0      -19.305940   -1.745395    6.413597
    139          1           0      -17.904113   -4.202532    5.808430
    140          1           0      -19.186800   -5.393807    6.223911
    141          1           0      -19.471415   -3.685298    6.446607
    142          1           0      -21.437095   -5.309583   -0.596198
    143          1           0      -19.902659   -4.516925   -3.000437
    144          1           0      -19.793497   -6.702519   -0.233434
    145          1           0      -18.616746   -5.490697   -0.132467
    146          1           0      -19.069211   -6.040912   -1.738807
    147          1           0      -22.843356   -3.674969   -3.064692
    148          1           0      -22.758087   -5.208772   -2.302955
    149          1           0      -21.215803   -5.727584   -4.503022
    150          1           0      -22.408910   -4.579416   -5.210105
    151          1           0      -22.873102   -6.139209   -4.400393
    152          1           0      -20.740527    1.392364   -6.019858
    153          1           0      -20.912109   -0.288844   -5.780700
    154          1           0      -19.217473    0.283656   -5.881890
    155          1           0      -20.617124    4.583233   -1.891643
    156          1           0      -16.896840    6.656379   -1.377352
    157          1           0      -18.122699    7.845938   -1.005538
    158          1           0      -17.694877    7.412178   -2.725861
 ---------------------------------------------------------------------

 SCF Done:  E(RPBE1PBE) =  -4067.35548575     A.U. after   16 cycles

 Excitation energies and oscillator strengths:

 Excited State   1:      Singlet-A      1.8151 eV  683.08 nm  f=0.3848  <S**2>=0.000
     309 -> 315        0.14955
     311 -> 313        0.69540
     311 <- 313       -0.11528
 This state for optimization and/or second-order correction.
 Total Energy, E(TD-HF/TD-DFT) =  -4067.28878334
 Copying the excited state density for this state as the 1-particle RhoCI density.

 Excited State   2:      Singlet-A      1.8271 eV  678.60 nm  f=0.3631  <S**2>=0.000
     310 -> 316        0.18268
     312 -> 314        0.69104
     312 <- 314       -0.10662

 Excited State   3:      Singlet-A      1.8781 eV  660.15 nm  f=0.0000  <S**2>=0.000
     312 -> 313        0.70710

 Excited State   4:      Singlet-A      1.9909 eV  622.76 nm  f=0.0000  <S**2>=0.000
     311 -> 314        0.70711

 Excited State   5:      Singlet-A      2.1728 eV  570.63 nm  f=0.1298  <S**2>=0.000
     310 -> 314        0.65736
     312 -> 316       -0.25559

 The electronic state is 1-A.
 Alpha  occ. eigenvalues --  -46.92008 -46.91374 -19.26337 -19.22907 -19.20002
 Alpha  occ. eigenvalues --  -19.19817 -19.19100 -19.19077 -19.18901 -19.18461
 Alpha  occ. eigenvalues --  -14.42058 -14.41996 -14.41632 -14.41573 -14.40349
 Alpha  occ. eigenvalues --  -14.39888 -14.39054 -14.38382 -10.35886 -10.35170
 Alpha  occ. eigenvalues --  -10.32471 -10.32245 -10.32153 -10.31566 -10.29490
 Alpha  occ. eigenvalues --  -10.29442 -10.29191 -10.29132 -10.29124 -10.29083
 Alpha  occ. eigenvalues --  -10.28853 -10.28732 -10.28651 -10.28559 -10.28523
 Alpha  occ. eigenvalues --  -10.28473 -10.28190 -10.28128 -10.27982 -10.27904
 Alpha  occ. eigenvalues --  -10.27852 -10.27349 -10.27113 -10.27069 -10.26914
 Alpha  occ. eigenvalues --  -10.26888 -10.26840 -10.26488 -10.26464 -10.26437
 Alpha  occ. eigenvalues --  -10.26174 -10.26121 -10.26074 -10.25958 -10.25838
 Alpha  occ. eigenvalues --  -10.25717 -10.25708 -10.25652 -10.25553 -10.25505
 Alpha  occ. eigenvalues --  -10.25387 -10.25145 -10.25094 -10.25041 -10.25008
 Alpha  occ. eigenvalues --  -10.24978 -10.24918 -10.24875 -10.24592 -10.24422
 Alpha  occ. eigenvalues --  -10.24211 -10.24044 -10.23954 -10.23953 -10.23890
 Alpha  occ. eigenvalues --  -10.23723 -10.23601 -10.23589 -10.23470 -10.23368
 Alpha  occ. eigenvalues --  -10.23334 -10.23258 -10.23128 -10.23034 -10.22826
 Alpha  occ. eigenvalues --  -10.22538  -3.14228  -3.13707  -1.87066  -1.86602
 Alpha  occ. eigenvalues --   -1.86519  -1.86472  -1.86093  -1.85949  -1.11769
 Alpha  occ. eigenvalues --   -1.11604  -1.04604  -1.04093  -1.03553  -1.03079
 Alpha  occ. eigenvalues --   -1.02654  -1.01935  -0.99512  -0.98699  -0.98092
 Alpha  occ. eigenvalues --   -0.97895  -0.97293  -0.96670  -0.96630  -0.95112
 Alpha  occ. eigenvalues --   -0.87101  -0.85987  -0.83476  -0.82938  -0.82925
 Alpha  occ. eigenvalues --   -0.82809  -0.82765  -0.82373  -0.81780  -0.81755
 Alpha  occ. eigenvalues --   -0.81582  -0.81282  -0.80807  -0.80124  -0.78480
 Alpha  occ. eigenvalues --   -0.78285  -0.77839  -0.77524  -0.76677  -0.76118
 Alpha  occ. eigenvalues --   -0.75960  -0.75534  -0.75256  -0.75047  -0.74620
 Alpha  occ. eigenvalues --   -0.74016  -0.73302  -0.72966  -0.71760  -0.71516
 Alpha  occ. eigenvalues --   -0.71154  -0.71025  -0.70369  -0.69635  -0.69631
 Alpha  occ. eigenvalues --   -0.69595  -0.67583  -0.67082  -0.66127  -0.65893
 Alpha  occ. eigenvalues --   -0.63633  -0.63531  -0.63199  -0.63137  -0.62438
 Alpha  occ. eigenvalues --   -0.62008  -0.61955  -0.61561  -0.60418  -0.60136
 Alpha  occ. eigenvalues --   -0.60063  -0.59815  -0.59465  -0.59036  -0.58605
 Alpha  occ. eigenvalues --   -0.58525  -0.56996  -0.55497  -0.55327  -0.54640
 Alpha  occ. eigenvalues --   -0.54010  -0.53906  -0.53627  -0.53363  -0.53167
 Alpha  occ. eigenvalues --   -0.52997  -0.52895  -0.52518  -0.52239  -0.51777
 Alpha  occ. eigenvalues --   -0.51063  -0.50736  -0.50114  -0.49919  -0.49799
 Alpha  occ. eigenvalues --   -0.49522  -0.49110  -0.48533  -0.48438  -0.48326
 Alpha  occ. eigenvalues --   -0.48006  -0.47782  -0.47589  -0.47330  -0.47320
 Alpha  occ. eigenvalues --   -0.46941  -0.46816  -0.46701  -0.46427  -0.46320
 Alpha  occ. eigenvalues --   -0.46223  -0.46090  -0.46040  -0.45994  -0.45841
 Alpha  occ. eigenvalues --   -0.45501  -0.45406  -0.45169  -0.45128  -0.44795
 Alpha  occ. eigenvalues --   -0.44746  -0.44580  -0.44494  -0.44417  -0.44404
 Alpha  occ. eigenvalues --   -0.44145  -0.43944  -0.43767  -0.43493  -0.43318
 Alpha  occ. eigenvalues --   -0.43285  -0.43266  -0.42996  -0.42841  -0.42783
 Alpha  occ. eigenvalues --   -0.42689  -0.42682  -0.42313  -0.42111  -0.41944
 Alpha  occ. eigenvalues --   -0.41742  -0.41667  -0.41621  -0.41561  -0.41256
 Alpha  occ. eigenvalues --   -0.41185  -0.40977  -0.40971  -0.40818  -0.40766
 Alpha  occ. eigenvalues --   -0.40374  -0.40168  -0.40077  -0.39816  -0.39784
 Alpha  occ. eigenvalues --   -0.39686  -0.39558  -0.39467  -0.39286  -0.39069
 Alpha  occ. eigenvalues --   -0.38941  -0.38789  -0.38502  -0.38448  -0.38363
 Alpha  occ. eigenvalues --   -0.38167  -0.38147  -0.37817  -0.37781  -0.37734
 Alpha  occ. eigenvalues --   -0.37494  -0.37258  -0.37138  -0.36827  -0.36809
 Alpha  occ. eigenvalues --   -0.36587  -0.36438  -0.36302  -0.36191  -0.36065
 Alpha  occ. eigenvalues --   -0.35934  -0.35723  -0.35635  -0.35540  -0.35408
 Alpha  occ. eigenvalues --   -0.35177  -0.35108  -0.34855  -0.34505  -0.34023
 Alpha  occ. eigenvalues --   -0.33719  -0.33609  -0.33289  -0.32813  -0.32722
 Alpha  occ. eigenvalues --   -0.32552  -0.32294  -0.32169  -0.31493  -0.31187
 Alpha  occ. eigenvalues --   -0.30683  -0.29854  -0.29795  -0.29686  -0.29408
 Alpha  occ. eigenvalues --   -0.29198  -0.28629  -0.28626  -0.27178  -0.27111
 Alpha  occ. eigenvalues --   -0.26076  -0.26038  -0.25735  -0.25606  -0.25545
 Alpha  occ. eigenvalues --   -0.25268  -0.25054  -0.24827  -0.21306  -0.20886
 Alpha  occ. eigenvalues --   -0.19093  -0.18963
 Alpha virt. eigenvalues --   -0.11721  -0.11440  -0.05806  -0.05358  -0.04275
 Alpha virt. eigenvalues --   -0.04112  -0.02418  -0.02208  -0.00571  -0.00045
 Alpha virt. eigenvalues --    0.00658   0.00800   0.00966   0.01188   0.01246

 Mulliken charges:
               1
     1  Mg  12.002285
     2  C    5.990357
     3  C    6.011064
     4  C    6.015528
     5  C    5.993036
     6  N    6.994636
     7  C    6.024373
     8  C    5.988299
     9  C    6.008597
    10  C    5.974886
    11  C    6.000980
    12  C    5.998950
    13  C    5.996176
    14  H    1.008436
    15  N    7.000923
    16  C    5.965890
    17  C    5.971416
    18  C    5.987345
    19  C    5.971732
    20  C    6.001938
    21  C    5.989039
    22  O    7.970104
    23  C    6.006339
    24  N    7.001391
    25  C    5.967289
    26  C    6.013094
    27  C    5.987546
    28  C    6.031244
    29  C    6.002610
    30  C    5.994542
    31  C    6.000400
    32  N    7.000605
    33  C    6.035391
    34  C    6.026616
    35  C    6.005101
    36  C    6.024603
    37  C    5.999800
    38  C    6.016490
    39  O    8.031813
    40  C    5.999668
    41  C    6.000778
    42  O    8.008147
    43  O    7.999641
    44  C    5.998009
    45  H    0.991768
    46  H    0.993332
    47  H    1.009470
    48  H    1.002558
    49  H    1.000098
    50  H    1.002887
    51  H    1.000050
    52  H    0.987619
    53  H    1.009039
    54  H    0.997366
    55  H    0.997101
    56  H    0.997968
    57  H    0.980457
    58  H    0.986098
    59  H    0.980754
    60  H    0.986531
    61  H    0.990018
    62  H    0.992245
    63  H    0.997586
    64  H    1.003337
    65  H    0.989641
    66  H    1.001750
    67  H    1.001586
    68  H    1.000613
    69  H    1.011122
    70  H    0.995125
    71  H    1.004959
    72  H    1.000100
    73  H    1.017427
    74  H    1.017868
    75  H    1.012682
    76  H    1.010997
    77  H    1.002113
    78  H    1.006070
    79  H    1.004552
    80  Mg  11.999884
    81  C    6.000844
    82  C    6.000105
    83  C    5.998981
    84  C    6.000110
    85  N    7.000625
    86  C    5.998818
    87  C    6.000328
    88  C    5.999611
    89  C    6.000960
    90  C    5.999887
    91  C    6.000058
    92  C    6.000125
    93  H    0.999705
    94  N    6.999962
    95  C    6.000976
    96  C    6.000819
    97  C    6.000382
    98  C    6.000951
    99  C    5.999865
   100  C    6.000440
   101  O    8.001049
   102  C    5.999841
   103  N    6.999723
   104  C    6.001222
   105  C    5.999708
   106  C    6.000367
   107  C    5.999034
   108  C    5.999980
   109  C    6.000184
   110  C    6.000019
   111  N    7.000027
   112  C    5.998783
   113  C    5.998933
   114  C    5.999903
   115  C    5.999104
   116  C    5.999997
   117  C    5.999550
   118  O    7.998940
   119  C    5.999906
   120  C    5.999789
   121  O    8.000040
   122  O    7.999908
   123  C    6.000047
   124  H    1.000514
   125  H    1.000058
   126  H    0.999529
   127  H    1.000111
   128  H    0.999991
   129  H    1.000079
   130  H    1.000129
   131  H    1.000472
   132  H    0.999692
   133  H    1.000121
   134  H    1.000034
   135  H    1.000088
   136  H    1.000513
   137  H    1.000750
   138  H    1.000479
   139  H    1.000365
   140  H    1.000477
   141  H    1.000145
   142  H    0.999890
   143  H    0.999915
   144  H    0.999887
   145  H    0.999888
   146  H    1.000318
   147  H    0.999981
   148  H    0.999555
   149  H    0.999912
   150  H    1.000052
   151  H    0.999739
   152  H    0.999457
   153  H    0.999421
   154  H    0.999482
   155  H    0.999778
   156  H    0.999929
   157  H    0.999798
   158  H    0.999964
 Sum of Mulliken charges = 624.00000

 Dipole moment (field-independent basis, Debye):
    X=              9.3725    Y=              2.9631    Z=             -3.8973  Tot=             10.5741
 Quadrupole moment (field-independent basis, Debye-Ang):
   XX=            355.2022   YY=             -1.6143   ZZ=              0.0313
   XY=             54.7918   XZ=            -87.0582   YZ=              3.6058

 Normal termination of Gaussian 16 at Fri Oct 15 14:18:28 2021.
