 Gaussian 16, Revision A.03,
 Gaussian 16:  ES64L-G16RevA.03 25-Dec-2016

 --------------------------------------------------------
 #p PBE1PBE/Def2SVP td=(nstates=5) density=(transition=1)
 --------------------------------------------------------

 --------------------------------
 TDDFT excited states in gaussian
 --------------------------------
 Symbolic Z-matrix:
 Charge =  0 Multiplicity = 1

                         Standard orientation:
 ---------------------------------------------------------------------
 Center     Atomic      Atomic             Coordinates (Angstroms)
 Number     Number       Type             X           Y           Z
 ---------------------------------------------------------------------
      1         12           0       -4.373841   -0.551241    0.847143
      2          6           0       -5.615805    2.179156   -0.852391
      3          6           0       -2.240687    1.753186    2.569689
      4          6           0       -2.870696   -3.066399    2.285094
      5          6           0       -6.246053   -2.689954   -1.124134
      6          7           0       -3.851837    1.742365    0.670054
      7          6           0       -4.656495    2.608406    0.077266
      8          6           0       -4.440720    4.042818    0.637175
      9          6           0       -3.012422    3.871905    1.263035
     10          6           0       -2.976222    2.361789    1.547390
     11          6           0       -1.871526    4.323463    0.283400
     12          6           0       -5.563730    4.271337    1.673243
     13          6           0       -5.665503    5.679963    2.273946
     14          1           0       -4.557550    6.688318    2.044891
     15          7           0       -2.885727   -0.729012    2.287919
     16          6           0       -2.163472    0.358680    2.888931
     17          6           0       -1.384090   -0.228640    3.970167
     18          6           0       -1.653143   -1.633016    3.960731
     19          6           0       -2.482628   -1.891543    2.784658
     20          6           0       -0.479897    0.584353    4.969997
     21          6           0       -1.182334   -2.690490    5.013174
     22          8           0       -1.399551   -3.848882    4.784772
     23          6           0       -0.449798   -2.264447    6.243878
     24          7           0       -4.606739   -2.613330    0.672843
     25          6           0       -3.863149   -3.489448    1.385405
     26          6           0       -4.141556   -4.948701    1.026847
     27          6           0       -5.320919   -4.813378    0.035973
     28          6           0       -5.400238   -3.244490   -0.157235
     29          6           0       -2.924954   -5.747498    0.430393
     30          6           0       -6.604012   -5.523996    0.383899
     31          6           0       -7.219378   -5.425714    1.800668
     32          7           0       -5.667576   -0.391263   -0.693219
     33          6           0       -6.369108   -1.325036   -1.400759
     34          6           0       -7.259727   -0.607001   -2.287931
     35          6           0       -7.051532    0.804723   -2.115844
     36          6           0       -6.038413    0.859226   -1.119789
     37          6           0       -8.219140   -1.268990   -3.227043
     38          6           0       -7.382583    2.117868   -2.557158
     39          8           0       -8.162701    2.550187   -3.433425
     40          6           0       -6.213931    3.033197   -1.896469
     41          6           0       -6.871518    4.356830   -1.502554
     42          8           0       -7.827423    4.471553   -0.835209
     43          8           0       -6.174476    5.366816   -2.102289
     44          6           0       -6.367792    6.714139   -1.606927
     45          1           0       -1.548493    2.452961    3.041628
     46          1           0       -2.367340   -3.943586    2.696998
     47          1           0       -6.849341   -3.309498   -1.789838
     48          1           0       -4.380863    4.790141   -0.153907
     49          1           0       -3.067725    4.459088    2.180008
     50          1           0       -1.482773    5.289526    0.603051
     51          1           0       -2.294882    4.371949   -0.720038
     52          1           0       -1.004990    3.662215    0.290477
     53          1           0       -5.355775    3.621620    2.522980
     54          1           0       -6.527814    3.906893    1.319853
     55          1           0       -6.047221    5.684222    3.295158
     56          1           0       -6.554935    6.103224    1.806812
     57          1           0        0.525514    0.170131    5.050922
     58          1           0       -1.022749    0.589250    5.915053
     59          1           0       -0.451915    1.631167    4.665112
     60          1           0       -0.722126   -3.051608    6.947306
     61          1           0       -0.852141   -1.349601    6.677434
     62          1           0        0.589897   -1.942201    6.187161
     63          1           0       -4.452398   -5.412242    1.962853
     64          1           0       -5.063947   -5.125158   -0.976355
     65          1           0       -3.356040   -6.427778   -0.303621
     66          1           0       -2.551348   -6.282724    1.303597
     67          1           0       -2.150654   -5.061971    0.086133
     68          1           0       -6.248802   -6.553886    0.395179
     69          1           0       -7.446946   -5.408554   -0.298273
     70          1           0       -7.321255   -6.340331    2.383286
     71          1           0       -8.267237   -5.128615    1.758596
     72          1           0       -6.619116   -4.744903    2.404403
     73          1           0       -8.686408   -0.458210   -3.785241
     74          1           0       -9.012040   -1.762554   -2.663477
     75          1           0       -7.798604   -2.067615   -3.837437
     76          1           0       -5.454465    3.116028   -2.674208
     77          1           0       -6.598667    7.075829   -2.609016
     78          1           0       -5.509991    7.110513   -1.063219
     79          1           0       -7.252728    6.842647   -0.983106
     80         12           0        4.256382   -0.910171   -0.950575
     81          6           0        6.624391    1.779763   -0.179738
     82          6           0        1.834606    1.601365   -1.271708
     83          6           0        2.018870   -3.256122   -1.293558
     84          6           0        6.824328   -3.175843   -0.765348
     85          7           0        4.186705    1.365372   -0.549757
     86          6           0        5.294256    2.295607   -0.368384
     87          6           0        4.858085    3.773874   -0.280637
     88          6           0        3.240525    3.580978   -0.444315
     89          6           0        3.022179    2.089404   -0.765402
     90          6           0        2.443651    4.052865    0.756362
     91          6           0        5.592377    4.627973   -1.358067
     92          6           0        5.040587    6.005486   -1.571308
     93          1           0        5.983871    7.180735   -1.700437
     94          7           0        2.169701   -0.870110   -1.225244
     95          6           0        1.344588    0.254236   -1.341951
     96          6           0       -0.031990   -0.169344   -1.591549
     97          6           0       -0.008641   -1.624000   -1.610671
     98          6           0        1.429659   -2.016406   -1.373155
     99          6           0       -1.236454    0.801044   -1.876334
    100          6           0       -1.098285   -2.623438   -1.761628
    101          8           0       -0.938674   -3.836444   -1.791467
    102          6           0       -2.479299   -2.176609   -2.009648
    103          7           0        4.401861   -2.863816   -1.109091
    104          6           0        3.332199   -3.661258   -1.123444
    105          6           0        3.705946   -5.161543   -1.165622
    106          6           0        5.192822   -5.081653   -1.442857
    107          6           0        5.540252   -3.603031   -1.015542
    108          6           0        3.378265   -5.900321    0.126803
    109          6           0        5.792249   -5.390489   -2.790348
    110          6           0        5.351702   -4.456184   -3.896926
    111          7           0        6.278222   -0.794208   -0.464298
    112          6           0        7.226704   -1.830420   -0.535710
    113          6           0        8.524532   -1.298354   -0.200443
    114          6           0        8.278769    0.097670   -0.143177
    115          6           0        6.905241    0.368438   -0.292670
    116          6           0        9.845069   -2.009868   -0.150672
    117          6           0        9.017842    1.388906    0.010415
    118          8           0       10.243070    1.630118    0.057022
    119          6           0        7.947652    2.478182    0.020205
    120          6           0        8.062704    3.313890    1.296790
    121          8           0        7.900603    2.982951    2.508434
    122          8           0        8.243371    4.607991    0.906888
    123          6           0        8.296375    5.606550    1.998642
    124          1           0        1.138347    2.387418   -1.568101
    125          1           0        1.279751   -4.058410   -1.342477
    126          1           0        7.684186   -3.841613   -0.664949
    127          1           0        5.227284    4.120038    0.684701
    128          1           0        2.919780    4.072629   -1.362761
    129          1           0        1.744879    4.822164    0.426487
    130          1           0        3.162767    4.493052    1.446253
    131          1           0        2.046608    3.292618    1.428682
    132          1           0        5.643592    3.995023   -2.244664
    133          1           0        6.634796    4.738141   -1.058940
    134          1           0        4.383225    6.400730   -0.797210
    135          1           0        4.526172    6.038999   -2.531271
    136          1           0       -1.555780    0.552843   -2.888937
    137          1           0       -0.961527    1.855243   -1.845517
    138          1           0       -1.996657    0.565351   -1.131484
    139          1           0       -2.790639   -1.338720   -1.385519
    140          1           0       -3.077109   -3.054593   -1.767507
    141          1           0       -2.439423   -1.764376   -3.017442
    142          1           0        3.126941   -5.610192   -1.972899
    143          1           0        5.763363   -5.770271   -0.819014
    144          1           0        2.977653   -6.880559   -0.128954
    145          1           0        2.631432   -5.363106    0.710417
    146          1           0        4.295062   -6.137809    0.667617
    147          1           0        5.601378   -6.441830   -3.007390
    148          1           0        6.867066   -5.209952   -2.789784
    149          1           0        5.072678   -4.996411   -4.800838
    150          1           0        6.147571   -3.787552   -4.225750
    151          1           0        4.488084   -3.839577   -3.647487
    152          1           0       10.570363   -1.477049   -0.765126
    153          1           0        9.926423   -3.055282   -0.448214
    154          1           0       10.179878   -1.979037    0.886386
    155          1           0        8.162696    3.170386   -0.794366
    156          1           0        7.334057    6.111083    2.082665
    157          1           0        9.139015    6.197629    1.639885
    158          1           0        8.638070    5.176330    2.940928
 ---------------------------------------------------------------------

 SCF Done:  E(RPBE1PBE) =  -4067.38551607     A.U. after   16 cycles

 Excitation energies and oscillator strengths:

 Excited State   1:      Singlet-A      1.5217 eV  814.76 nm  f=0.0001  <S**2>=0.000
     312 -> 313        0.70495
 This state for optimization and/or second-order correction.
 Total Energy, E(TD-HF/TD-DFT) =  -4067.32959381
 Copying the excited state density for this state as the 1-particle RhoCI density.

 Excited State   2:      Singlet-A      1.7837 eV  695.08 nm  f=0.0588  <S**2>=0.000
     311 -> 313        0.29408
     311 -> 314        0.63850

 Excited State   3:      Singlet-A      1.8101 eV  684.97 nm  f=0.3908  <S**2>=0.000
     309 -> 316        0.14642
     311 -> 313        0.63010
     311 -> 314       -0.29377
     311 <- 313       -0.10382

 Excited State   4:      Singlet-A      1.8765 eV  660.72 nm  f=0.3251  <S**2>=0.000
     310 -> 315       -0.18540
     312 -> 314        0.68422

 Excited State   5:      Singlet-A      2.0819 eV  595.54 nm  f=0.0007  <S**2>=0.000
     310 -> 313        0.70548

 The electronic state is 1-A.
 Alpha  occ. eigenvalues --  -46.91988 -46.91254 -19.26676 -19.25352 -19.20702
 Alpha  occ. eigenvalues --  -19.20173 -19.19459 -19.19440 -19.19120 -19.18999
 Alpha  occ. eigenvalues --  -14.42204 -14.41739 -14.41587 -14.41423 -14.39599
 Alpha  occ. eigenvalues --  -14.39286 -14.39251 -14.38768 -10.37253 -10.36179
 Alpha  occ. eigenvalues --  -10.32549 -10.32431 -10.32089 -10.31855 -10.30025
 Alpha  occ. eigenvalues --  -10.29384 -10.29182 -10.28986 -10.28862 -10.28739
 Alpha  occ. eigenvalues --  -10.28720 -10.28647 -10.28622 -10.28501 -10.28441
 Alpha  occ. eigenvalues --  -10.28429 -10.28226 -10.27904 -10.27469 -10.27393
 Alpha  occ. eigenvalues --  -10.27239 -10.27020 -10.26914 -10.26911 -10.26796
 Alpha  occ. eigenvalues --  -10.26648 -10.26630 -10.26591 -10.26461 -10.26448
 Alpha  occ. eigenvalues --  -10.26410 -10.26289 -10.26120 -10.25753 -10.25611
 Alpha  occ. eigenvalues --  -10.25587 -10.25576 -10.25557 -10.25504 -10.25341
 Alpha  occ. eigenvalues --  -10.25309 -10.25227 -10.25201 -10.25189 -10.24907
 Alpha  occ. eigenvalues --  -10.24783 -10.24664 -10.24627 -10.24509 -10.24482
 Alpha  occ. eigenvalues --  -10.24424 -10.24080 -10.24009 -10.23647 -10.23612
 Alpha  occ. eigenvalues --  -10.23567 -10.23417 -10.23354 -10.23349 -10.23083
 Alpha  occ. eigenvalues --  -10.23053 -10.22846 -10.22812 -10.22785 -10.22642
 Alpha  occ. eigenvalues --  -10.22040  -3.14217  -3.13570  -1.87070  -1.86603
 Alpha  occ. eigenvalues --   -1.86426  -1.86417  -1.85957  -1.85795  -1.12659
 Alpha  occ. eigenvalues --   -1.11035  -1.06408  -1.05233  -1.04928  -1.02942
 Alpha  occ. eigenvalues --   -1.02798  -1.00820  -1.00033  -0.99739  -0.99026
 Alpha  occ. eigenvalues --   -0.97989  -0.97795  -0.97063  -0.96802  -0.95281
 Alpha  occ. eigenvalues --   -0.87637  -0.86876  -0.84058  -0.83537  -0.83208
 Alpha  occ. eigenvalues --   -0.83206  -0.83183  -0.83121  -0.81904  -0.81743
 Alpha  occ. eigenvalues --   -0.81104  -0.80931  -0.80419  -0.80144  -0.79172
 Alpha  occ. eigenvalues --   -0.78659  -0.78489  -0.78012  -0.77360  -0.76884
 Alpha  occ. eigenvalues --   -0.76379  -0.76107  -0.75944  -0.75939  -0.74845
 Alpha  occ. eigenvalues --   -0.74513  -0.72639  -0.72503  -0.71694  -0.71691
 Alpha  occ. eigenvalues --   -0.71458  -0.71339  -0.70512  -0.70457  -0.69874
 Alpha  occ. eigenvalues --   -0.69776  -0.67379  -0.67309  -0.66652  -0.66472
 Alpha  occ. eigenvalues --   -0.64672  -0.64554  -0.63950  -0.63577  -0.62825
 Alpha  occ. eigenvalues --   -0.62175  -0.61734  -0.60883  -0.59953  -0.59694
 Alpha  occ. eigenvalues --   -0.59520  -0.59335  -0.59052  -0.58902  -0.58822
 Alpha  occ. eigenvalues --   -0.58484  -0.57153  -0.56700  -0.55202  -0.54744
 Alpha  occ. eigenvalues --   -0.54403  -0.54074  -0.53882  -0.53794  -0.53638
 Alpha  occ. eigenvalues --   -0.53067  -0.52927  -0.52550  -0.52413  -0.52076
 Alpha  occ. eigenvalues --   -0.50915  -0.50889  -0.50871  -0.50592  -0.50478
 Alpha  occ. eigenvalues --   -0.50160  -0.49932  -0.49865  -0.49508  -0.49096
 Alpha  occ. eigenvalues --   -0.48980  -0.48517  -0.48475  -0.47977  -0.47885
 Alpha  occ. eigenvalues --   -0.47607  -0.47478  -0.47313  -0.47158  -0.46967
 Alpha  occ. eigenvalues --   -0.46801  -0.46674  -0.46493  -0.45951  -0.45610
 Alpha  occ. eigenvalues --   -0.45566  -0.45518  -0.45279  -0.45097  -0.44898
 Alpha  occ. eigenvalues --   -0.44843  -0.44621  -0.44540  -0.44335  -0.44231
 Alpha  occ. eigenvalues --   -0.44185  -0.44050  -0.43774  -0.43638  -0.43579
 Alpha  occ. eigenvalues --   -0.43541  -0.43338  -0.43135  -0.43047  -0.42959
 Alpha  occ. eigenvalues --   -0.42922  -0.42859  -0.42486  -0.42330  -0.42220
 Alpha  occ. eigenvalues --   -0.41949  -0.41719  -0.41694  -0.41608  -0.41521
 Alpha  occ. eigenvalues --   -0.41366  -0.40979  -0.40887  -0.40781  -0.40654
 Alpha  occ. eigenvalues --   -0.40635  -0.40462  -0.40280  -0.40176  -0.39978
 Alpha  occ. eigenvalues --   -0.39785  -0.39535  -0.39367  -0.39281  -0.39176
 Alpha  occ. eigenvalues --   -0.39105  -0.38932  -0.38449  -0.38381  -0.38261
 Alpha  occ. eigenvalues --   -0.38067  -0.37958  -0.37735  -0.37625  -0.37562
 Alpha  occ. eigenvalues --   -0.37521  -0.37343  -0.37181  -0.37140  -0.36946
 Alpha  occ. eigenvalues --   -0.36903  -0.36781  -0.36661  -0.36588  -0.36476
 Alpha  occ. eigenvalues --   -0.36260  -0.35844  -0.35567  -0.35485  -0.35410
 Alpha  occ. eigenvalues --   -0.35006  -0.34779  -0.34390  -0.34219  -0.34083
 Alpha  occ. eigenvalues --   -0.33927  -0.33401  -0.33128  -0.32805  -0.32443
 Alpha  occ. eigenvalues --   -0.32376  -0.32280  -0.31966  -0.31702  -0.31617
 Alpha  occ. eigenvalues --   -0.31344  -0.31111  -0.30414  -0.29639  -0.29342
 Alpha  occ. eigenvalues --   -0.29256  -0.29094  -0.28722  -0.27177  -0.27152
 Alpha  occ. eigenvalues --   -0.26205  -0.26104  -0.25896  -0.25835  -0.25505
 Alpha  occ. eigenvalues --   -0.25485  -0.25187  -0.25106  -0.21258  -0.21026
 Alpha  occ. eigenvalues --   -0.19190  -0.18966
 Alpha virt. eigenvalues --   -0.11784  -0.11198  -0.05593  -0.05348  -0.04264
 Alpha virt. eigenvalues --   -0.04006  -0.02348  -0.02023  -0.00475  -0.00046
 Alpha virt. eigenvalues --    0.00053   0.00962   0.01153   0.01324   0.01528

 Mulliken charges:
               1
     1  Mg  11.999780
     2  C    5.999317
     3  C    6.000483
     4  C    5.999951
     5  C    6.000109
     6  N    7.000091
     7  C    6.000898
     8  C    5.999934
     9  C    6.000456
    10  C    5.998561
    11  C    5.999475
    12  C    5.999736
    13  C    6.000090
    14  H    1.000071
    15  N    7.000129
    16  C    5.999103
    17  C    5.999276
    18  C    5.999442
    19  C    5.999324
    20  C    6.000015
    21  C    5.999530
    22  O    7.999293
    23  C    6.000153
    24  N    7.000248
    25  C    5.998986
    26  C    6.000331
    27  C    6.000086
    28  C    5.999977
    29  C    5.998671
    30  C    5.999825
    31  C    5.999979
    32  N    6.999955
    33  C    6.000685
    34  C    6.000633
    35  C    5.999732
    36  C    6.001162
    37  C    5.999911
    38  C    6.000236
    39  O    8.000394
    40  C    6.000033
    41  C    6.000063
    42  O    8.000057
    43  O    8.000023
    44  C    5.999995
    45  H    0.999532
    46  H    0.999650
    47  H    1.000096
    48  H    1.000058
    49  H    0.999831
    50  H    0.999912
    51  H    0.999704
    52  H    1.000841
    53  H    1.000407
    54  H    0.999873
    55  H    1.000072
    56  H    0.999909
    57  H    0.999403
    58  H    0.999562
    59  H    0.999482
    60  H    0.999565
    61  H    0.999836
    62  H    0.999610
    63  H    0.999646
    64  H    0.999909
    65  H    0.999749
    66  H    1.000172
    67  H    1.002068
    68  H    1.000134
    69  H    0.999804
    70  H    0.999994
    71  H    0.999846
    72  H    1.000268
    73  H    1.000202
    74  H    1.000408
    75  H    1.000385
    76  H    1.000116
    77  H    1.000007
    78  H    1.000098
    79  H    1.000040
    80  Mg  12.000294
    81  C    5.999712
    82  C    6.000219
    83  C    6.000897
    84  C    6.000361
    85  N    6.999784
    86  C    6.000592
    87  C    5.999875
    88  C    6.000102
    89  C    5.999728
    90  C    5.999957
    91  C    5.999954
    92  C    5.999984
    93  H    1.000042
    94  N    6.999986
    95  C    5.999723
    96  C    6.000213
    97  C    6.000958
    98  C    5.999367
    99  C    5.999842
   100  C    5.999177
   101  O    7.998827
   102  C    6.000245
   103  N    7.000397
   104  C    5.999534
   105  C    6.000072
   106  C    5.999972
   107  C    6.000155
   108  C    5.999926
   109  C    5.999907
   110  C    5.999908
   111  N    6.999940
   112  C    6.000329
   113  C    6.000481
   114  C    6.000015
   115  C    6.000457
   116  C    5.999884
   117  C    6.000356
   118  O    8.000466
   119  C    5.999935
   120  C    6.000047
   121  O    8.000144
   122  O    8.000013
   123  C    5.999975
   124  H    0.999881
   125  H    1.000250
   126  H    1.000294
   127  H    1.000055
   128  H    0.999985
   129  H    1.000031
   130  H    0.999935
   131  H    1.000253
   132  H    1.000010
   133  H    0.999928
   134  H    1.000099
   135  H    1.000064
   136  H    0.999307
   137  H    0.999758
   138  H    1.000343
   139  H    0.999960
   140  H    0.999833
   141  H    0.999707
   142  H    1.000111
   143  H    1.000106
   144  H    1.000097
   145  H    1.000297
   146  H    0.999944
   147  H    1.000218
   148  H    0.999975
   149  H    1.000155
   150  H    0.999966
   151  H    1.000113
   152  H    1.000253
   153  H    1.000260
   154  H    1.000318
   155  H    1.000137
   156  H    1.000113
   157  H    1.000045
   158  H    1.000058
 Sum of Mulliken charges = 624.00000

 Dipole moment (field-independent basis, Debye):
    X=              0.1369    Y=              0.0340    Z=             -0.1775  Tot=              0.2267
 Quadrupole moment (field-independent basis, Debye-Ang):
   XX=              2.4485   YY=              0.0888   ZZ=             -0.5932
   XY=             -0.3767   XZ=              0.4398   YZ=              0.2135

 Normal termination of Gaussian 16 at Thu Oct 14 06:48:45 2021.
