 Gaussian 16, Revision A.03,
 Gaussian 16:  ES64L-G16RevA.03 25-Dec-2016

 --------------------------------------------------------
 #p PBE1PBE/Def2SVP td=(nstates=5) density=(transition=1)
 --------------------------------------------------------

 --------------------------------
 TDDFT excited states in gaussian
 --------------------------------
 Symbolic Z-matrix:
 Charge =  0 Multiplicity = 1

                         Standard orientation:
 ---------------------------------------------------------------------
 Center     Atomic      Atomic             Coordinates (Angstroms)
 Number     Number       Type             X           Y           Z
 ---------------------------------------------------------------------
      1         12           0      -27.319302   -0.551634   -0.255645
      2          6           0      -25.870948    2.434009   -1.185290
      3          6           0      -28.497577    1.044046    2.532279
      4          6           0      -28.494170   -3.533524    0.808509
      5          6           0      -25.594541   -2.183016   -2.795904
      6          7           0      -27.030147    1.535844    0.592734
      7          6           0      -26.606836    2.574654   -0.018153
      8          6           0      -26.792513    3.986457    0.743895
      9          6           0      -27.387375    3.427690    2.096497
     10          6           0      -27.599386    1.869224    1.792349
     11          6           0      -26.409352    3.551912    3.379123
     12          6           0      -27.732874    5.039491    0.012358
     13          6           0      -27.414356    6.564123    0.208980
     14          1           0      -26.414117    6.910063    1.270334
     15          7           0      -28.388781   -1.142849    1.346658
     16          6           0      -28.890084   -0.301817    2.416487
     17          6           0      -29.687795   -1.147192    3.298691
     18          6           0      -29.603901   -2.497167    2.875628
     19          6           0      -28.843817   -2.434672    1.606776
     20          6           0      -30.416966   -0.471106    4.403436
     21          6           0      -30.238363   -3.785685    3.449601
     22          8           0      -30.022205   -4.898435    3.071075
     23          6           0      -31.079269   -3.582150    4.726128
     24          7           0      -27.028339   -2.630590   -0.798479
     25          6           0      -27.587229   -3.659233   -0.243672
     26          6           0      -26.999890   -4.994464   -0.782583
     27          6           0      -26.160944   -4.561287   -2.008696
     28          6           0      -26.260271   -3.021272   -1.902634
     29          6           0      -26.186894   -5.723327    0.308422
     30          6           0      -26.690305   -5.173549   -3.341769
     31          6           0      -26.442964   -6.681775   -3.506860
     32          7           0      -25.980902   -0.021278   -1.733513
     33          6           0      -25.450687   -0.791390   -2.753337
     34          6           0      -24.699012    0.103084   -3.593768
     35          6           0      -24.767607    1.413123   -3.031979
     36          6           0      -25.614786    1.226652   -1.905786
     37          6           0      -23.963303   -0.284946   -4.740771
     38          6           0      -24.441202    2.798161   -3.154268
     39          8           0      -23.674719    3.355444   -3.995409
     40          6           0      -25.062351    3.481416   -1.874749
     41          6           0      -23.971903    4.073578   -1.129730
     42          8           0      -23.239600    3.454493   -0.358227
     43          8           0      -23.837343    5.365854   -1.569547
     44          6           0      -22.600818    6.016560   -1.087150
     45          1           0      -28.865094    1.519536    3.443530
     46          1           0      -28.927337   -4.456934    1.200291
     47          1           0      -25.131897   -2.731998   -3.619287
     48          1           0      -25.768016    4.326260    0.897808
     49          1           0      -28.303439    3.960504    2.350745
     50          1           0      -25.390457    3.680554    3.012773
     51          1           0      -26.474733    2.644564    3.979379
     52          1           0      -26.619065    4.369028    4.070142
     53          1           0      -28.713766    4.847700    0.446478
     54          1           0      -27.997451    4.815890   -1.021705
     55          1           0      -28.293737    7.173573    0.416859
     56          1           0      -26.945125    6.946860   -0.697398
     57          1           0      -29.768138   -0.342988    5.270344
     58          1           0      -31.390762   -0.916734    4.606997
     59          1           0      -30.684152    0.521243    4.040953
     60          1           0      -32.053766   -3.121835    4.560173
     61          1           0      -30.414055   -2.957085    5.320993
     62          1           0      -31.248013   -4.472651    5.330897
     63          1           0      -27.894851   -5.534469   -1.090756
     64          1           0      -25.115593   -4.823812   -1.846317
     65          1           0      -25.784373   -5.091536    1.100506
     66          1           0      -25.269383   -6.231674    0.010158
     67          1           0      -26.874953   -6.450306    0.739809
     68          1           0      -26.173263   -4.698204   -4.174174
     69          1           0      -27.755956   -4.966045   -3.444612
     70          1           0      -26.013297   -7.048058   -2.574473
     71          1           0      -25.601768   -6.826850   -4.184848
     72          1           0      -27.250991   -7.312244   -3.877161
     73          1           0      -24.628541   -0.965449   -5.272394
     74          1           0      -23.039150   -0.833576   -4.559720
     75          1           0      -23.648846    0.615103   -5.270103
     76          1           0      -25.675750    4.276512   -2.299432
     77          1           0      -21.776009    5.484882   -1.562442
     78          1           0      -22.572368    6.082113    0.000001
     79          1           0      -22.606309    7.038825   -1.465685
     80         12           0       27.211981   -0.668786    0.073167
     81          6           0       25.453027    2.243931    1.119225
     82          6           0       29.115654    1.323338   -1.983544
     83          6           0       28.687986   -3.485426   -0.825069
     84          6           0       24.832593   -2.676027    1.870058
     85          7           0       27.244182    1.596994   -0.456036
     86          6           0       26.481284    2.539617    0.208616
     87          6           0       26.944204    3.934799   -0.334741
     88          6           0       28.130542    3.636174   -1.397951
     89          6           0       28.153665    2.108460   -1.284616
     90          6           0       27.937926    4.220432   -2.812880
     91          6           0       27.269104    5.054630    0.738203
     92          6           0       26.463499    6.316242    0.626022
     93          1           0       25.883005    6.824231   -0.667336
     94          7           0       28.852006   -1.030437   -1.188583
     95          6           0       29.470144   -0.078761   -1.936923
     96          6           0       30.618167   -0.722411   -2.521995
     97          6           0       30.463174   -2.106738   -2.293439
     98          6           0       29.270046   -2.314969   -1.410022
     99          6           0       31.611549    0.094188   -3.365690
    100          6           0       31.246980   -3.220079   -2.919776
    101          8           0       30.943286   -4.422230   -2.733092
    102          6           0       32.373889   -2.894812   -3.828467
    103          7           0       26.721710   -2.802039    0.456598
    104          6           0       27.526342   -3.716499    0.039506
    105          6           0       27.214089   -5.237737    0.503728
    106          6           0       25.963205   -4.954157    1.349320
    107          6           0       25.813885   -3.456207    1.243352
    108          6           0       26.980494   -6.138182   -0.764251
    109          6           0       25.994088   -5.432988    2.843323
    110          6           0       26.902023   -4.633343    3.807661
    111          7           0       25.484455   -0.318471    1.109473
    112          6           0       24.633168   -1.250336    1.748656
    113          6           0       23.608193   -0.493477    2.480309
    114          6           0       23.898424    0.875558    2.267304
    115          6           0       25.081974    0.934459    1.456468
    116          6           0       22.471429   -1.114752    3.345982
    117          6           0       23.463723    2.127394    2.599682
    118          8           0       22.505712    2.517528    3.235449
    119          6           0       24.460652    3.120419    1.939597
    120          6           0       23.708252    4.061866    1.142918
    121          8           0       23.390462    3.890423   -0.039364
    122          8           0       23.196189    5.072287    1.965529
    123          6           0       22.249051    5.991128    1.286747
    124          1           0       29.604698    1.788864   -2.842229
    125          1           0       29.081135   -4.407527   -1.258409
    126          1           0       24.085985   -3.237720    2.435245
    127          1           0       25.992366    4.256034   -0.755744
    128          1           0       29.041238    4.122930   -1.051791
    129          1           0       28.786531    4.847353   -3.089611
    130          1           0       27.020797    4.781286   -2.992130
    131          1           0       27.903933    3.339799   -3.454313
    132          1           0       28.328918    5.307795    0.703758
    133          1           0       27.007698    4.612891    1.699813
    134          1           0       27.167537    7.139735    0.750750
    135          1           0       25.683797    6.281204    1.386079
    136          1           0       31.515018    1.165964   -3.190740
    137          1           0       31.453336   -0.115141   -4.422858
    138          1           0       32.591433   -0.255471   -3.042219
    139          1           0       33.073717   -2.284948   -3.257113
    140          1           0       32.041912   -2.291014   -4.673920
    141          1           0       32.804698   -3.803517   -4.246965
    142          1           0       28.018643   -5.637325    1.121572
    143          1           0       25.077912   -5.301865    0.816422
    144          1           0       26.572599   -5.503434   -1.550852
    145          1           0       26.221226   -6.880805   -0.516522
    146          1           0       27.836898   -6.670216   -1.179313
    147          1           0       26.149186   -6.510739    2.882062
    148          1           0       24.974411   -5.375878    3.222951
    149          1           0       27.808378   -4.201685    3.384372
    150          1           0       27.107163   -5.260403    4.676048
    151          1           0       26.267711   -3.833117    4.188640
    152          1           0       22.396158   -0.669652    4.338165
    153          1           0       22.543757   -2.197713    3.439767
    154          1           0       21.510477   -0.755721    2.976656
    155          1           0       24.892338    3.606793    2.813730
    156          1           0       21.318658    5.475734    1.049706
    157          1           0       22.603992    6.382085    0.333880
    158          1           0       22.198729    6.888266    1.904004
 ---------------------------------------------------------------------

 SCF Done:  E(RPBE1PBE) =  -4067.38983286     A.U. after   16 cycles

 Excitation energies and oscillator strengths:

 Excited State   1:      Singlet-A      1.8677 eV  663.84 nm  f=0.3657  <S**2>=0.000
     309 -> 315        0.18707
     311 -> 313        0.68778
 This state for optimization and/or second-order correction.
 Total Energy, E(TD-HF/TD-DFT) =  -4067.32119666
 Copying the excited state density for this state as the 1-particle RhoCI density.

 Excited State   2:      Singlet-A      1.9095 eV  649.29 nm  f=0.3707  <S**2>=0.000
     310 -> 316       -0.19442
     312 -> 314        0.68532

 Excited State   3:      Singlet-A      2.0471 eV  605.64 nm  f=0.0000  <S**2>=0.000
     312 -> 313        0.70711

 Excited State   4:      Singlet-A      2.0878 eV  593.85 nm  f=0.0000  <S**2>=0.000
     311 -> 314        0.70711

 Excited State   5:      Singlet-A      2.2069 eV  561.81 nm  f=0.0965  <S**2>=0.000
     309 -> 313        0.65349
     311 -> 315       -0.25856

 The electronic state is 1-A.
 Alpha  occ. eigenvalues --  -46.93188 -46.91797 -19.25441 -19.24992 -19.20175
 Alpha  occ. eigenvalues --  -19.19585 -19.19524 -19.18682 -19.18650 -19.18120
 Alpha  occ. eigenvalues --  -14.42047 -14.41584 -14.41417 -14.41060 -14.39518
 Alpha  occ. eigenvalues --  -14.39309 -14.39283 -14.38648 -10.35668 -10.35528
 Alpha  occ. eigenvalues --  -10.33229 -10.32031 -10.31872 -10.30671 -10.29440
 Alpha  occ. eigenvalues --  -10.29418 -10.29155 -10.29004 -10.28790 -10.28468
 Alpha  occ. eigenvalues --  -10.28380 -10.28214 -10.28185 -10.28159 -10.28155
 Alpha  occ. eigenvalues --  -10.28103 -10.28068 -10.28057 -10.27969 -10.26871
 Alpha  occ. eigenvalues --  -10.26820 -10.26743 -10.26740 -10.26722 -10.26676
 Alpha  occ. eigenvalues --  -10.26604 -10.26560 -10.26154 -10.26113 -10.25993
 Alpha  occ. eigenvalues --  -10.25981 -10.25961 -10.25587 -10.25492 -10.25461
 Alpha  occ. eigenvalues --  -10.25426 -10.25377 -10.25362 -10.25296 -10.25292
 Alpha  occ. eigenvalues --  -10.25276 -10.25120 -10.25000 -10.24955 -10.24922
 Alpha  occ. eigenvalues --  -10.24872 -10.24770 -10.24688 -10.24546 -10.24416
 Alpha  occ. eigenvalues --  -10.24376 -10.24218 -10.24207 -10.23746 -10.23661
 Alpha  occ. eigenvalues --  -10.23570 -10.23410 -10.23398 -10.23373 -10.23325
 Alpha  occ. eigenvalues --  -10.23108 -10.22962 -10.22829 -10.22385 -10.22196
 Alpha  occ. eigenvalues --  -10.22001  -3.15111  -3.13987  -1.87965  -1.87519
 Alpha  occ. eigenvalues --   -1.87290  -1.86821  -1.86366  -1.86214  -1.10263
 Alpha  occ. eigenvalues --   -1.09152  -1.07095  -1.04304  -1.02853  -1.02018
 Alpha  occ. eigenvalues --   -1.01578  -1.01188  -1.00728  -0.99995  -0.98965
 Alpha  occ. eigenvalues --   -0.98255  -0.98174  -0.97583  -0.96587  -0.95320
 Alpha  occ. eigenvalues --   -0.86933  -0.86857  -0.84052  -0.83592  -0.82576
 Alpha  occ. eigenvalues --   -0.82371  -0.82033  -0.82021  -0.81808  -0.81388
 Alpha  occ. eigenvalues --   -0.81295  -0.81099  -0.81085  -0.79922  -0.78546
 Alpha  occ. eigenvalues --   -0.78188  -0.77710  -0.77685  -0.76830  -0.76558
 Alpha  occ. eigenvalues --   -0.76204  -0.75801  -0.75348  -0.75024  -0.74569
 Alpha  occ. eigenvalues --   -0.74384  -0.72745  -0.72428  -0.71875  -0.71694
 Alpha  occ. eigenvalues --   -0.70773  -0.70656  -0.70089  -0.70029  -0.69309
 Alpha  occ. eigenvalues --   -0.69160  -0.67064  -0.66683  -0.65981  -0.65886
 Alpha  occ. eigenvalues --   -0.64779  -0.63733  -0.63531  -0.63125  -0.62654
 Alpha  occ. eigenvalues --   -0.62255  -0.61330  -0.61212  -0.60176  -0.59787
 Alpha  occ. eigenvalues --   -0.59783  -0.59419  -0.59284  -0.59109  -0.58773
 Alpha  occ. eigenvalues --   -0.58620  -0.56127  -0.56082  -0.54586  -0.54462
 Alpha  occ. eigenvalues --   -0.54112  -0.53956  -0.53672  -0.53254  -0.52883
 Alpha  occ. eigenvalues --   -0.52701  -0.52445  -0.52445  -0.52137  -0.52118
 Alpha  occ. eigenvalues --   -0.50823  -0.50551  -0.50527  -0.50156  -0.49858
 Alpha  occ. eigenvalues --   -0.49754  -0.49427  -0.49086  -0.48555  -0.48157
 Alpha  occ. eigenvalues --   -0.47844  -0.47637  -0.47634  -0.47547  -0.47348
 Alpha  occ. eigenvalues --   -0.47299  -0.47193  -0.47142  -0.46736  -0.46588
 Alpha  occ. eigenvalues --   -0.46463  -0.46100  -0.45936  -0.45814  -0.45577
 Alpha  occ. eigenvalues --   -0.45497  -0.45425  -0.45272  -0.44820  -0.44796
 Alpha  occ. eigenvalues --   -0.44451  -0.44098  -0.44077  -0.43831  -0.43755
 Alpha  occ. eigenvalues --   -0.43695  -0.43563  -0.43514  -0.43338  -0.43204
 Alpha  occ. eigenvalues --   -0.43130  -0.43076  -0.42778  -0.42645  -0.42483
 Alpha  occ. eigenvalues --   -0.42454  -0.42434  -0.42176  -0.42003  -0.41642
 Alpha  occ. eigenvalues --   -0.41424  -0.41316  -0.41260  -0.41220  -0.41129
 Alpha  occ. eigenvalues --   -0.40996  -0.40883  -0.40698  -0.40595  -0.40360
 Alpha  occ. eigenvalues --   -0.40274  -0.39889  -0.39785  -0.39671  -0.39464
 Alpha  occ. eigenvalues --   -0.39175  -0.39105  -0.39053  -0.38902  -0.38645
 Alpha  occ. eigenvalues --   -0.38478  -0.38465  -0.38184  -0.38052  -0.37980
 Alpha  occ. eigenvalues --   -0.37868  -0.37761  -0.37634  -0.37566  -0.37479
 Alpha  occ. eigenvalues --   -0.37381  -0.37195  -0.37098  -0.36748  -0.36674
 Alpha  occ. eigenvalues --   -0.36594  -0.36500  -0.36460  -0.36270  -0.36183
 Alpha  occ. eigenvalues --   -0.36055  -0.36054  -0.35954  -0.35492  -0.35466
 Alpha  occ. eigenvalues --   -0.35129  -0.35018  -0.34658  -0.34653  -0.34301
 Alpha  occ. eigenvalues --   -0.34051  -0.33155  -0.32922  -0.32594  -0.31947
 Alpha  occ. eigenvalues --   -0.31924  -0.31695  -0.31487  -0.31465  -0.31378
 Alpha  occ. eigenvalues --   -0.31063  -0.30558  -0.29545  -0.29123  -0.29075
 Alpha  occ. eigenvalues --   -0.28662  -0.28564  -0.28446  -0.26943  -0.26848
 Alpha  occ. eigenvalues --   -0.26230  -0.25756  -0.25744  -0.25613  -0.25494
 Alpha  occ. eigenvalues --   -0.25369  -0.25174  -0.24939  -0.20702  -0.20595
 Alpha  occ. eigenvalues --   -0.18830  -0.18817
 Alpha virt. eigenvalues --   -0.11051  -0.10911  -0.05257  -0.05120  -0.04202
 Alpha virt. eigenvalues --   -0.04026  -0.02257  -0.02062  -0.00164  -0.00098
 Alpha virt. eigenvalues --    0.00377   0.00897   0.01488   0.01528   0.02435

 Mulliken charges:
               1
     1  Mg  11.999976
     2  C    6.000081
     3  C    5.999878
     4  C    6.000010
     5  C    6.000123
     6  N    7.000092
     7  C    5.999771
     8  C    5.999994
     9  C    5.999961
    10  C    6.000145
    11  C    6.000017
    12  C    6.000006
    13  C    6.000010
    14  H    0.999957
    15  N    7.000075
    16  C    6.000077
    17  C    6.000039
    18  C    5.999942
    19  C    6.000080
    20  C    5.999978
    21  C    6.000066
    22  O    8.000078
    23  C    6.000014
    24  N    6.999971
    25  C    6.000052
    26  C    6.000009
    27  C    6.000035
    28  C    5.999938
    29  C    5.999992
    30  C    6.000007
    31  C    5.999991
    32  N    7.000066
    33  C    5.999792
    34  C    6.000008
    35  C    6.000056
    36  C    5.999891
    37  C    6.000038
    38  C    5.999958
    39  O    7.999884
    40  C    5.999974
    41  C    5.999990
    42  O    7.999975
    43  O    7.999956
    44  C    6.000020
    45  H    1.000020
    46  H    1.000042
    47  H    0.999969
    48  H    0.999979
    49  H    1.000015
    50  H    0.999993
    51  H    0.999976
    52  H    1.000004
    53  H    1.000000
    54  H    1.000031
    55  H    1.000017
    56  H    1.000011
    57  H    1.000022
    58  H    1.000048
    59  H    1.000048
    60  H    1.000038
    61  H    0.999983
    62  H    1.000042
    63  H    1.000020
    64  H    0.999984
    65  H    0.999968
    66  H    1.000018
    67  H    0.999999
    68  H    1.000019
    69  H    1.000002
    70  H    0.999976
    71  H    0.999995
    72  H    1.000014
    73  H    0.999976
    74  H    0.999915
    75  H    0.999967
    76  H    0.999987
    77  H    0.999989
    78  H    0.999968
    79  H    0.999994
    80  Mg  11.999508
    81  C    5.990479
    82  C    6.016019
    83  C    6.000574
    84  C    5.984282
    85  N    6.997038
    86  C    6.021990
    87  C    5.993426
    88  C    6.015617
    89  C    5.966024
    90  C    5.999319
    91  C    5.998648
    92  C    5.997939
    93  H    1.004645
    94  N    7.012698
    95  C    5.960893
    96  C    5.982210
    97  C    5.984977
    98  C    5.973899
    99  C    6.001017
   100  C    5.987723
   101  O    7.971386
   102  C    6.004126
   103  N    6.990281
   104  C    5.974063
   105  C    6.006727
   106  C    5.992219
   107  C    6.038652
   108  C    6.004284
   109  C    5.995906
   110  C    5.996891
   111  N    6.998932
   112  C    6.042321
   113  C    6.026124
   114  C    6.001581
   115  C    6.025719
   116  C    5.999034
   117  C    6.014623
   118  O    8.028116
   119  C    6.000987
   120  C    6.004769
   121  O    8.008562
   122  O    7.999836
   123  C    5.997241
   124  H    0.995503
   125  H    0.993000
   126  H    1.007527
   127  H    0.997356
   128  H    0.996297
   129  H    0.998038
   130  H    0.990007
   131  H    1.003368
   132  H    1.007855
   133  H    0.994771
   134  H    1.003834
   135  H    0.995250
   136  H    0.984101
   137  H    0.983596
   138  H    0.986507
   139  H    0.992984
   140  H    0.993043
   141  H    0.986223
   142  H    0.999630
   143  H    1.001716
   144  H    1.000376
   145  H    0.989541
   146  H    1.004046
   147  H    1.008864
   148  H    0.996983
   149  H    1.010687
   150  H    1.004567
   151  H    0.992054
   152  H    1.017294
   153  H    1.017144
   154  H    1.016904
   155  H    1.007503
   156  H    1.001064
   157  H    1.006079
   158  H    1.004980
 Sum of Mulliken charges = 624.00000

 Dipole moment (field-independent basis, Debye):
    X=             -7.9979    Y=              2.1463    Z=              5.8907  Tot=             10.1624
 Quadrupole moment (field-independent basis, Debye-Ang):
   XX=           -431.0744   YY=             -0.2051   ZZ=             -0.6272
   XY=             63.4155   XZ=            159.5198   YZ=             -4.3526

 Normal termination of Gaussian 16 at Fri Oct 15 10:13:56 2021.
