 Gaussian 16, Revision A.03,
 Gaussian 16:  ES64L-G16RevA.03 25-Dec-2016

 ---------------------------------------------------
 #p PBE1PBE/Def2SVP td=(nstates=5) density=(current)
 ---------------------------------------------------

 --------------------------------
 TDDFT excited states in gaussian
 --------------------------------
 Symbolic Z-matrix:
 Charge =  0 Multiplicity = 1

                         Standard orientation:
 ---------------------------------------------------------------------
 Center     Atomic      Atomic             Coordinates (Angstroms)
 Number     Number       Type             X           Y           Z
 ---------------------------------------------------------------------
      1         12           0       -0.710141    0.000491   -0.470852
      2          6           0        2.829706    0.275597    0.019250
      3          6           0       -0.334269   -3.484879    0.008726
      4          6           0       -4.043169   -0.225420   -0.154335
      5          6           0       -0.918164    3.438078   -0.240426
      6          7           0        1.051590   -1.473350   -0.042090
      7          6           0        2.339744   -1.051252    0.133041
      8          6           0        3.176869   -2.188584    0.696553
      9          6           0        2.183799   -3.386665    0.390288
     10          6           0        0.852554   -2.806972    0.097444
     11          6           0        2.585682   -4.376555   -0.754200
     12          6           0        3.577359   -1.879599    2.174821
     13          6           0        5.064237   -2.132454    2.658595
     14          1           0        5.339259   -3.154087    3.776629
     15          7           0       -1.998416   -1.561384   -0.318463
     16          6           0       -1.678255   -2.933770   -0.145170
     17          6           0       -2.886704   -3.736521   -0.107793
     18          6           0       -3.966008   -2.762868   -0.148615
     19          6           0       -3.333271   -1.459149   -0.220010
     20          6           0       -2.844498   -5.192515    0.103074
     21          6           0       -5.451173   -3.164842   -0.141164
     22          8           0       -5.696655   -4.397425    0.008311
     23          6           0       -6.642613   -2.196700   -0.300730
     24          7           0       -2.333834    1.381810    0.041909
     25          6           0       -3.612683    1.076052   -0.064785
     26          6           0       -4.417736    2.312999    0.171196
     27          6           0       -3.380803    3.464050    0.076466
     28          6           0       -2.081783    2.719421    0.038307
     29          6           0       -5.706061    2.601863   -0.712015
     30          6           0       -3.438745    4.545523    1.274793
     31          6           0       -3.825022    6.005735    0.934173
     32          7           0        0.615165    1.547372   -0.375715
     33          6           0        0.402297    2.871350   -0.289960
     34          6           0        1.620781    3.591704   -0.224605
     35          6           0        2.599683    2.598277   -0.147708
     36          6           0        1.938875    1.344925   -0.199703
     37          6           0        1.890606    5.042711   -0.229403
     38          6           0        4.014794    2.452369    0.001415
     39          8           0        4.849647    3.316012    0.152042
     40          6           0        4.228300    0.817449    0.169804
     41          6           0        5.111794    0.318111   -0.890551
     42          8           0        5.054793    0.638292   -2.084600
     43          8           0        5.972641   -0.580069   -0.296637
     44          6           0        6.959491   -1.210029   -1.172182
     45          1           0       -0.283859   -4.566191    0.145325
     46          1           0       -5.115449   -0.233012    0.050373
     47          1           0       -0.914355    4.519277   -0.394755
     48          1           0        4.013660   -2.319592    0.009982
     49          1           0        2.133625   -3.797044    1.399522
     50          1           0        1.769272   -4.384004   -1.477781
     51          1           0        2.715775   -5.408051   -0.427543
     52          1           0        3.460178   -4.090521   -1.339414
     53          1           0        2.901733   -2.565613    2.685232
     54          1           0        3.320889   -0.885495    2.540300
     55          1           0        5.428999   -1.147783    2.950378
     56          1           0        5.677135   -2.321744    1.777855
     57          1           0       -2.241204   -5.353985    0.996728
     58          1           0       -2.301967   -5.670589   -0.712263
     59          1           0       -3.790321   -5.734850    0.111893
     60          1           0       -6.726900   -1.614619    0.617122
     61          1           0       -7.434994   -2.819173   -0.715074
     62          1           0       -6.314666   -1.548401   -1.113992
     63          1           0       -4.820551    2.232008    1.180032
     64          1           0       -3.534050    3.815309   -0.944021
     65          1           0       -6.352272    3.189606   -0.059559
     66          1           0       -6.140513    1.648024   -1.010848
     67          1           0       -5.371539    3.205208   -1.556097
     68          1           0       -2.440491    4.496731    1.709461
     69          1           0       -4.070250    4.128154    2.058970
     70          1           0       -3.134746    6.734584    1.356808
     71          1           0       -4.833390    6.192559    1.304436
     72          1           0       -3.921391    6.195355   -0.135035
     73          1           0        2.924599    5.260377   -0.495068
     74          1           0        1.672461    5.231751    0.821841
     75          1           0        1.046839    5.539325   -0.708332
     76          1           0        4.521427    0.559223    1.186768
     77          1           0        7.512498   -0.472232   -1.753952
     78          1           0        6.464420   -1.924788   -1.831195
     79          1           0        7.683199   -1.741849   -0.554467
 ---------------------------------------------------------------------

 SCF Done:  E(RPBE1PBE) =  -2033.67075311     A.U. after   15 cycles

 Excitation energies and oscillator strengths:

 Excited State   1:      Singlet-A      1.8632 eV  665.42 nm  f=0.3791  <S**2>=0.000
     155 ->158        -0.18034
     156 ->157         0.69250
     156 <-157        -0.10916
 This state for optimization and/or second-order correction.
 Total Energy, E(TD-HF/TD-DFT) =  -2033.60228027
 Copying the excited state density for this state as the 1-particle RhoCI density.

 Excited State   2:      Singlet-A      2.2661 eV  547.11 nm  f=0.1242  <S**2>=0.000
     155 ->157         0.64981
     156 ->158         0.26975

 Excited State   3:      Singlet-A      2.8659 eV  432.62 nm  f=0.0021  <S**2>=0.000
     153 ->157         0.26289
     153 ->159         0.11306
     154 ->157         0.62324
     154 ->159         0.10001

 Excited State   4:      Singlet-A      2.9687 eV  417.64 nm  f=0.0068  <S**2>=0.000
     153 ->157         0.62776
     154 ->157        -0.29174

 Excited State   5:      Singlet-A      3.0608 eV  405.07 nm  f=0.0016  <S**2>=0.000
     151 ->157        -0.46441
     151 ->159         0.12844
     152 ->157         0.50158

 The electronic state is 1-A.
 Alpha  occ. eigenvalues --  -46.92292 -19.26858 -19.20721 -19.19967 -19.18425
 Alpha  occ. eigenvalues --  -14.41389 -14.40967 -14.39604 -14.39448 -10.37028
 Alpha  occ. eigenvalues --  -10.32583 -10.32477 -10.29620 -10.28929 -10.28494
 Alpha  occ. eigenvalues --  -10.28281 -10.28116 -10.28047 -10.28033 -10.27436
 Alpha  occ. eigenvalues --  -10.26757 -10.26480 -10.26323 -10.26296 -10.25795
 Alpha  occ. eigenvalues --  -10.25605 -10.25444 -10.25424 -10.25362 -10.25193
 Alpha  occ. eigenvalues --  -10.25102 -10.25075 -10.24912 -10.24902 -10.24804
 Alpha  occ. eigenvalues --  -10.24298 -10.24158 -10.24007 -10.23900 -10.23697
 Alpha  occ. eigenvalues --  -10.23517 -10.22530 -10.22288  -3.14425  -1.87254
 Alpha  occ. eigenvalues --   -1.86787  -1.86665  -1.11242  -1.05577  -1.02906
 Alpha  occ. eigenvalues --   -1.01987  -1.00115  -0.99405  -0.98336  -0.97033
 Alpha  occ. eigenvalues --   -0.87485  -0.83672  -0.82613  -0.82416  -0.82290
 Alpha  occ. eigenvalues --   -0.81819  -0.80343  -0.78941  -0.78110  -0.76979
 Alpha  occ. eigenvalues --   -0.76213  -0.75698  -0.74793  -0.72582  -0.71958
 Alpha  occ. eigenvalues --   -0.71194  -0.70580  -0.69710  -0.67670  -0.66666
 Alpha  occ. eigenvalues --   -0.64166  -0.63842  -0.62851  -0.61218  -0.60589
 Alpha  occ. eigenvalues --   -0.60152  -0.59652  -0.59293  -0.57498  -0.54719
 Alpha  occ. eigenvalues --   -0.54556  -0.54054  -0.53471  -0.52921  -0.52223
 Alpha  occ. eigenvalues --   -0.50775  -0.50423  -0.50157  -0.49439  -0.49117
 Alpha  occ. eigenvalues --   -0.48318  -0.47970  -0.47562  -0.47099  -0.46606
 Alpha  occ. eigenvalues --   -0.46318  -0.45929  -0.45876  -0.45169  -0.44961
 Alpha  occ. eigenvalues --   -0.44580  -0.44522  -0.44227  -0.44034  -0.43482
 Alpha  occ. eigenvalues --   -0.43157  -0.42562  -0.42433  -0.42358  -0.42330
 Alpha  occ. eigenvalues --   -0.42160  -0.41755  -0.41375  -0.41137  -0.40790
 Alpha  occ. eigenvalues --   -0.40692  -0.40375  -0.40055  -0.39788  -0.39316
 Alpha  occ. eigenvalues --   -0.38571  -0.38436  -0.38354  -0.38099  -0.37924
 Alpha  occ. eigenvalues --   -0.37768  -0.37648  -0.37227  -0.36429  -0.36128
 Alpha  occ. eigenvalues --   -0.35919  -0.35703  -0.35283  -0.35183  -0.33939
 Alpha  occ. eigenvalues --   -0.33747  -0.33225  -0.32645  -0.32585  -0.31523
 Alpha  occ. eigenvalues --   -0.30865  -0.29923  -0.29276  -0.28640  -0.26996
 Alpha  occ. eigenvalues --   -0.26117  -0.25716  -0.25203  -0.24907  -0.21150
 Alpha  occ. eigenvalues --   -0.18948
 Alpha virt. eigenvalues --   -0.11354  -0.05224  -0.03930  -0.02044  -0.00554
 Alpha virt. eigenvalues --   -0.00193   0.00892   0.01829   0.02653   0.03958
 Alpha virt. eigenvalues --    0.04639   0.05017   0.05404   0.06269   0.06700

 Mulliken charges:
               1
     1  Mg   0.975091
     2  C   -0.128102
     3  C   -0.068815
     4  C   -0.096491
     5  C   -0.079826
     6  N   -0.365743
     7  C    0.026166
     8  C   -0.078655
     9  C   -0.117323
    10  C    0.085123
    11  C    0.020054
    12  C   -0.021815
    13  C   -0.121525
    14  H    0.057876
    15  N   -0.513668
    16  C    0.142816
    17  C   -0.155643
    18  C   -0.095502
    19  C    0.234391
    20  C    0.065118
    21  C    0.029068
    22  O   -0.284519
    23  C    0.002477
    24  N   -0.392409
    25  C    0.048314
    26  C   -0.117479
    27  C   -0.142110
    28  C    0.115667
    29  C    0.019317
    30  C   -0.003832
    31  C   -0.063577
    32  N   -0.476555
    33  C    0.117624
    34  C   -0.215700
    35  C   -0.070793
    36  C    0.219125
    37  C    0.107684
    38  C    0.160324
    39  O   -0.203163
    40  C   -0.096607
    41  C    0.314541
    42  O   -0.261458
    43  O   -0.374629
    44  C    0.122974
    45  H    0.003499
    46  H   -0.020416
    47  H    0.008405
    48  H    0.043925
    49  H    0.044976
    50  H    0.046701
    51  H    0.051772
    52  H    0.043252
    53  H    0.041687
    54  H    0.064536
    55  H    0.055675
    56  H    0.052308
    57  H    0.051882
    58  H    0.037960
    59  H    0.071395
    60  H    0.085930
    61  H    0.065029
    62  H    0.050571
    63  H    0.054927
    64  H    0.051684
    65  H    0.047461
    66  H    0.050685
    67  H    0.039742
    68  H    0.044488
    69  H    0.034059
    70  H    0.052581
    71  H    0.042193
    72  H    0.040322
    73  H    0.083861
    74  H    0.052856
    75  H    0.035640
    76  H    0.069216
    77  H    0.069290
    78  H    0.055289
    79  H    0.058807
 Sum of Mulliken charges =  -0.00000

 Dipole moment (field-independent basis, Debye):
    X=             -1.1761    Y=              0.8281    Z=              0.7839  Tot=              1.6382
 Quadrupole moment (field-independent basis, Debye-Ang):
   XX=           -259.9589   YY=           -254.8598   ZZ=           -259.0709
   XY=            -56.6172   XZ=              3.7746   YZ=              4.8884

 Normal termination of Gaussian 16 at Wed Oct 13 16:34:55 2021.
