 Gaussian 16, Revision A.03,
 Gaussian 16:  ES64L-G16RevA.03 25-Dec-2016

 --------------------------------------------------------
 #p PBE1PBE/Def2SVP td=(nstates=5) density=(transition=1)
 --------------------------------------------------------

 --------------------------------
 TDDFT excited states in gaussian
 --------------------------------
 Symbolic Z-matrix:
 Charge =  0 Multiplicity = 1

                         Standard orientation:
 ---------------------------------------------------------------------
 Center     Atomic      Atomic             Coordinates (Angstroms)
 Number     Number       Type             X           Y           Z
 ---------------------------------------------------------------------
      1         12           0       -5.036688   -0.150784    1.036078
      2          6           0       -4.486935    3.147524   -0.256944
      3          6           0       -2.931292    0.652385    3.646395
      4          6           0       -5.060967   -3.319700    1.831432
      5          6           0       -6.935617   -0.767264   -1.796670
      6          7           0       -3.587541    1.660157    1.489680
      7          6           0       -3.686176    2.870549    0.858539
      8          6           0       -2.962437    3.954377    1.701700
      9          6           0       -2.399206    3.144319    2.943427
     10          6           0       -2.967448    1.695933    2.717052
     11          6           0       -0.826050    3.090347    3.142077
     12          6           0       -3.852338    5.142914    2.153656
     13          6           0       -3.297244    6.516065    2.018069
     14          1           0       -1.758366    6.821444    1.863836
     15          7           0       -4.101493   -1.253641    2.560747
     16          6           0       -3.373557   -0.746293    3.636714
     17          6           0       -2.927123   -1.870716    4.481383
     18          6           0       -3.656603   -3.026117    4.002922
     19          6           0       -4.306890   -2.572194    2.751701
     20          6           0       -1.982166   -1.782004    5.641298
     21          6           0       -3.764276   -4.463356    4.564698
     22          8           0       -4.648834   -5.288969    4.254517
     23          6           0       -2.858947   -4.830514    5.670885
     24          7           0       -5.811611   -1.746961    0.120177
     25          6           0       -5.612083   -3.001295    0.653646
     26          6           0       -6.496279   -4.061457   -0.059577
     27          6           0       -7.380651   -3.127524   -0.999018
     28          6           0       -6.686865   -1.781134   -0.885773
     29          6           0       -5.774925   -5.238120   -0.835066
     30          6           0       -8.858820   -3.009644   -0.662916
     31          6           0       -9.830282   -3.590158   -1.711885
     32          7           0       -5.773957    0.981008   -0.590064
     33          6           0       -6.511244    0.577920   -1.678212
     34          6           0       -6.670610    1.695156   -2.618244
     35          6           0       -5.935404    2.719374   -2.048311
     36          6           0       -5.408082    2.247542   -0.825526
     37          6           0       -7.380668    1.728182   -3.931270
     38          6           0       -5.583575    4.077355   -2.259985
     39          8           0       -5.944319    4.921470   -3.128810
     40          6           0       -4.663020    4.407239   -1.162477
     41          6           0       -3.385918    4.983129   -1.711806
     42          8           0       -2.559605    4.377203   -2.304001
     43          8           0       -3.284863    6.268195   -1.372895
     44          6           0       -2.328608    7.092160   -2.031046
     45          1           0       -2.268742    0.817859    4.498700
     46          1           0       -5.196032   -4.391391    1.997115
     47          1           0       -7.468747   -0.994515   -2.721308
     48          1           0       -2.158163    4.333168    1.069929
     49          1           0       -2.830041    3.532910    3.865693
     50          1           0       -0.250490    3.746776    2.490042
     51          1           0       -0.511380    2.082063    2.869002
     52          1           0       -0.568076    3.261818    4.187576
     53          1           0       -4.126944    5.089555    3.207796
     54          1           0       -4.788586    5.202907    1.599478
     55          1           0       -3.520224    7.092469    2.916432
     56          1           0       -3.800207    6.984410    1.172483
     57          1           0       -1.162797   -2.485363    5.494511
     58          1           0       -2.550446   -2.084303    6.520948
     59          1           0       -1.713221   -0.748464    5.861827
     60          1           0       -1.838947   -4.777868    5.290061
     61          1           0       -3.068375   -5.879890    5.876955
     62          1           0       -3.083326   -4.280573    6.584439
     63          1           0       -7.139540   -4.471244    0.719788
     64          1           0       -7.300740   -3.533588   -2.007347
     65          1           0       -4.693790   -5.138556   -0.745320
     66          1           0       -6.117875   -5.346364   -1.864745
     67          1           0       -6.099066   -6.170857   -0.373232
     68          1           0       -9.210470   -2.029031   -0.341917
     69          1           0       -9.024477   -3.617778    0.225748
     70          1           0      -10.709273   -2.993615   -1.955217
     71          1           0      -10.325088   -4.438881   -1.238958
     72          1           0       -9.384144   -3.851302   -2.670552
     73          1           0       -8.082498    0.902113   -4.049450
     74          1           0       -6.677351    1.532634   -4.740589
     75          1           0       -7.761737    2.742465   -4.049441
     76          1           0       -5.176758    5.155897   -0.559986
     77          1           0       -2.724800    7.277227   -3.030482
     78          1           0       -1.398064    6.550416   -2.201114
     79          1           0       -2.230141    8.056952   -1.532762
     80         12           0        4.168580   -1.085487   -1.091260
     81          6           0        6.803789    1.080252   -0.137712
     82          6           0        2.083126    1.700777   -0.765356
     83          6           0        1.628827   -2.922850   -2.067624
     84          6           0        6.254050   -3.815790   -0.556297
     85          7           0        4.465970    1.114261   -0.549327
     86          6           0        5.626786    1.797211   -0.346310
     87          6           0        5.482260    3.302405   -0.063638
     88          6           0        3.876162    3.392523   -0.168975
     89          6           0        3.482567    1.982400   -0.495816
     90          6           0        3.161295    3.852577    1.162745
     91          6           0        6.212992    4.195921   -1.118288
     92          6           0        7.437151    5.054247   -0.824184
     93          1           0        7.638905    6.402522   -1.503115
     94          7           0        2.134397   -0.680159   -1.461201
     95          6           0        1.444240    0.512374   -1.200209
     96          6           0        0.042095    0.262551   -1.449489
     97          6           0       -0.099193   -1.016762   -1.981486
     98          6           0        1.262192   -1.581904   -1.906757
     99          6           0       -0.912812    1.401821   -1.339111
    100          6           0       -1.334536   -1.793677   -2.435377
    101          8           0       -1.317869   -2.952251   -2.862102
    102          6           0       -2.610366   -1.049952   -2.495325
    103          7           0        3.901424   -3.094385   -1.197405
    104          6           0        2.829469   -3.653372   -1.836307
    105          6           0        3.127308   -5.135674   -2.245553
    106          6           0        4.516608   -5.376709   -1.669526
    107          6           0        4.914920   -4.020942   -1.022867
    108          6           0        2.016858   -6.142657   -1.800494
    109          6           0        5.468300   -5.828013   -2.787896
    110          6           0        6.392536   -6.958688   -2.515893
    111          7           0        6.093124   -1.386845   -0.380775
    112          6           0        6.824410   -2.539418   -0.242567
    113          6           0        8.155155   -2.263051    0.209574
    114          6           0        8.292196   -0.789096    0.191544
    115          6           0        6.971958   -0.326991   -0.192137
    116          6           0        9.220580   -3.312966    0.568585
    117          6           0        9.173553    0.384812    0.413740
    118          8           0       10.397467    0.440957    0.621701
    119          6           0        8.220628    1.631560    0.196739
    120          6           0        8.351736    2.292017    1.533515
    121          8           0        7.712692    2.077347    2.556408
    122          8           0        9.198732    3.283254    1.479542
    123          6           0        9.604432    3.973226    2.728118
    124          1           0        1.587059    2.673209   -0.774995
    125          1           0        0.868961   -3.653425   -2.351641
    126          1           0        6.913645   -4.680624   -0.462910
    127          1           0        5.805777    3.477485    0.963179
    128          1           0        3.443817    3.994541   -0.968795
    129          1           0        3.747276    3.812603    2.080559
    130          1           0        2.288232    3.227850    1.348086
    131          1           0        2.817858    4.878586    1.029365
    132          1           0        5.469276    4.903125   -1.485865
    133          1           0        6.557972    3.587165   -1.953087
    134          1           0        8.219137    4.432579   -1.260464
    135          1           0        7.408991    5.109047    0.264121
    136          1           0       -1.395138    1.621984   -2.290473
    137          1           0       -0.405801    2.308858   -1.009014
    138          1           0       -1.724003    1.217449   -0.635436
    139          1           0       -2.460814   -0.115210   -3.035839
    140          1           0       -2.922632   -0.678723   -1.519115
    141          1           0       -3.411609   -1.571509   -3.017887
    142          1           0        3.116767   -5.065767   -3.333135
    143          1           0        4.511438   -6.207060   -0.963612
    144          1           0        1.113818   -5.671179   -1.413049
    145          1           0        2.336034   -6.832966   -1.020540
    146          1           0        1.810786   -6.843348   -2.609475
    147          1           0        6.046476   -4.924898   -2.979131
    148          1           0        4.973792   -6.156768   -3.701611
    149          1           0        7.382274   -6.561072   -2.739206
    150          1           0        6.086648   -7.839965   -3.079621
    151          1           0        6.471550   -7.245561   -1.467071
    152          1           0        9.142944   -3.547326    1.629618
    153          1           0       10.198567   -2.907961    0.309006
    154          1           0        9.063546   -4.255404    0.043484
    155          1           0        8.676585    2.239591   -0.584395
    156          1           0        8.780573    4.446623    3.261084
    157          1           0       10.389003    4.717233    2.591670
    158          1           0       10.085306    3.363540    3.492453
 ---------------------------------------------------------------------

 SCF Done:  E(RPBE1PBE) =  -4067.37316050     A.U. after   16 cycles

 Excitation energies and oscillator strengths:

 Excited State   1:      Singlet-A      1.4213 eV  872.30 nm  f=0.0004  <S**2>=0.000
     312 -> 313        0.70687
 This state for optimization and/or second-order correction.
 Total Energy, E(TD-HF/TD-DFT) =  -4067.32092694
 Copying the excited state density for this state as the 1-particle RhoCI density.

 Excited State   2:      Singlet-A      1.8484 eV  670.78 nm  f=0.2021  <S**2>=0.000
     309 -> 315       -0.15162
     311 -> 313        0.62292
     312 -> 314       -0.30659

 Excited State   3:      Singlet-A      1.8731 eV  661.91 nm  f=0.5588  <S**2>=0.000
     310 -> 316       -0.16347
     311 -> 313        0.30726
     312 -> 314        0.61685

 Excited State   4:      Singlet-A      1.9595 eV  632.73 nm  f=0.0000  <S**2>=0.000
     310 -> 313        0.70664

 Excited State   5:      Singlet-A      1.9847 eV  624.69 nm  f=0.0021  <S**2>=0.000
     311 -> 314        0.70555

 The electronic state is 1-A.
 Alpha  occ. eigenvalues --  -46.92835 -46.91580 -19.26385 -19.25792 -19.20805
 Alpha  occ. eigenvalues --  -19.19564 -19.19268 -19.19061 -19.18933 -19.18308
 Alpha  occ. eigenvalues --  -14.42144 -14.41622 -14.41604 -14.41177 -14.39795
 Alpha  occ. eigenvalues --  -14.39792 -14.38899 -14.38506 -10.36846 -10.35517
 Alpha  occ. eigenvalues --  -10.32571 -10.32551 -10.32200 -10.32137 -10.29823
 Alpha  occ. eigenvalues --  -10.29428 -10.29389 -10.29098 -10.28959 -10.28812
 Alpha  occ. eigenvalues --  -10.28735 -10.28566 -10.28514 -10.28439 -10.28119
 Alpha  occ. eigenvalues --  -10.27989 -10.27932 -10.27920 -10.27611 -10.27279
 Alpha  occ. eigenvalues --  -10.27151 -10.26663 -10.26652 -10.26646 -10.26597
 Alpha  occ. eigenvalues --  -10.26577 -10.26463 -10.26461 -10.26341 -10.26316
 Alpha  occ. eigenvalues --  -10.26252 -10.26119 -10.25939 -10.25754 -10.25743
 Alpha  occ. eigenvalues --  -10.25622 -10.25535 -10.25523 -10.25501 -10.25450
 Alpha  occ. eigenvalues --  -10.25241 -10.24925 -10.24829 -10.24823 -10.24773
 Alpha  occ. eigenvalues --  -10.24707 -10.24609 -10.24557 -10.24120 -10.24041
 Alpha  occ. eigenvalues --  -10.23941 -10.23904 -10.23856 -10.23492 -10.23406
 Alpha  occ. eigenvalues --  -10.23319 -10.23182 -10.23124 -10.23118 -10.23085
 Alpha  occ. eigenvalues --  -10.23074 -10.23047 -10.23017 -10.22680 -10.22666
 Alpha  occ. eigenvalues --  -10.22149  -3.14998  -3.13756  -1.87827  -1.87385
 Alpha  occ. eigenvalues --   -1.87217  -1.86599  -1.86133  -1.85982  -1.14214
 Alpha  occ. eigenvalues --   -1.12473  -1.05385  -1.03949  -1.03488  -1.03099
 Alpha  occ. eigenvalues --   -1.03059  -1.01169  -0.99851  -0.99698  -0.98815
 Alpha  occ. eigenvalues --   -0.97994  -0.97755  -0.97059  -0.97057  -0.95928
 Alpha  occ. eigenvalues --   -0.88373  -0.85993  -0.83857  -0.83519  -0.83282
 Alpha  occ. eigenvalues --   -0.82973  -0.82921  -0.82408  -0.82378  -0.81658
 Alpha  occ. eigenvalues --   -0.81381  -0.81094  -0.80712  -0.79406  -0.79135
 Alpha  occ. eigenvalues --   -0.78370  -0.78231  -0.77629  -0.77251  -0.76928
 Alpha  occ. eigenvalues --   -0.76733  -0.76448  -0.75964  -0.75292  -0.74880
 Alpha  occ. eigenvalues --   -0.74409  -0.73090  -0.72461  -0.72015  -0.71913
 Alpha  occ. eigenvalues --   -0.71527  -0.71005  -0.70964  -0.70332  -0.69969
 Alpha  occ. eigenvalues --   -0.69097  -0.68022  -0.66422  -0.66387  -0.65913
 Alpha  occ. eigenvalues --   -0.64176  -0.63697  -0.63086  -0.62380  -0.62370
 Alpha  occ. eigenvalues --   -0.61931  -0.61168  -0.60783  -0.60697  -0.59963
 Alpha  occ. eigenvalues --   -0.59919  -0.59833  -0.59475  -0.59439  -0.59032
 Alpha  occ. eigenvalues --   -0.58431  -0.58158  -0.56817  -0.55267  -0.54930
 Alpha  occ. eigenvalues --   -0.54558  -0.54363  -0.54122  -0.53641  -0.53293
 Alpha  occ. eigenvalues --   -0.53222  -0.52857  -0.52807  -0.52089  -0.51965
 Alpha  occ. eigenvalues --   -0.51555  -0.51170  -0.50520  -0.50376  -0.49995
 Alpha  occ. eigenvalues --   -0.49932  -0.49284  -0.48761  -0.48659  -0.48571
 Alpha  occ. eigenvalues --   -0.48470  -0.48321  -0.48158  -0.48052  -0.47556
 Alpha  occ. eigenvalues --   -0.47513  -0.47284  -0.47120  -0.46992  -0.46746
 Alpha  occ. eigenvalues --   -0.46546  -0.46471  -0.46393  -0.46201  -0.46090
 Alpha  occ. eigenvalues --   -0.45758  -0.45059  -0.45024  -0.44978  -0.44801
 Alpha  occ. eigenvalues --   -0.44468  -0.44367  -0.44343  -0.44202  -0.43910
 Alpha  occ. eigenvalues --   -0.43865  -0.43777  -0.43650  -0.43412  -0.43305
 Alpha  occ. eigenvalues --   -0.43252  -0.43186  -0.43045  -0.42677  -0.42672
 Alpha  occ. eigenvalues --   -0.42556  -0.42377  -0.42174  -0.42035  -0.41959
 Alpha  occ. eigenvalues --   -0.41798  -0.41540  -0.41354  -0.41351  -0.41129
 Alpha  occ. eigenvalues --   -0.41005  -0.40990  -0.40584  -0.40497  -0.40468
 Alpha  occ. eigenvalues --   -0.40307  -0.39971  -0.39944  -0.39837  -0.39765
 Alpha  occ. eigenvalues --   -0.39737  -0.39605  -0.39394  -0.39191  -0.38949
 Alpha  occ. eigenvalues --   -0.38888  -0.38590  -0.38552  -0.38353  -0.38032
 Alpha  occ. eigenvalues --   -0.37938  -0.37867  -0.37746  -0.37540  -0.37403
 Alpha  occ. eigenvalues --   -0.37345  -0.37276  -0.37006  -0.36804  -0.36724
 Alpha  occ. eigenvalues --   -0.36447  -0.36382  -0.36275  -0.36061  -0.35917
 Alpha  occ. eigenvalues --   -0.35717  -0.35593  -0.35382  -0.35254  -0.35081
 Alpha  occ. eigenvalues --   -0.34932  -0.34816  -0.34539  -0.34464  -0.34179
 Alpha  occ. eigenvalues --   -0.33576  -0.33278  -0.33156  -0.32527  -0.32460
 Alpha  occ. eigenvalues --   -0.32161  -0.31963  -0.31820  -0.31392  -0.31294
 Alpha  occ. eigenvalues --   -0.31166  -0.30634  -0.30345  -0.29849  -0.29351
 Alpha  occ. eigenvalues --   -0.29029  -0.28457  -0.27884  -0.27574  -0.26670
 Alpha  occ. eigenvalues --   -0.26669  -0.26568  -0.25947  -0.25752  -0.25709
 Alpha  occ. eigenvalues --   -0.25511  -0.25402  -0.24348  -0.21530  -0.20446
 Alpha  occ. eigenvalues --   -0.19389  -0.18395
 Alpha virt. eigenvalues --   -0.11871  -0.10606  -0.05543  -0.05026  -0.04825
 Alpha virt. eigenvalues --   -0.03968  -0.02810  -0.01856  -0.00941   0.00171
 Alpha virt. eigenvalues --    0.00522   0.00844   0.01145   0.01289   0.01910

 Mulliken charges:
               1
     1  Mg  11.999932
     2  C    6.000020
     3  C    6.000589
     4  C    5.999345
     5  C    5.999730
     6  N    7.000692
     7  C    5.999821
     8  C    6.000182
     9  C    5.999965
    10  C    5.999932
    11  C    6.000002
    12  C    6.000084
    13  C    6.000083
    14  H    0.999777
    15  N    6.999946
    16  C    6.000164
    17  C    6.000231
    18  C    6.000001
    19  C    6.000467
    20  C    5.999977
    21  C    6.000166
    22  O    8.000248
    23  C    5.999944
    24  N    6.999746
    25  C    6.000459
    26  C    5.999910
    27  C    6.000088
    28  C    5.999742
    29  C    6.000017
    30  C    6.000216
    31  C    6.000063
    32  N    6.999972
    33  C    5.999583
    34  C    5.999316
    35  C    6.000048
    36  C    5.999532
    37  C    6.000086
    38  C    5.999576
    39  O    7.999352
    40  C    6.000156
    41  C    5.999823
    42  O    7.999822
    43  O    7.999980
    44  C    6.000057
    45  H    1.000183
    46  H    0.999879
    47  H    0.999635
    48  H    0.999891
    49  H    0.999964
    50  H    1.000121
    51  H    0.999873
    52  H    0.999935
    53  H    0.999818
    54  H    1.000145
    55  H    0.999895
    56  H    1.000078
    57  H    1.000103
    58  H    1.000155
    59  H    1.000068
    60  H    0.999990
    61  H    1.000077
    62  H    1.000022
    63  H    0.999903
    64  H    0.999884
    65  H    0.999945
    66  H    1.000012
    67  H    0.999882
    68  H    1.000000
    69  H    0.999739
    70  H    0.999929
    71  H    0.999827
    72  H    0.999944
    73  H    0.999666
    74  H    0.999527
    75  H    0.999680
    76  H    0.999756
    77  H    0.999970
    78  H    0.999844
    79  H    0.999862
    80  Mg  12.000164
    81  C    5.999794
    82  C    5.999933
    83  C    6.000191
    84  C    5.999994
    85  N    6.999855
    86  C    6.000471
    87  C    5.999867
    88  C    6.000032
    89  C    5.999950
    90  C    5.999929
    91  C    5.999908
    92  C    5.999937
    93  H    1.000208
    94  N    6.999928
    95  C    6.000009
    96  C    6.000093
    97  C    5.999801
    98  C    5.999967
    99  C    6.000084
   100  C    5.999800
   101  O    7.999624
   102  C    6.000065
   103  N    7.000018
   104  C    5.999897
   105  C    5.999989
   106  C    5.999893
   107  C    6.000406
   108  C    5.999973
   109  C    5.999925
   110  C    5.999971
   111  N    6.999996
   112  C    6.000406
   113  C    6.000328
   114  C    6.000068
   115  C    6.000429
   116  C    5.999965
   117  C    6.000252
   118  O    8.000392
   119  C    5.999982
   120  C    6.000022
   121  O    8.000106
   122  O    8.000017
   123  C    5.999945
   124  H    1.000065
   125  H    1.000133
   126  H    1.000220
   127  H    1.000076
   128  H    1.000165
   129  H    0.999977
   130  H    1.000148
   131  H    1.000153
   132  H    1.000185
   133  H    1.000014
   134  H    0.999960
   135  H    1.000014
   136  H    1.000404
   137  H    0.999913
   138  H    0.998682
   139  H    0.999970
   140  H    1.000161
   141  H    1.000052
   142  H    1.000147
   143  H    1.000140
   144  H    1.000159
   145  H    1.000003
   146  H    1.000092
   147  H    0.999974
   148  H    1.000215
   149  H    1.000002
   150  H    1.000147
   151  H    1.000018
   152  H    1.000287
   153  H    1.000229
   154  H    1.000247
   155  H    1.000171
   156  H    1.000098
   157  H    1.000102
   158  H    1.000045
 Sum of Mulliken charges = 624.00000

 Dipole moment (field-independent basis, Debye):
    X=              0.3492    Y=             -0.0947    Z=              0.1064  Tot=              0.3772
 Quadrupole moment (field-independent basis, Debye-Ang):
   XX=              0.1664   YY=              0.0098   ZZ=              0.0477
   XY=              0.0354   XZ=             -0.5572   YZ=              0.0858

 Normal termination of Gaussian 16 at Fri Oct 15 11:37:11 2021.
