 Gaussian 16, Revision A.03,
 Gaussian 16:  ES64L-G16RevA.03 25-Dec-2016

 --------------------------------------------------------
 #p PBE1PBE/Def2SVP td=(nstates=5) density=(transition=1)
 --------------------------------------------------------

 --------------------------------
 TDDFT excited states in gaussian
 --------------------------------
 Symbolic Z-matrix:
 Charge =  0 Multiplicity = 1

                         Standard orientation:
 ---------------------------------------------------------------------
 Center     Atomic      Atomic             Coordinates (Angstroms)
 Number     Number       Type             X           Y           Z
 ---------------------------------------------------------------------
      1         12           0      -20.943724    0.493364   -0.374199
      2          6           0      -18.213482   -1.608624    0.069152
      3          6           0      -22.971031   -2.387326    0.260783
      4          6           0      -23.595911    2.432856   -0.276433
      5          6           0      -18.754215    3.240696   -0.247948
      6          7           0      -20.604020   -1.695491    0.224820
      7          6           0      -19.369225   -2.304426    0.240756
      8          6           0      -19.516955   -3.785577    0.599418
      9          6           0      -21.036195   -4.016022    0.369129
     10          6           0      -21.604981   -2.622366    0.318999
     11          6           0      -21.490715   -4.832456   -0.903907
     12          6           0      -19.058662   -4.108261    2.031149
     13          6           0      -19.016345   -5.546384    2.382093
     14          1           0      -18.087539   -5.965170    3.585019
     15          7           0      -23.032780    0.098102   -0.038499
     16          6           0      -23.657913   -1.140626    0.173303
     17          6           0      -25.070238   -0.910456    0.297649
     18          6           0      -25.263337    0.520112    0.280235
     19          6           0      -23.911052    1.088792   -0.050379
     20          6           0      -26.090113   -2.048021    0.579959
     21          6           0      -26.634901    1.172620    0.480331
     22          8           0      -27.662130    0.515852    0.518644
     23          6           0      -26.715666    2.644598    0.622626
     24          7           0      -21.122545    2.547684   -0.499300
     25          6           0      -22.342668    3.094882   -0.480621
     26          6           0      -22.219849    4.670920   -0.411525
     27          6           0      -20.675082    4.981291   -0.343945
     28          6           0      -20.111544    3.457117   -0.308459
     29          6           0      -22.991805    5.497756   -1.473165
     30          6           0      -20.340008    5.746294    0.954322
     31          6           0      -19.134411    6.689717    0.863868
     32          7           0      -18.885897    0.841533   -0.142544
     33          6           0      -18.129009    1.975752   -0.236343
     34          6           0      -16.713047    1.589159   -0.244742
     35          6           0      -16.719987    0.220289   -0.221803
     36          6           0      -18.023415   -0.203050   -0.093324
     37          6           0      -15.519939    2.536793   -0.405476
     38          6           0      -15.874688   -0.935106   -0.187667
     39          8           0      -14.676842   -1.063689   -0.251005
     40          6           0      -16.813284   -2.175311   -0.011681
     41          6           0      -16.681693   -3.014294   -1.234480
     42          8           0      -16.751492   -2.650213   -2.375542
     43          8           0      -16.598953   -4.362097   -0.843958
     44          6           0      -16.547369   -5.316374   -1.914770
     45          1           0      -23.501050   -3.335529    0.368113
     46          1           0      -24.377803    3.195722   -0.283764
     47          1           0      -18.041953    4.068037   -0.277876
     48          1           0      -18.975396   -4.332067   -0.171509
     49          1           0      -21.578128   -4.477868    1.193680
     50          1           0      -22.158414   -5.593887   -0.501354
     51          1           0      -20.738195   -5.058670   -1.659792
     52          1           0      -22.153837   -4.175378   -1.466404
     53          1           0      -19.703935   -3.736367    2.827488
     54          1           0      -18.079585   -3.665348    2.214061
     55          1           0      -18.707607   -6.077239    1.481552
     56          1           0      -20.031399   -5.889386    2.581625
     57          1           0      -26.259508   -1.815356    1.631763
     58          1           0      -25.684186   -3.059596    0.601210
     59          1           0      -27.038336   -2.151227    0.052076
     60          1           0      -25.965976    2.887427    1.375677
     61          1           0      -27.692572    2.896385    1.035686
     62          1           0      -26.483400    3.007496   -0.378904
     63          1           0      -22.685237    4.954678    0.532824
     64          1           0      -20.266910    5.497290   -1.212410
     65          1           0      -23.848952    5.959014   -0.981583
     66          1           0      -23.230999    4.845925   -2.312749
     67          1           0      -22.384418    6.344791   -1.792025
     68          1           0      -20.169061    4.968361    1.697996
     69          1           0      -21.181325    6.296371    1.376344
     70          1           0      -19.559440    7.653144    1.147482
     71          1           0      -18.630778    6.691630   -0.102883
     72          1           0      -18.398567    6.436583    1.627221
     73          1           0      -14.672915    2.365972    0.258134
     74          1           0      -15.986440    3.509176   -0.245757
     75          1           0      -15.300294    2.561295   -1.472951
     76          1           0      -16.457774   -2.703121    0.873347
     77          1           0      -15.534385   -5.718919   -1.917678
     78          1           0      -16.800990   -5.000363   -2.926942
     79          1           0      -17.266919   -6.100982   -1.682380
     80         12           0       20.604058    0.609677   -0.210107
     81          6           0       19.715726   -2.669504    0.147244
     82          6           0       17.307477    1.455876    0.828704
     83          6           0       21.552367    3.847682   -0.165957
     84          6           0       23.955175   -0.338865   -0.296216
     85          7           0       18.774064   -0.552788    0.805091
     86          6           0       18.611466   -1.888273    0.588855
     87          6           0       17.265847   -2.326713    1.096821
     88          6           0       16.478627   -0.968788    1.353474
     89          6           0       17.548216    0.102189    0.969835
     90          6           0       15.054528   -0.939829    0.933206
     91          6           0       17.172099   -3.394332    2.287107
     92          6           0       18.260361   -3.402338    3.319381
     93          1           0       17.828996   -3.419804    4.779145
     94          7           0       19.508755    2.387551    0.032654
     95          6           0       18.211735    2.535213    0.415656
     96          6           0       17.834007    3.913539    0.521306
     97          6           0       19.063649    4.646649    0.109194
     98          6           0       20.119121    3.620253   -0.034796
     99          6           0       16.545709    4.477164    0.890891
    100          6           0       19.252387    6.139038   -0.122117
    101          8           0       18.402513    6.903437    0.169620
    102          6           0       20.499767    6.816001   -0.618692
    103          7           0       22.457863    1.583609   -0.097138
    104          6           0       22.555891    2.909597   -0.277409
    105          6           0       24.091860    3.394787   -0.127812
    106          6           0       24.812794    2.024531   -0.554557
    107          6           0       23.698651    1.052595   -0.246977
    108          6           0       24.499684    4.593612   -0.988731
    109          6           0       26.169375    1.820939    0.143923
    110          6           0       27.409418    1.406014   -0.656682
    111          7           0       21.657881   -1.139204    0.011663
    112          6           0       23.015818   -1.417328   -0.082827
    113          6           0       23.261816   -2.806896   -0.095919
    114          6           0       22.004275   -3.386590   -0.062669
    115          6           0       21.031999   -2.326607    0.003865
    116          6           0       24.581332   -3.505525   -0.211157
    117          6           0       21.221147   -4.550390   -0.109164
    118          8           0       21.619058   -5.711849   -0.172066
    119          6           0       19.741966   -4.178678    0.195321
    120          6           0       18.976626   -4.862815   -0.927853
    121          8           0       18.003606   -5.625919   -0.749869
    122          8           0       19.461479   -4.370652   -2.116668
    123          6           0       18.784933   -4.629984   -3.411083
    124          1           0       16.327730    1.647732    1.270990
    125          1           0       21.874106    4.868423    0.050346
    126          1           0       25.003017   -0.628569   -0.395384
    127          1           0       16.774780   -2.904094    0.312649
    128          1           0       16.445431   -0.845025    2.435531
    129          1           0       14.792371   -0.057791    0.349046
    130          1           0       14.374636   -1.116884    1.766587
    131          1           0       14.869309   -1.757982    0.237138
    132          1           0       17.164650   -4.433940    1.959394
    133          1           0       16.299147   -3.173316    2.902074
    134          1           0       19.070251   -2.697331    3.134892
    135          1           0       18.724241   -4.388384    3.277935
    136          1           0       15.760645    3.790934    0.574840
    137          1           0       16.349699    5.459213    0.462125
    138          1           0       16.542830    4.561304    1.978234
    139          1           0       20.815152    5.983750   -1.248422
    140          1           0       21.224666    7.004479    0.172587
    141          1           0       20.374759    7.744298   -1.176374
    142          1           0       24.250032    3.542260    0.940951
    143          1           0       25.012200    1.846122   -1.610918
    144          1           0       25.113126    4.203898   -1.801541
    145          1           0       24.894475    5.393320   -0.362743
    146          1           0       23.653772    5.081515   -1.472053
    147          1           0       26.009418    1.067870    0.916007
    148          1           0       26.380715    2.717737    0.726516
    149          1           0       28.333154    1.967789   -0.517212
    150          1           0       27.208006    1.287181   -1.722106
    151          1           0       27.514009    0.358768   -0.374868
    152          1           0       24.553419   -4.444778   -0.764066
    153          1           0       24.954063   -3.704289    0.793931
    154          1           0       25.330694   -2.925032   -0.750876
    155          1           0       19.579872   -4.627552    1.174533
    156          1           0       18.798329   -3.763364   -4.071830
    157          1           0       17.750707   -4.904428   -3.202711
    158          1           0       19.123953   -5.432377   -4.065122
 ---------------------------------------------------------------------

 SCF Done:  E(RPBE1PBE) =  -4067.32929274     A.U. after   16 cycles

 Excitation energies and oscillator strengths:

 Excited State   1:      Singlet-A      1.7944 eV  690.97 nm  f=0.3706  <S**2>=0.000
     310 -> 316       -0.16555
     311 -> 313        0.69590
     311 <- 313       -0.11768
 This state for optimization and/or second-order correction.
 Total Energy, E(TD-HF/TD-DFT) =  -4067.26335123
 Copying the excited state density for this state as the 1-particle RhoCI density.

 Excited State   2:      Singlet-A      1.8819 eV  658.81 nm  f=0.0000  <S**2>=0.000
     312 -> 313        0.70711

 Excited State   3:      Singlet-A      1.9035 eV  651.34 nm  f=0.3833  <S**2>=0.000
     309 -> 315        0.17024
     312 -> 314        0.69345
     312 <- 314       -0.10646

 Excited State   4:      Singlet-A      2.0428 eV  606.94 nm  f=0.0000  <S**2>=0.000
     311 -> 314        0.70710

 Excited State   5:      Singlet-A      2.1559 eV  575.10 nm  f=0.1293  <S**2>=0.000
     308 -> 313        0.10038
     310 -> 313        0.65392
     311 -> 316        0.23169

 The electronic state is 1-A.
 Alpha  occ. eigenvalues --  -46.93333 -46.93037 -19.26746 -19.25665 -19.20740
 Alpha  occ. eigenvalues --  -19.20482 -19.18949 -19.18708 -19.18496 -19.17599
 Alpha  occ. eigenvalues --  -14.42219 -14.42096 -14.41787 -14.41487 -14.39812
 Alpha  occ. eigenvalues --  -14.39728 -14.39204 -14.38894 -10.37415 -10.36570
 Alpha  occ. eigenvalues --  -10.31803 -10.31483 -10.31234 -10.30895 -10.29918
 Alpha  occ. eigenvalues --  -10.29889 -10.29637 -10.29183 -10.29062 -10.28925
 Alpha  occ. eigenvalues --  -10.28872 -10.28763 -10.28635 -10.28605 -10.28532
 Alpha  occ. eigenvalues --  -10.28490 -10.28448 -10.28217 -10.28159 -10.27296
 Alpha  occ. eigenvalues --  -10.26896 -10.26842 -10.26754 -10.26326 -10.26220
 Alpha  occ. eigenvalues --  -10.26212 -10.26148 -10.26103 -10.26085 -10.26065
 Alpha  occ. eigenvalues --  -10.25978 -10.25939 -10.25904 -10.25878 -10.25788
 Alpha  occ. eigenvalues --  -10.25759 -10.25748 -10.25471 -10.25467 -10.25376
 Alpha  occ. eigenvalues --  -10.25253 -10.25236 -10.25230 -10.25178 -10.25124
 Alpha  occ. eigenvalues --  -10.24991 -10.24730 -10.24676 -10.24383 -10.24286
 Alpha  occ. eigenvalues --  -10.24231 -10.24030 -10.23985 -10.23963 -10.23924
 Alpha  occ. eigenvalues --  -10.23819 -10.23739 -10.23714 -10.23631 -10.23532
 Alpha  occ. eigenvalues --  -10.23246 -10.23117 -10.22960 -10.22685 -10.22605
 Alpha  occ. eigenvalues --  -10.21929  -3.15384  -3.15041  -1.88181  -1.87887
 Alpha  occ. eigenvalues --   -1.87795  -1.87582  -1.87419  -1.87249  -1.11418
 Alpha  occ. eigenvalues --   -1.10305  -1.06365  -1.05276  -1.04665  -1.03890
 Alpha  occ. eigenvalues --   -1.03717  -1.01960  -0.99734  -0.99290  -0.98921
 Alpha  occ. eigenvalues --   -0.98436  -0.98291  -0.97613  -0.97452  -0.96893
 Alpha  occ. eigenvalues --   -0.87917  -0.87755  -0.84095  -0.83653  -0.83478
 Alpha  occ. eigenvalues --   -0.83108  -0.82985  -0.82722  -0.82448  -0.82162
 Alpha  occ. eigenvalues --   -0.81560  -0.80871  -0.80340  -0.80191  -0.79416
 Alpha  occ. eigenvalues --   -0.78851  -0.78351  -0.78211  -0.77362  -0.77331
 Alpha  occ. eigenvalues --   -0.76766  -0.76408  -0.75680  -0.75296  -0.75229
 Alpha  occ. eigenvalues --   -0.74857  -0.72779  -0.72101  -0.72093  -0.71705
 Alpha  occ. eigenvalues --   -0.71367  -0.71268  -0.70939  -0.70542  -0.69855
 Alpha  occ. eigenvalues --   -0.69832  -0.68049  -0.67783  -0.66485  -0.66197
 Alpha  occ. eigenvalues --   -0.64358  -0.63811  -0.63776  -0.63421  -0.62701
 Alpha  occ. eigenvalues --   -0.62306  -0.61154  -0.61054  -0.60646  -0.60497
 Alpha  occ. eigenvalues --   -0.60115  -0.60076  -0.59425  -0.59219  -0.59116
 Alpha  occ. eigenvalues --   -0.58819  -0.58092  -0.57310  -0.54825  -0.54705
 Alpha  occ. eigenvalues --   -0.54548  -0.53989  -0.53868  -0.53505  -0.53336
 Alpha  occ. eigenvalues --   -0.53111  -0.52608  -0.52243  -0.51966  -0.51823
 Alpha  occ. eigenvalues --   -0.51125  -0.51105  -0.50410  -0.50350  -0.49936
 Alpha  occ. eigenvalues --   -0.49855  -0.49633  -0.49484  -0.48963  -0.48960
 Alpha  occ. eigenvalues --   -0.48604  -0.48485  -0.48151  -0.47939  -0.47825
 Alpha  occ. eigenvalues --   -0.47714  -0.47526  -0.47331  -0.47053  -0.46564
 Alpha  occ. eigenvalues --   -0.46472  -0.46374  -0.46362  -0.46313  -0.46131
 Alpha  occ. eigenvalues --   -0.45985  -0.45643  -0.45463  -0.45358  -0.45325
 Alpha  occ. eigenvalues --   -0.45160  -0.44974  -0.44874  -0.44615  -0.44521
 Alpha  occ. eigenvalues --   -0.44299  -0.44123  -0.43964  -0.43824  -0.43761
 Alpha  occ. eigenvalues --   -0.43619  -0.43357  -0.42936  -0.42873  -0.42771
 Alpha  occ. eigenvalues --   -0.42466  -0.42301  -0.42244  -0.42028  -0.41988
 Alpha  occ. eigenvalues --   -0.41920  -0.41912  -0.41818  -0.41766  -0.41655
 Alpha  occ. eigenvalues --   -0.41166  -0.41128  -0.41105  -0.40912  -0.40870
 Alpha  occ. eigenvalues --   -0.40567  -0.40273  -0.40129  -0.40128  -0.40122
 Alpha  occ. eigenvalues --   -0.39862  -0.39739  -0.39545  -0.39366  -0.39041
 Alpha  occ. eigenvalues --   -0.38959  -0.38782  -0.38651  -0.38392  -0.38310
 Alpha  occ. eigenvalues --   -0.38193  -0.38024  -0.37936  -0.37797  -0.37635
 Alpha  occ. eigenvalues --   -0.37492  -0.37451  -0.37259  -0.37164  -0.37083
 Alpha  occ. eigenvalues --   -0.36880  -0.36829  -0.36746  -0.36681  -0.36525
 Alpha  occ. eigenvalues --   -0.36397  -0.36395  -0.36186  -0.35469  -0.35459
 Alpha  occ. eigenvalues --   -0.35225  -0.35107  -0.34747  -0.34654  -0.33921
 Alpha  occ. eigenvalues --   -0.33736  -0.33660  -0.33045  -0.33033  -0.32685
 Alpha  occ. eigenvalues --   -0.32308  -0.31957  -0.31812  -0.31513  -0.31138
 Alpha  occ. eigenvalues --   -0.31127  -0.30647  -0.30149  -0.29791  -0.29569
 Alpha  occ. eigenvalues --   -0.29254  -0.28961  -0.28566  -0.27396  -0.27138
 Alpha  occ. eigenvalues --   -0.26311  -0.26027  -0.25804  -0.25602  -0.25252
 Alpha  occ. eigenvalues --   -0.25124  -0.24924  -0.23725  -0.21557  -0.21393
 Alpha  occ. eigenvalues --   -0.19338  -0.19274
 Alpha virt. eigenvalues --   -0.12035  -0.11511  -0.05480  -0.05464  -0.03869
 Alpha virt. eigenvalues --   -0.03319  -0.01872  -0.01772  -0.01723  -0.00738
 Alpha virt. eigenvalues --   -0.00027   0.00291   0.00634   0.00671   0.01824

 Mulliken charges:
               1
     1  Mg  12.000000
     2  C    6.000095
     3  C    5.999959
     4  C    5.999883
     5  C    6.000049
     6  N    7.000011
     7  C    5.999886
     8  C    6.000036
     9  C    5.999958
    10  C    6.000137
    11  C    5.999993
    12  C    6.000002
    13  C    5.999979
    14  H    1.000032
    15  N    6.999978
    16  C    6.000221
    17  C    6.000089
    18  C    6.000114
    19  C    6.000126
    20  C    5.999954
    21  C    6.000057
    22  O    8.000146
    23  C    5.999986
    24  N    7.000025
    25  C    6.000151
    26  C    5.999965
    27  C    6.000016
    28  C    5.999877
    29  C    6.000007
    30  C    6.000029
    31  C    6.000020
    32  N    6.999976
    33  C    5.999800
    34  C    5.999790
    35  C    5.999982
    36  C    5.999893
    37  C    6.000044
    38  C    5.999911
    39  O    7.999811
    40  C    6.000027
    41  C    5.999978
    42  O    7.999976
    43  O    7.999994
    44  C    5.999987
    45  H    1.000113
    46  H    1.000025
    47  H    0.999886
    48  H    1.000024
    49  H    1.000034
    50  H    1.000063
    51  H    1.000082
    52  H    0.999984
    53  H    0.999970
    54  H    1.000012
    55  H    1.000027
    56  H    1.000005
    57  H    1.000084
    58  H    1.000099
    59  H    1.000109
    60  H    1.000026
    61  H    1.000069
    62  H    1.000038
    63  H    0.999993
    64  H    0.999963
    65  H    1.000005
    66  H    1.000006
    67  H    0.999998
    68  H    1.000006
    69  H    0.999961
    70  H    0.999957
    71  H    0.999971
    72  H    0.999960
    73  H    0.999848
    74  H    0.999886
    75  H    0.999870
    76  H    0.999967
    77  H    1.000005
    78  H    0.999995
    79  H    1.000015
    80  Mg  12.002574
    81  C    6.000978
    82  C    5.985796
    83  C    5.982698
    84  C    6.012587
    85  N    6.995019
    86  C    5.974649
    87  C    6.009382
    88  C    5.986776
    89  C    6.035454
    90  C    5.998699
    91  C    6.000504
    92  C    6.002665
    93  H    0.989961
    94  N    6.996254
    95  C    6.041998
    96  C    6.023279
    97  C    6.006270
    98  C    6.040205
    99  C    5.996193
   100  C    6.010316
   101  O    8.019199
   102  C    6.000956
   103  N    7.002512
   104  C    6.029494
   105  C    5.990550
   106  C    6.010899
   107  C    5.965109
   108  C    5.999659
   109  C    6.002088
   110  C    5.998720
   111  N    7.000331
   112  C    5.968315
   113  C    5.975737
   114  C    5.993379
   115  C    5.976073
   116  C    6.002253
   117  C    5.983129
   118  O    7.965846
   119  C    6.001911
   120  C    5.994250
   121  O    7.988741
   122  O    8.005191
   123  C    6.004805
   124  H    1.008923
   125  H    1.006431
   126  H    0.991988
   127  H    1.002067
   128  H    1.005579
   129  H    0.994786
   130  H    1.003972
   131  H    1.008916
   132  H    1.003142
   133  H    0.991154
   134  H    1.004011
   135  H    1.003884
   136  H    1.017724
   137  H    1.014774
   138  H    1.021066
   139  H    1.004484
   140  H    1.011325
   141  H    1.012167
   142  H    1.003658
   143  H    0.996964
   144  H    1.007466
   145  H    1.000877
   146  H    0.993451
   147  H    1.002837
   148  H    0.990599
   149  H    0.995489
   150  H    0.999043
   151  H    1.004785
   152  H    0.987347
   153  H    0.982667
   154  H    0.982884
   155  H    0.991913
   156  H    0.992973
   157  H    0.993308
   158  H    0.995939
 Sum of Mulliken charges = 624.00000

 Dipole moment (field-independent basis, Debye):
    X=             -4.9149    Y=              9.1882    Z=              0.5785  Tot=             10.4362
 Quadrupole moment (field-independent basis, Debye-Ang):
   XX=           -197.3963   YY=              8.3357   ZZ=             -0.8238
   XY=            184.3851   XZ=             10.0206   YZ=              0.1738

 Normal termination of Gaussian 16 at Fri Oct 15 15:22:05 2021.
