 Gaussian 16, Revision A.03,
 Gaussian 16:  ES64L-G16RevA.03 25-Dec-2016

 --------------------------------------------------------
 #p PBE1PBE/Def2SVP td=(nstates=5) density=(transition=1)
 --------------------------------------------------------

 --------------------------------
 TDDFT excited states in gaussian
 --------------------------------
 Symbolic Z-matrix:
 Charge =  0 Multiplicity = 1

                         Standard orientation:
 ---------------------------------------------------------------------
 Center     Atomic      Atomic             Coordinates (Angstroms)
 Number     Number       Type             X           Y           Z
 ---------------------------------------------------------------------
      1         12           0       32.962029    0.511891   -0.490560
      2          6           0       31.357769   -2.382525    0.460752
      3          6           0       30.405095    2.301898    0.895895
      4          6           0       35.052444    3.061451   -0.284110
      5          6           0       35.522821   -1.483993   -1.827076
      6          7           0       31.339415   -0.054348    0.962559
      7          6           0       30.744247   -1.274555    0.992270
      8          6           0       29.421274   -1.257959    1.699295
      9          6           0       28.990301    0.219166    1.424685
     10          6           0       30.301187    0.860790    0.994582
     11          6           0       27.825168    0.333905    0.400327
     12          6           0       29.569873   -1.545455    3.277017
     13          6           0       28.372712   -2.372843    3.939382
     14          1           0       27.753270   -1.513678    5.013703
     15          7           0       32.679361    2.471676    0.031539
     16          6           0       31.625035    3.040428    0.656419
     17          6           0       31.884964    4.448787    0.926886
     18          6           0       33.224114    4.689314    0.556681
     19          6           0       33.709913    3.364754    0.077705
     20          6           0       30.808628    5.352098    1.576350
     21          6           0       33.938579    5.974873    0.867753
     22          8           0       33.334390    6.879463    1.382451
     23          6           0       35.438512    6.225359    0.620665
     24          7           0       35.002130    0.836822   -1.104709
     25          6           0       35.597773    1.925781   -0.896884
     26          6           0       37.046530    1.877510   -1.214816
     27          6           0       37.229899    0.399309   -1.739456
     28          6           0       35.873581   -0.129264   -1.558462
     29          6           0       37.466264    3.032791   -2.185366
     30          6           0       38.321934   -0.406956   -0.895023
     31          6           0       38.934959   -1.696502   -1.548162
     32          7           0       33.373592   -1.493657   -0.750892
     33          6           0       34.404679   -2.142290   -1.405906
     34          6           0       34.138753   -3.551173   -1.496969
     35          6           0       32.888207   -3.696820   -0.800366
     36          6           0       32.541301   -2.459639   -0.292778
     37          6           0       34.970259   -4.600804   -2.161216
     38          6           0       31.891428   -4.642997   -0.434525
     39          8           0       31.741787   -5.861831   -0.589782
     40          6           0       30.960309   -3.873009    0.559536
     41          6           0       29.557744   -4.215369    0.181670
     42          8           0       28.889639   -5.125638    0.691823
     43          8           0       29.146769   -3.412968   -0.846708
     44          6           0       27.763756   -3.802113   -1.241303
     45          1           0       29.587617    2.967555    1.181971
     46          1           0       35.733846    3.903281   -0.148631
     47          1           0       36.373327   -2.104891   -2.118790
     48          1           0       28.810135   -1.954285    1.126455
     49          1           0       28.594004    0.649781    2.344409
     50          1           0       26.951674    0.757307    0.895306
     51          1           0       27.547447   -0.681966    0.117398
     52          1           0       28.196523    0.897009   -0.455320
     53          1           0       29.787786   -0.682556    3.906137
     54          1           0       30.464393   -2.136813    3.469877
     55          1           0       28.870425   -3.208671    4.431315
     56          1           0       27.616688   -2.834381    3.304053
     57          1           0       31.102772    5.811425    2.519992
     58          1           0       29.843770    4.863529    1.716647
     59          1           0       30.575019    6.130710    0.850966
     60          1           0       35.710878    6.201778   -0.433988
     61          1           0       36.092761    5.555683    1.179436
     62          1           0       35.640868    7.174086    1.118660
     63          1           0       37.518309    1.984714   -0.238160
     64          1           0       37.426003    0.245734   -2.800344
     65          1           0       38.232266    3.612764   -1.671078
     66          1           0       36.618719    3.659774   -2.462826
     67          1           0       38.049026    2.703208   -3.045380
     68          1           0       37.901685   -0.712008    0.063560
     69          1           0       39.113922    0.313011   -0.694114
     70          1           0       40.005105   -1.777998   -1.736566
     71          1           0       38.522125   -1.852946   -2.543815
     72          1           0       38.683356   -2.574873   -0.953781
     73          1           0       35.805070   -4.251674   -2.768600
     74          1           0       34.193580   -5.091139   -2.746724
     75          1           0       35.209190   -5.221166   -1.297313
     76          1           0       31.137721   -4.103467    1.610562
     77          1           0       27.787359   -4.780328   -1.720493
     78          1           0       27.369856   -3.191834   -2.054047
     79          1           0       27.139507   -3.746290   -0.349264
     80         12           0      -33.142045   -0.461947   -0.767006
     81          6           0      -30.229547    1.356636    0.132200
     82          6           0      -31.642629   -3.273637    0.651894
     83          6           0      -36.172376   -1.726207   -0.532741
     84          6           0      -34.525007    2.744623   -1.866684
     85          7           0      -31.195297   -0.825622    0.522850
     86          6           0      -30.111873   -0.010732    0.487352
     87          6           0      -28.896242   -0.769062    0.989382
     88          6           0      -29.175966   -2.219942    0.597051
     89          6           0      -30.786505   -2.134451    0.640162
     90          6           0      -28.724818   -2.703627   -0.782389
     91          6           0      -28.679528   -0.465846    2.535969
     92          6           0      -27.264575   -0.189362    2.862146
     93          1           0      -26.697516   -0.803694    4.156755
     94          7           0      -33.880239   -2.275665    0.012661
     95          6           0      -33.074609   -3.342789    0.481916
     96          6           0      -33.974934   -4.422983    0.797776
     97          6           0      -35.295300   -4.084945    0.398784
     98          6           0      -35.201491   -2.649432   -0.047725
     99          6           0      -33.451442   -5.717473    1.411930
    100          6           0      -36.498245   -4.929137    0.553119
    101          8           0      -36.379393   -6.039104    1.057080
    102          6           0      -37.909265   -4.551721    0.241471
    103          7           0      -35.138714    0.496655   -1.080474
    104          6           0      -36.160692   -0.382079   -1.092895
    105          6           0      -37.438809    0.277893   -1.641253
    106          6           0      -36.900867    1.699100   -2.233677
    107          6           0      -35.426711    1.661918   -1.754089
    108          6           0      -38.283836   -0.638667   -2.635947
    109          6           0      -37.701954    2.961331   -1.785211
    110          6           0      -37.125012    3.808177   -0.599950
    111          7           0      -32.569279    1.553277   -0.870246
    112          6           0      -33.219305    2.703850   -1.400820
    113          6           0      -32.201766    3.840264   -1.484185
    114          6           0      -31.086656    3.317002   -0.849397
    115          6           0      -31.357505    1.940526   -0.520622
    116          6           0      -32.285535    5.275979   -2.037297
    117          6           0      -29.737706    3.596677   -0.471622
    118          8           0      -29.042704    4.593819   -0.673544
    119          6           0      -29.275918    2.398315    0.277994
    120          6           0      -29.226635    2.900983    1.738984
    121          8           0      -30.173725    3.044073    2.509384
    122          8           0      -27.875305    3.247141    2.017837
    123          6           0      -27.583814    3.849170    3.255146
    124          1           0      -31.198020   -4.210845    0.993481
    125          1           0      -37.103475   -2.294556   -0.578133
    126          1           0      -34.796366    3.703537   -2.311571
    127          1           0      -27.980522   -0.519166    0.453765
    128          1           0      -28.815314   -3.039486    1.217584
    129          1           0      -27.956351   -2.079645   -1.237774
    130          1           0      -29.574020   -2.966850   -1.413475
    131          1           0      -28.224577   -3.642548   -0.542312
    132          1           0      -28.969350   -1.348535    3.106128
    133          1           0      -29.367244    0.272703    2.948044
    134          1           0      -27.255692    0.899756    2.885817
    135          1           0      -26.648168   -0.551828    2.039627
    136          1           0      -33.416251   -6.541551    0.699626
    137          1           0      -34.039571   -5.944399    2.299947
    138          1           0      -32.427555   -5.582922    1.761017
    139          1           0      -38.003177   -4.452491   -0.840212
    140          1           0      -38.273508   -3.638785    0.714205
    141          1           0      -38.591043   -5.387176    0.395808
    142          1           0      -38.006207    0.494373   -0.736353
    143          1           0      -36.847381    1.622334   -3.319130
    144          1           0      -38.084658   -1.695712   -2.460181
    145          1           0      -38.270322   -0.415691   -3.703471
    146          1           0      -39.306301   -0.311516   -2.440777
    147          1           0      -38.740341    2.731505   -1.547777
    148          1           0      -37.659928    3.584232   -2.678376
    149          1           0      -38.094157    4.128022   -0.216406
    150          1           0      -36.523797    4.685416   -0.839889
    151          1           0      -36.636591    3.118670    0.088924
    152          1           0      -31.538592    5.440098   -2.813200
    153          1           0      -31.893746    5.774422   -1.151155
    154          1           0      -33.336544    5.494293   -2.225297
    155          1           0      -28.266512    2.137583   -0.040359
    156          1           0      -26.532848    4.101272    3.401997
    157          1           0      -27.868449    3.143281    4.034386
    158          1           0      -28.187810    4.756778    3.273621
 ---------------------------------------------------------------------

 SCF Done:  E(RPBE1PBE) =  -4067.31973040     A.U. after   17 cycles

 Excitation energies and oscillator strengths:

 Excited State   1:      Singlet-A      1.7987 eV  689.32 nm  f=0.3457  <S**2>=0.000
     309 -> 316        0.16141
     311 -> 313        0.69480
     311 <- 313       -0.10915
 This state for optimization and/or second-order correction.
 Total Energy, E(TD-HF/TD-DFT) =  -4067.25363094
 Copying the excited state density for this state as the 1-particle RhoCI density.

 Excited State   2:      Singlet-A      1.8406 eV  673.61 nm  f=0.3477  <S**2>=0.000
     310 -> 315        0.18911
     312 -> 314        0.68697

 Excited State   3:      Singlet-A      1.9674 eV  630.18 nm  f=0.0000  <S**2>=0.000
     312 -> 313        0.70711

 Excited State   4:      Singlet-A      2.0332 eV  609.80 nm  f=0.0000  <S**2>=0.000
     311 -> 314        0.70711

 Excited State   5:      Singlet-A      2.1946 eV  564.95 nm  f=0.0654  <S**2>=0.000
     310 -> 314        0.63433
     312 -> 315       -0.29979

 The electronic state is 1-A.
 Alpha  occ. eigenvalues --  -46.94684 -46.92581 -19.26295 -19.25361 -19.21583
 Alpha  occ. eigenvalues --  -19.19439 -19.19411 -19.19081 -19.18462 -19.17831
 Alpha  occ. eigenvalues --  -14.41877 -14.41508 -14.41504 -14.41462 -14.39863
 Alpha  occ. eigenvalues --  -14.39737 -14.39454 -14.38443 -10.37645 -10.35830
 Alpha  occ. eigenvalues --  -10.32607 -10.31625 -10.31480 -10.31293 -10.29762
 Alpha  occ. eigenvalues --  -10.29630 -10.29232 -10.29208 -10.29011 -10.29007
 Alpha  occ. eigenvalues --  -10.28995 -10.28701 -10.28604 -10.28305 -10.28237
 Alpha  occ. eigenvalues --  -10.28187 -10.28106 -10.27879 -10.27878 -10.27066
 Alpha  occ. eigenvalues --  -10.27003 -10.26644 -10.26621 -10.26513 -10.26368
 Alpha  occ. eigenvalues --  -10.26353 -10.26228 -10.26192 -10.26152 -10.26143
 Alpha  occ. eigenvalues --  -10.26092 -10.25921 -10.25899 -10.25671 -10.25656
 Alpha  occ. eigenvalues --  -10.25459 -10.25415 -10.25350 -10.25344 -10.25333
 Alpha  occ. eigenvalues --  -10.25311 -10.25220 -10.25196 -10.25169 -10.25134
 Alpha  occ. eigenvalues --  -10.25079 -10.24889 -10.24738 -10.24620 -10.24616
 Alpha  occ. eigenvalues --  -10.24543 -10.24421 -10.24344 -10.24298 -10.23912
 Alpha  occ. eigenvalues --  -10.23854 -10.23831 -10.23817 -10.23761 -10.23760
 Alpha  occ. eigenvalues --  -10.23616 -10.23108 -10.23098 -10.22770 -10.22645
 Alpha  occ. eigenvalues --  -10.22550  -3.16472  -3.14733  -1.89249  -1.88896
 Alpha  occ. eigenvalues --   -1.88648  -1.87560  -1.87121  -1.86948  -1.10813
 Alpha  occ. eigenvalues --   -1.10545  -1.06410  -1.04267  -1.04129  -1.03443
 Alpha  occ. eigenvalues --   -1.03117  -1.01675  -1.01371  -0.99068  -0.98799
 Alpha  occ. eigenvalues --   -0.98532  -0.98058  -0.97692  -0.97474  -0.95975
 Alpha  occ. eigenvalues --   -0.88748  -0.87068  -0.84096  -0.83434  -0.83010
 Alpha  occ. eigenvalues --   -0.82933  -0.82524  -0.82085  -0.81637  -0.81548
 Alpha  occ. eigenvalues --   -0.81197  -0.81171  -0.80797  -0.79904  -0.79061
 Alpha  occ. eigenvalues --   -0.78511  -0.78195  -0.77940  -0.76973  -0.76535
 Alpha  occ. eigenvalues --   -0.75868  -0.75865  -0.75171  -0.75139  -0.74700
 Alpha  occ. eigenvalues --   -0.74619  -0.72822  -0.72355  -0.71959  -0.71579
 Alpha  occ. eigenvalues --   -0.71192  -0.71101  -0.70351  -0.70332  -0.69784
 Alpha  occ. eigenvalues --   -0.69573  -0.67214  -0.67174  -0.66623  -0.66315
 Alpha  occ. eigenvalues --   -0.64899  -0.64266  -0.63643  -0.63164  -0.62584
 Alpha  occ. eigenvalues --   -0.62034  -0.61690  -0.61345  -0.61243  -0.59832
 Alpha  occ. eigenvalues --   -0.59791  -0.59442  -0.59436  -0.59206  -0.59095
 Alpha  occ. eigenvalues --   -0.59053  -0.57071  -0.56761  -0.54931  -0.54477
 Alpha  occ. eigenvalues --   -0.54320  -0.54218  -0.53909  -0.53734  -0.53388
 Alpha  occ. eigenvalues --   -0.53288  -0.52911  -0.52579  -0.51583  -0.51438
 Alpha  occ. eigenvalues --   -0.51285  -0.50778  -0.50647  -0.50569  -0.50298
 Alpha  occ. eigenvalues --   -0.50230  -0.49539  -0.49426  -0.49144  -0.48826
 Alpha  occ. eigenvalues --   -0.48284  -0.48276  -0.47949  -0.47642  -0.47543
 Alpha  occ. eigenvalues --   -0.47311  -0.47151  -0.46799  -0.46734  -0.46473
 Alpha  occ. eigenvalues --   -0.46458  -0.46289  -0.46200  -0.45980  -0.45925
 Alpha  occ. eigenvalues --   -0.45808  -0.45784  -0.45369  -0.45163  -0.44803
 Alpha  occ. eigenvalues --   -0.44780  -0.44764  -0.44507  -0.44500  -0.44135
 Alpha  occ. eigenvalues --   -0.44017  -0.43879  -0.43799  -0.43642  -0.43605
 Alpha  occ. eigenvalues --   -0.43315  -0.43149  -0.42968  -0.42920  -0.42512
 Alpha  occ. eigenvalues --   -0.42430  -0.42369  -0.42204  -0.42019  -0.41840
 Alpha  occ. eigenvalues --   -0.41622  -0.41584  -0.41431  -0.41044  -0.41023
 Alpha  occ. eigenvalues --   -0.40798  -0.40661  -0.40630  -0.40597  -0.40534
 Alpha  occ. eigenvalues --   -0.40531  -0.40182  -0.40075  -0.40062  -0.39901
 Alpha  occ. eigenvalues --   -0.39783  -0.39478  -0.39296  -0.39225  -0.39216
 Alpha  occ. eigenvalues --   -0.39122  -0.38918  -0.38917  -0.38708  -0.38548
 Alpha  occ. eigenvalues --   -0.38321  -0.38320  -0.38133  -0.38036  -0.37819
 Alpha  occ. eigenvalues --   -0.37562  -0.37460  -0.37256  -0.37045  -0.37001
 Alpha  occ. eigenvalues --   -0.36904  -0.36803  -0.36413  -0.36244  -0.36150
 Alpha  occ. eigenvalues --   -0.36124  -0.35858  -0.35765  -0.35749  -0.35355
 Alpha  occ. eigenvalues --   -0.34976  -0.34949  -0.34603  -0.34069  -0.33626
 Alpha  occ. eigenvalues --   -0.33509  -0.33283  -0.33243  -0.32898  -0.32673
 Alpha  occ. eigenvalues --   -0.32623  -0.31915  -0.31808  -0.31589  -0.31503
 Alpha  occ. eigenvalues --   -0.31308  -0.30792  -0.30199  -0.30032  -0.29439
 Alpha  occ. eigenvalues --   -0.29085  -0.28964  -0.28384  -0.26844  -0.26753
 Alpha  occ. eigenvalues --   -0.26287  -0.26248  -0.26105  -0.25867  -0.25343
 Alpha  occ. eigenvalues --   -0.25235  -0.24847  -0.24748  -0.21039  -0.20995
 Alpha  occ. eigenvalues --   -0.18752  -0.18751
 Alpha virt. eigenvalues --   -0.11321  -0.11081  -0.06000  -0.05333  -0.04375
 Alpha virt. eigenvalues --   -0.03993  -0.03139  -0.02274  -0.02188  -0.00808
 Alpha virt. eigenvalues --    0.00105   0.00242   0.00790   0.01193   0.01678

 Mulliken charges:
               1
     1  Mg  12.000623
     2  C    6.013059
     3  C    5.992561
     4  C    5.984910
     5  C    6.003295
     6  N    7.008280
     7  C    5.966035
     8  C    6.010358
     9  C    5.986214
    10  C    6.031760
    11  C    5.996974
    12  C    5.998929
    13  C    6.002206
    14  H    0.991109
    15  N    6.995427
    16  C    6.035662
    17  C    6.022288
    18  C    6.013419
    19  C    6.029208
    20  C    5.996181
    21  C    6.009271
    22  O    8.018929
    23  C    5.998433
    24  N    7.000543
    25  C    6.029046
    26  C    5.991745
    27  C    6.010054
    28  C    5.965739
    29  C    5.997323
    30  C    6.006326
    31  C    6.001351
    32  N    6.999713
    33  C    5.973084
    34  C    5.968266
    35  C    6.000278
    36  C    5.975495
    37  C    5.999152
    38  C    5.984208
    39  O    7.971082
    40  C    6.001396
    41  C    5.995977
    42  O    7.993210
    43  O    8.000872
    44  C    6.000812
    45  H    1.010293
    46  H    1.006215
    47  H    0.991685
    48  H    1.002853
    49  H    1.005166
    50  H    1.003432
    51  H    1.015029
    52  H    0.999588
    53  H    0.989342
    54  H    1.004973
    55  H    1.002074
    56  H    1.000462
    57  H    1.017266
    58  H    1.017208
    59  H    1.016913
    60  H    1.010588
    61  H    1.011013
    62  H    1.010744
    63  H    0.998014
    64  H    0.998389
    65  H    0.999986
    66  H    0.994137
    67  H    1.008783
    68  H    0.997208
    69  H    0.988151
    70  H    0.994274
    71  H    1.001512
    72  H    1.003527
    73  H    0.982795
    74  H    0.984994
    75  H    0.982990
    76  H    0.991679
    77  H    1.000067
    78  H    0.993714
    79  H    0.994134
    80  Mg  12.000012
    81  C    6.000007
    82  C    6.000036
    83  C    6.000020
    84  C    5.999998
    85  N    7.000027
    86  C    5.999954
    87  C    6.000008
    88  C    5.999986
    89  C    6.000006
    90  C    5.999992
    91  C    6.000007
    92  C    6.000001
    93  H    0.999987
    94  N    6.999981
    95  C    6.000056
    96  C    6.000000
    97  C    5.999995
    98  C    6.000059
    99  C    5.999994
   100  C    6.000043
   101  O    8.000067
   102  C    5.999995
   103  N    6.999999
   104  C    6.000048
   105  C    5.999979
   106  C    6.000028
   107  C    5.999961
   108  C    5.999997
   109  C    6.000003
   110  C    6.000016
   111  N    7.000008
   112  C    5.999947
   113  C    5.999911
   114  C    6.000043
   115  C    5.999944
   116  C    5.999999
   117  C    5.999918
   118  O    7.999925
   119  C    6.000018
   120  C    5.999977
   121  O    7.999995
   122  O    8.000003
   123  C    6.000012
   124  H    1.000028
   125  H    1.000007
   126  H    0.999972
   127  H    1.000000
   128  H    1.000007
   129  H    1.000034
   130  H    1.000001
   131  H    1.000014
   132  H    0.999976
   133  H    1.000002
   134  H    1.000003
   135  H    0.999997
   136  H    1.000064
   137  H    1.000045
   138  H    1.000047
   139  H    1.000031
   140  H    1.000025
   141  H    1.000040
   142  H    0.999998
   143  H    0.999986
   144  H    0.999985
   145  H    1.000015
   146  H    1.000009
   147  H    0.999973
   148  H    0.999998
   149  H    0.999976
   150  H    1.000002
   151  H    0.999997
   152  H    0.999955
   153  H    0.999961
   154  H    0.999960
   155  H    0.999970
   156  H    0.999977
   157  H    0.999989
   158  H    0.999993
 Sum of Mulliken charges = 624.00000

 Dipole moment (field-independent basis, Debye):
    X=             -1.6420    Y=              9.6885    Z=              2.1939  Tot=             10.0686
 Quadrupole moment (field-independent basis, Debye-Ang):
   XX=           -108.8548   YY=              8.7140   ZZ=             -2.3890
   XY=            319.9337   XZ=             73.9801   YZ=              0.0004

 Normal termination of Gaussian 16 at Fri Oct 15 07:51:02 2021.
