 Gaussian 16, Revision A.03,
 Gaussian 16:  ES64L-G16RevA.03 25-Dec-2016

 --------------------------------------------------------
 #p PBE1PBE/Def2SVP td=(nstates=5) density=(transition=1)
 --------------------------------------------------------

 --------------------------------
 TDDFT excited states in gaussian
 --------------------------------
 Symbolic Z-matrix:
 Charge =  0 Multiplicity = 1

                         Standard orientation:
 ---------------------------------------------------------------------
 Center     Atomic      Atomic             Coordinates (Angstroms)
 Number     Number       Type             X           Y           Z
 ---------------------------------------------------------------------
      1         12           0      -13.393821   -0.397574    0.272436
      2          6           0      -12.983426    2.892046   -0.668845
      3          6           0      -12.044814    0.442730    3.302471
      4          6           0      -13.521245   -3.668663    1.101983
      5          6           0      -14.194936   -1.238729   -3.004728
      6          7           0      -12.479758    1.508568    1.104321
      7          6           0      -12.604118    2.696121    0.650723
      8          6           0      -12.101433    3.892687    1.611930
      9          6           0      -11.520760    3.003633    2.781551
     10          6           0      -11.956396    1.518181    2.369332
     11          6           0       -9.909407    3.024160    2.923703
     12          6           0      -13.227352    4.914642    2.076928
     13          6           0      -12.801665    6.403636    2.334426
     14          1           0      -11.329867    6.684889    2.370934
     15          7           0      -12.947017   -1.436316    1.940391
     16          6           0      -12.452252   -0.899249    3.193364
     17          6           0      -12.368777   -2.006577    4.140011
     18          6           0      -12.685450   -3.223071    3.485556
     19          6           0      -13.115124   -2.807010    2.131343
     20          6           0      -12.007836   -1.670058    5.542054
     21          6           0      -12.740711   -4.677200    4.009694
     22          8           0      -12.925455   -5.652401    3.344057
     23          6           0      -12.347804   -4.848609    5.491016
     24          7           0      -13.692618   -2.267730   -0.783322
     25          6           0      -13.700151   -3.454827   -0.264653
     26          6           0      -13.765155   -4.560122   -1.356593
     27          6           0      -14.094138   -3.780864   -2.652492
     28          6           0      -14.014608   -2.321670   -2.145355
     29          6           0      -12.443684   -5.355177   -1.420590
     30          6           0      -15.463965   -4.198662   -3.269899
     31          6           0      -15.486824   -5.593752   -3.915174
     32          7           0      -13.571006    0.598256   -1.525789
     33          6           0      -14.006231    0.124734   -2.750778
     34          6           0      -14.087386    1.264879   -3.625365
     35          6           0      -13.659324    2.418375   -2.902369
     36          6           0      -13.399175    1.896367   -1.605980
     37          6           0      -14.462698    1.216900   -4.990755
     38          6           0      -13.471004    3.834065   -2.888873
     39          8           0      -13.557520    4.649382   -3.854974
     40          6           0      -12.907819    4.160166   -1.451405
     41          6           0      -11.599508    4.754188   -1.625320
     42          8           0      -10.564223    4.114746   -1.809842
     43          8           0      -11.779158    6.112095   -1.698378
     44          6           0      -10.565310    6.834815   -2.133541
     45          1           0      -11.594111    0.675305    4.269070
     46          1           0      -13.560948   -4.703824    1.449370
     47          1           0      -14.520012   -1.545285   -4.001586
     48          1           0      -11.286729    4.345069    1.045929
     49          1           0      -11.921995    3.335986    3.738765
     50          1           0       -9.493571    3.370291    1.977034
     51          1           0       -9.547624    2.019334    3.141186
     52          1           0       -9.501497    3.653735    3.715165
     53          1           0      -13.570247    4.499927    3.024465
     54          1           0      -14.181187    4.856096    1.551517
     55          1           0      -13.209389    6.824658    3.253368
     56          1           0      -13.143149    7.017936    1.501233
     57          1           0      -10.924983   -1.615151    5.657529
     58          1           0      -12.528091   -2.285930    6.275768
     59          1           0      -12.412126   -0.677592    5.739784
     60          1           0      -13.102987   -4.514941    6.203362
     61          1           0      -11.434031   -4.257091    5.537978
     62          1           0      -12.051118   -5.853300    5.790660
     63          1           0      -14.616333   -5.158029   -1.031733
     64          1           0      -13.285536   -3.911421   -3.371633
     65          1           0      -11.559154   -4.833839   -1.053991
     66          1           0      -12.073057   -5.655163   -2.401330
     67          1           0      -12.616019   -6.245165   -0.815412
     68          1           0      -15.714533   -3.501551   -4.068295
     69          1           0      -16.244401   -4.135886   -2.510804
     70          1           0      -14.523705   -6.063599   -3.715755
     71          1           0      -15.433036   -5.480005   -4.997992
     72          1           0      -16.329854   -6.254648   -3.715081
     73          1           0      -15.332003    0.559498   -5.010240
     74          1           0      -13.733874    0.787181   -5.677772
     75          1           0      -14.605490    2.238066   -5.345711
     76          1           0      -13.598587    4.921735   -1.088575
     77          1           0      -10.389052    6.532273   -3.166157
     78          1           0       -9.737049    6.694806   -1.439723
     79          1           0      -10.805047    7.898231   -2.129526
     80         12           0       12.468508   -0.633835   -0.182682
     81          6           0       15.077507    1.542981   -0.173122
     82          6           0       10.162178    1.788361    0.664007
     83          6           0       10.039278   -3.043543   -0.058118
     84          6           0       14.841409   -3.327562   -0.634413
     85          7           0       12.659975    1.368696    0.397371
     86          6           0       13.815034    2.158706    0.078613
     87          6           0       13.497134    3.599843    0.121073
     88          6           0       12.047880    3.581377    0.785547
     89          6           0       11.546452    2.162860    0.630725
     90          6           0       12.055631    4.018624    2.335045
     91          6           0       13.689303    4.351622   -1.231878
     92          6           0       14.389390    5.668866   -1.135872
     93          1           0       14.011202    6.567751    0.106651
     94          7           0       10.369743   -0.615114    0.174260
     95          6           0        9.670258    0.504101    0.515499
     96          6           0        8.305428    0.128469    0.658246
     97          6           0        8.186660   -1.286498    0.366730
     98          6           0        9.582750   -1.743505    0.056993
     99          6           0        7.226964    1.118914    1.149111
    100          6           0        7.020777   -2.222371    0.294591
    101          8           0        7.028053   -3.448644    0.138825
    102          6           0        5.605468   -1.535445    0.380961
    103          7           0       12.440122   -2.938170   -0.222570
    104          6           0       11.325868   -3.625896   -0.253873
    105          6           0       11.550343   -5.080952   -0.660149
    106          6           0       13.093743   -5.151004   -0.840157
    107          6           0       13.506855   -3.713561   -0.530148
    108          6           0       11.003619   -6.146255    0.420175
    109          6           0       13.415402   -5.569539   -2.342350
    110          6           0       13.083724   -4.624193   -3.523377
    111          7           0       14.557929   -0.888582   -0.207670
    112          6           0       15.331454   -2.008148   -0.449425
    113          6           0       16.719422   -1.528112   -0.607216
    114          6           0       16.731205   -0.167732   -0.531262
    115          6           0       15.353337    0.174812   -0.278684
    116          6           0       17.909831   -2.421930   -0.668878
    117          6           0       17.537804    1.051530   -0.579256
    118          8           0       18.735694    1.216731   -0.738002
    119          6           0       16.463531    2.200238   -0.334791
    120          6           0       16.827612    2.874337    0.928022
    121          8           0       16.979160    2.364602    2.051932
    122          8           0       16.971471    4.199669    0.570736
    123          6           0       17.155796    5.117200    1.702729
    124          1           0        9.393754    2.533591    0.879214
    125          1           0        9.199517   -3.739808   -0.119611
    126          1           0       15.562975   -4.117876   -0.848771
    127          1           0       14.230202    4.016220    0.813137
    128          1           0       11.409107    4.251854    0.211431
    129          1           0       12.981066    4.502069    2.648017
    130          1           0       12.058752    3.091394    2.907878
    131          1           0       11.128405    4.580025    2.442095
    132          1           0       12.717483    4.538707   -1.688766
    133          1           0       14.297522    3.653400   -1.806731
    134          1           0       14.158468    6.335896   -1.965511
    135          1           0       15.476847    5.740741   -1.159593
    136          1           0        6.879008    1.844803    0.414280
    137          1           0        7.704395    1.565779    2.021004
    138          1           0        6.280661    0.633701    1.387270
    139          1           0        5.431360   -1.214039    1.407873
    140          1           0        4.883895   -2.192023   -0.104841
    141          1           0        5.500195   -0.668686   -0.271854
    142          1           0       11.069464   -5.248037   -1.623670
    143          1           0       13.577583   -5.875654   -0.185202
    144          1           0       10.099537   -6.573288   -0.015332
    145          1           0       10.741434   -5.638448    1.348905
    146          1           0       11.612626   -7.010325    0.682790
    147          1           0       13.025105   -6.541426   -2.643913
    148          1           0       14.504875   -5.607589   -2.314756
    149          1           0       14.071913   -4.384885   -3.916451
    150          1           0       12.513643   -3.748883   -3.214553
    151          1           0       12.483959   -5.088491   -4.306165
    152          1           0       18.589992   -1.865024   -1.312609
    153          1           0       17.679428   -3.408824   -1.070628
    154          1           0       18.414928   -2.352480    0.293643
    155          1           0       16.710116    2.849417   -1.174531
    156          1           0       17.361680    6.061353    1.197628
    157          1           0       18.068398    4.792447    2.202531
    158          1           0       16.367497    5.106186    2.455715
 ---------------------------------------------------------------------

 SCF Done:  E(RPBE1PBE) =  -4067.38664601     A.U. after   17 cycles

 Excitation energies and oscillator strengths:

 Excited State   1:      Singlet-A      1.8383 eV  674.47 nm  f=0.3781  <S**2>=0.000
     309 -> 315       -0.17976
     312 -> 313        0.69177
     312 <- 313       -0.10362
 This state for optimization and/or second-order correction.
 Total Energy, E(TD-HF/TD-DFT) =  -4067.31909130
 Copying the excited state density for this state as the 1-particle RhoCI density.

 Excited State   2:      Singlet-A      1.9096 eV  649.26 nm  f=0.3694  <S**2>=0.000
     310 -> 316        0.19445
     311 -> 314        0.68525

 Excited State   3:      Singlet-A      1.9585 eV  633.06 nm  f=0.0000  <S**2>=0.000
     312 -> 314        0.70710

 Excited State   4:      Singlet-A      1.9798 eV  626.25 nm  f=0.0000  <S**2>=0.000
     311 -> 313        0.70709

 Excited State   5:      Singlet-A      2.2084 eV  561.42 nm  f=0.1038  <S**2>=0.000
     310 -> 314        0.65634
     311 -> 316       -0.25142

 The electronic state is 1-A.
 Alpha  occ. eigenvalues --  -46.92639 -46.91843 -19.26360 -19.25508 -19.20557
 Alpha  occ. eigenvalues --  -19.20211 -19.19940 -19.19587 -19.19541 -19.18701
 Alpha  occ. eigenvalues --  -14.41970 -14.41632 -14.41575 -14.41104 -14.39354
 Alpha  occ. eigenvalues --  -14.39224 -14.39080 -14.38695 -10.36606 -10.35591
 Alpha  occ. eigenvalues --  -10.33264 -10.32713 -10.32657 -10.32083 -10.29636
 Alpha  occ. eigenvalues --  -10.29587 -10.29490 -10.29090 -10.28542 -10.28508
 Alpha  occ. eigenvalues --  -10.28424 -10.28231 -10.28202 -10.28152 -10.28108
 Alpha  occ. eigenvalues --  -10.28012 -10.27918 -10.27606 -10.27336 -10.26916
 Alpha  occ. eigenvalues --  -10.26863 -10.26795 -10.26776 -10.26737 -10.26728
 Alpha  occ. eigenvalues --  -10.26648 -10.26585 -10.26305 -10.26155 -10.26041
 Alpha  occ. eigenvalues --  -10.25879 -10.25748 -10.25629 -10.25572 -10.25466
 Alpha  occ. eigenvalues --  -10.25422 -10.25417 -10.25415 -10.25390 -10.25372
 Alpha  occ. eigenvalues --  -10.25323 -10.25178 -10.25082 -10.25002 -10.24967
 Alpha  occ. eigenvalues --  -10.24825 -10.24736 -10.24726 -10.24456 -10.24421
 Alpha  occ. eigenvalues --  -10.24256 -10.24219 -10.24084 -10.23723 -10.23632
 Alpha  occ. eigenvalues --  -10.23441 -10.23337 -10.23143 -10.23125 -10.23006
 Alpha  occ. eigenvalues --  -10.22991 -10.22938 -10.22864 -10.22660 -10.22433
 Alpha  occ. eigenvalues --  -10.22244  -3.14628  -3.14033  -1.87471  -1.86992
 Alpha  occ. eigenvalues --   -1.86867  -1.86851  -1.86412  -1.86260  -1.10776
 Alpha  occ. eigenvalues --   -1.10328  -1.07130  -1.05094  -1.04147  -1.02331
 Alpha  occ. eigenvalues --   -1.02081  -1.01631  -1.00043  -0.99768  -0.99009
 Alpha  occ. eigenvalues --   -0.98594  -0.98302  -0.97436  -0.96318  -0.95364
 Alpha  occ. eigenvalues --   -0.86984  -0.86825  -0.83634  -0.83403  -0.83099
 Alpha  occ. eigenvalues --   -0.82620  -0.82300  -0.82070  -0.81858  -0.81716
 Alpha  occ. eigenvalues --   -0.81340  -0.81254  -0.81130  -0.80398  -0.78949
 Alpha  occ. eigenvalues --   -0.78239  -0.77751  -0.77681  -0.76685  -0.76606
 Alpha  occ. eigenvalues --   -0.75881  -0.75847  -0.75482  -0.75398  -0.74616
 Alpha  occ. eigenvalues --   -0.74126  -0.72787  -0.72341  -0.71737  -0.71679
 Alpha  occ. eigenvalues --   -0.71473  -0.70711  -0.70156  -0.70086  -0.69312
 Alpha  occ. eigenvalues --   -0.69206  -0.66941  -0.66730  -0.66654  -0.65934
 Alpha  occ. eigenvalues --   -0.64185  -0.63772  -0.63651  -0.63175  -0.62845
 Alpha  occ. eigenvalues --   -0.62707  -0.61832  -0.61374  -0.60229  -0.59828
 Alpha  occ. eigenvalues --   -0.59815  -0.59478  -0.59330  -0.59225  -0.58944
 Alpha  occ. eigenvalues --   -0.58668  -0.57129  -0.56186  -0.54829  -0.54504
 Alpha  occ. eigenvalues --   -0.54003  -0.54000  -0.53720  -0.53500  -0.53384
 Alpha  occ. eigenvalues --   -0.52933  -0.52508  -0.52494  -0.52188  -0.52114
 Alpha  occ. eigenvalues --   -0.50571  -0.50558  -0.50214  -0.50097  -0.49800
 Alpha  occ. eigenvalues --   -0.49533  -0.49449  -0.49139  -0.49034  -0.48597
 Alpha  occ. eigenvalues --   -0.48127  -0.47931  -0.47895  -0.47691  -0.47674
 Alpha  occ. eigenvalues --   -0.47388  -0.47184  -0.46983  -0.46916  -0.46785
 Alpha  occ. eigenvalues --   -0.46507  -0.46477  -0.46311  -0.46215  -0.45985
 Alpha  occ. eigenvalues --   -0.45654  -0.45627  -0.45469  -0.45401  -0.45320
 Alpha  occ. eigenvalues --   -0.44833  -0.44537  -0.44288  -0.44122  -0.43968
 Alpha  occ. eigenvalues --   -0.43747  -0.43612  -0.43475  -0.43261  -0.43204
 Alpha  occ. eigenvalues --   -0.43175  -0.43116  -0.43116  -0.42829  -0.42758
 Alpha  occ. eigenvalues --   -0.42505  -0.42487  -0.42343  -0.42088  -0.42004
 Alpha  occ. eigenvalues --   -0.41690  -0.41607  -0.41336  -0.41306  -0.41178
 Alpha  occ. eigenvalues --   -0.41042  -0.40880  -0.40741  -0.40607  -0.40405
 Alpha  occ. eigenvalues --   -0.40314  -0.39946  -0.39938  -0.39720  -0.39502
 Alpha  occ. eigenvalues --   -0.39304  -0.39216  -0.39098  -0.38959  -0.38752
 Alpha  occ. eigenvalues --   -0.38520  -0.38253  -0.38225  -0.38014  -0.37908
 Alpha  occ. eigenvalues --   -0.37808  -0.37738  -0.37681  -0.37654  -0.37610
 Alpha  occ. eigenvalues --   -0.37521  -0.37154  -0.37096  -0.37064  -0.36883
 Alpha  occ. eigenvalues --   -0.36857  -0.36649  -0.36519  -0.36502  -0.36429
 Alpha  occ. eigenvalues --   -0.36323  -0.36100  -0.35667  -0.35509  -0.35368
 Alpha  occ. eigenvalues --   -0.35180  -0.34732  -0.34709  -0.34479  -0.34344
 Alpha  occ. eigenvalues --   -0.33200  -0.32971  -0.32859  -0.32644  -0.32524
 Alpha  occ. eigenvalues --   -0.32151  -0.31993  -0.31739  -0.31531  -0.31479
 Alpha  occ. eigenvalues --   -0.31424  -0.31379  -0.29635  -0.29591  -0.29382
 Alpha  occ. eigenvalues --   -0.29122  -0.29019  -0.28626  -0.26987  -0.26876
 Alpha  occ. eigenvalues --   -0.26337  -0.26266  -0.25949  -0.25801  -0.25648
 Alpha  occ. eigenvalues --   -0.25434  -0.25420  -0.24989  -0.21298  -0.20642
 Alpha  occ. eigenvalues --   -0.18863  -0.18662
 Alpha virt. eigenvalues --   -0.11064  -0.10957  -0.05792  -0.05166  -0.04449
 Alpha virt. eigenvalues --   -0.04248  -0.02301  -0.02272  -0.00866  -0.00143
 Alpha virt. eigenvalues --    0.00066   0.00802   0.00839   0.01043   0.01477

 Mulliken charges:
               1
     1  Mg  11.999998
     2  C    6.000167
     3  C    5.999811
     4  C    5.999838
     5  C    6.000213
     6  N    7.000066
     7  C    5.999654
     8  C    6.000182
     9  C    5.999726
    10  C    6.000702
    11  C    5.999912
    12  C    6.000119
    13  C    5.999923
    14  H    1.000300
    15  N    6.999966
    16  C    6.000611
    17  C    6.000280
    18  C    6.000380
    19  C    6.000228
    20  C    5.999936
    21  C    6.000163
    22  O    8.000290
    23  C    5.999888
    24  N    6.999986
    25  C    6.000342
    26  C    5.999888
    27  C    6.000206
    28  C    5.999497
    29  C    5.999931
    30  C    6.000097
    31  C    5.999982
    32  N    7.000060
    33  C    5.999461
    34  C    5.999607
    35  C    5.999920
    36  C    5.999788
    37  C    6.000095
    38  C    5.999675
    39  O    7.999390
    40  C    6.000041
    41  C    5.999930
    42  O    8.000265
    43  O    7.999853
    44  C    6.000019
    45  H    1.000281
    46  H    0.999977
    47  H    0.999724
    48  H    1.000185
    49  H    0.999923
    50  H    1.000459
    51  H    1.000304
    52  H    1.000236
    53  H    0.999754
    54  H    0.999850
    55  H    0.999771
    56  H    0.999916
    57  H    1.000623
    58  H    1.000022
    59  H    1.000036
    60  H    0.999887
    61  H    1.000349
    62  H    1.000167
    63  H    0.999750
    64  H    1.000062
    65  H    1.000332
    66  H    1.000168
    67  H    0.999859
    68  H    0.999941
    69  H    0.999753
    70  H    1.000051
    71  H    0.999901
    72  H    0.999714
    73  H    0.999571
    74  H    0.999701
    75  H    0.999669
    76  H    0.999720
    77  H    1.000021
    78  H    1.000218
    79  H    0.999720
    80  Mg  11.996991
    81  C    5.979940
    82  C    6.019610
    83  C    6.003290
    84  C    5.983722
    85  N    6.997772
    86  C    6.034850
    87  C    5.988220
    88  C    6.010319
    89  C    5.965411
    90  C    6.000958
    91  C    5.997572
    92  C    5.995995
    93  H    1.008402
    94  N    7.007724
    95  C    5.963985
    96  C    5.978374
    97  C    5.983166
    98  C    5.975944
    99  C    6.000044
   100  C    5.988002
   101  O    7.969776
   102  C    6.004322
   103  N    6.996813
   104  C    5.974654
   105  C    6.008801
   106  C    5.989269
   107  C    6.032414
   108  C    6.001078
   109  C    5.997848
   110  C    5.995799
   111  N    6.997686
   112  C    6.042489
   113  C    6.025954
   114  C    6.003479
   115  C    6.030875
   116  C    5.998596
   117  C    6.017650
   118  O    8.026443
   119  C    6.001985
   120  C    6.002871
   121  O    8.004537
   122  O    8.001620
   123  C    5.998535
   124  H    0.992609
   125  H    0.993133
   126  H    1.008097
   127  H    1.001151
   128  H    0.999178
   129  H    0.986375
   130  H    0.999690
   131  H    1.000980
   132  H    1.011947
   133  H    0.994938
   134  H    1.003537
   135  H    0.996762
   136  H    0.980644
   137  H    0.985728
   138  H    0.987519
   139  H    0.991297
   140  H    0.986261
   141  H    0.992307
   142  H    0.999939
   143  H    1.002346
   144  H    1.002149
   145  H    1.003080
   146  H    0.991091
   147  H    1.009288
   148  H    0.995588
   149  H    0.994610
   150  H    1.008389
   151  H    1.006539
   152  H    1.014454
   153  H    1.017608
   154  H    1.019310
   155  H    1.007287
   156  H    1.004304
   157  H    1.001369
   158  H    1.006711
 Sum of Mulliken charges = 624.00000

 Dipole moment (field-independent basis, Debye):
    X=             10.3384    Y=              0.0664    Z=             -1.2570  Tot=             10.4147
 Quadrupole moment (field-independent basis, Debye-Ang):
   XX=            252.2842   YY=              2.5633   ZZ=              0.3664
   XY=             -4.6539   XZ=            -18.8337   YZ=              0.8973

 Normal termination of Gaussian 16 at Fri Oct 15 09:19:44 2021.
