 Gaussian 16, Revision A.03,
 Gaussian 16:  ES64L-G16RevA.03 25-Dec-2016

 --------------------------------------------------------
 #p PBE1PBE/Def2SVP td=(nstates=5) density=(transition=1)
 --------------------------------------------------------

 --------------------------------
 TDDFT excited states in gaussian
 --------------------------------
 Symbolic Z-matrix:
 Charge =  0 Multiplicity = 1

                         Standard orientation:
 ---------------------------------------------------------------------
 Center     Atomic      Atomic             Coordinates (Angstroms)
 Number     Number       Type             X           Y           Z
 ---------------------------------------------------------------------
      1         12           0      -27.517643   -0.575069   -0.268161
      2          6           0      -25.294413    2.403222   -0.244742
      3          6           0      -28.742575    0.726470    2.600541
      4          6           0      -29.155307   -3.288869   -0.237060
      5          6           0      -25.356170   -1.869874   -2.783203
      6          7           0      -27.012901    1.306188    1.016592
      7          6           0      -26.233779    2.412587    0.723299
      8          6           0      -26.463917    3.617388    1.642817
      9          6           0      -27.220520    2.890473    2.797153
     10          6           0      -27.704784    1.541712    2.137346
     11          6           0      -26.412327    2.640803    4.031412
     12          6           0      -27.189144    4.860245    1.026164
     13          6           0      -26.847997    6.210288    1.562561
     14          1           0      -28.014300    7.189010    1.655594
     15          7           0      -28.853531   -1.213466    1.009155
     16          6           0      -29.305019   -0.509936    2.145386
     17          6           0      -30.426445   -1.225034    2.682886
     18          6           0      -30.628618   -2.320686    1.735607
     19          6           0      -29.547390   -2.281479    0.818417
     20          6           0      -31.301633   -0.751528    3.901772
     21          6           0      -31.770160   -3.290337    1.766854
     22          8           0      -31.852493   -4.248649    0.960463
     23          6           0      -32.912765   -3.172099    2.708167
     24          7           0      -27.238344   -2.400065   -1.206994
     25          6           0      -28.091429   -3.414030   -1.048665
     26          6           0      -27.775399   -4.654073   -1.945039
     27          6           0      -26.861751   -3.947409   -3.014542
     28          6           0      -26.404841   -2.657175   -2.280336
     29          6           0      -26.999032   -5.764255   -1.166226
     30          6           0      -27.658792   -3.569527   -4.333117
     31          6           0      -28.455333   -4.662053   -5.076963
     32          7           0      -25.729791    0.109622   -1.347608
     33          6           0      -25.038862   -0.524643   -2.373793
     34          6           0      -23.923689    0.295023   -2.786415
     35          6           0      -24.010126    1.457938   -2.010425
     36          6           0      -25.071143    1.279164   -1.080770
     37          6           0      -22.982744    0.025988   -3.912281
     38          6           0      -23.391921    2.756266   -1.775762
     39          8           0      -22.472694    3.367747   -2.304032
     40          6           0      -24.330410    3.423741   -0.642134
     41          6           0      -23.422899    3.881945    0.395742
     42          8           0      -22.675732    3.180200    1.095438
     43          8           0      -23.191615    5.211406    0.187036
     44          6           0      -22.275574    5.904448    1.034987
     45          1           0      -29.189060    1.274224    3.433264
     46          1           0      -29.695596   -4.237261   -0.263944
     47          1           0      -24.739012   -2.313902   -3.567535
     48          1           0      -25.485811    3.932989    2.006489
     49          1           0      -28.152905    3.405341    3.026920
     50          1           0      -26.185324    1.574873    4.051525
     51          1           0      -27.017380    2.847136    4.914152
     52          1           0      -25.470013    3.179396    4.129787
     53          1           0      -28.252949    4.733022    1.224720
     54          1           0      -27.055349    4.809054   -0.054048
     55          1           0      -26.120725    6.590932    0.845705
     56          1           0      -26.224801    6.161436    2.455607
     57          1           0      -32.288147   -0.363703    3.649565
     58          1           0      -30.760669   -0.042103    4.527438
     59          1           0      -31.384768   -1.676868    4.473156
     60          1           0      -32.577250   -3.494977    3.694034
     61          1           0      -33.678803   -3.846534    2.324544
     62          1           0      -33.261465   -2.142026    2.642173
     63          1           0      -28.740573   -5.015904   -2.301063
     64          1           0      -25.965114   -4.494103   -3.304974
     65          1           0      -27.677809   -6.613598   -1.084982
     66          1           0      -26.595445   -5.472834   -0.197081
     67          1           0      -26.197796   -5.999929   -1.868077
     68          1           0      -26.944025   -3.221608   -5.078499
     69          1           0      -28.269576   -2.704107   -4.076647
     70          1           0      -29.480758   -4.292991   -5.090066
     71          1           0      -28.387397   -5.530935   -4.421713
     72          1           0      -28.103332   -4.817280   -6.096706
     73          1           0      -23.456308   -0.782284   -4.470011
     74          1           0      -22.053757   -0.311128   -3.452545
     75          1           0      -22.747437    0.902934   -4.515328
     76          1           0      -24.882788    4.258986   -1.072267
     77          1           0      -21.872831    5.254741    1.812332
     78          1           0      -22.871783    6.676254    1.521924
     79          1           0      -21.522417    6.434998    0.454173
     80         12           0       26.436986   -0.839887    0.320785
     81          6           0       26.860746    2.217439   -1.537166
     82          6           0       25.804891    0.956545    3.064702
     83          6           0       26.941260   -3.641730    2.088871
     84          6           0       27.580830   -2.521059   -2.537456
     85          7           0       26.403218    1.301472    0.701903
     86          6           0       26.407305    2.371292   -0.209336
     87          6           0       25.976562    3.719084    0.485268
     88          6           0       25.717274    3.270676    1.955393
     89          6           0       25.932623    1.734575    1.906270
     90          6           0       26.544893    3.922233    3.034060
     91          6           0       24.727600    4.437446   -0.258562
     92          6           0       24.949459    5.907068   -0.636901
     93          1           0       23.899309    6.895345   -0.006148
     94          7           0       26.242777   -1.309261    2.302669
     95          6           0       25.985993   -0.451270    3.295191
     96          6           0       25.959005   -1.123577    4.595335
     97          6           0       26.391135   -2.461703    4.295966
     98          6           0       26.564328   -2.529798    2.841163
     99          6           0       25.602181   -0.447380    5.848995
    100          6           0       26.698562   -3.537732    5.384300
    101          8           0       27.001000   -4.682933    5.093460
    102          6           0       26.620595   -3.252014    6.850131
    103          7           0       27.133509   -2.731683   -0.161313
    104          6           0       27.130712   -3.781444    0.750924
    105          6           0       27.536186   -5.125087    0.060710
    106          6           0       27.387994   -4.787859   -1.469861
    107          6           0       27.307232   -3.262688   -1.409074
    108          6           0       28.870527   -5.803900    0.511439
    109          6           0       26.123495   -5.396198   -2.135924
    110          6           0       26.234970   -5.943210   -3.536662
    111          7           0       27.142355   -0.297624   -1.629416
    112          6           0       27.564302   -1.091306   -2.658004
    113          6           0       27.769010   -0.217323   -3.894563
    114          6           0       27.456772    1.065137   -3.513076
    115          6           0       27.150275    0.979193   -2.111669
    116          6           0       28.127477   -0.787609   -5.247974
    117          6           0       27.362167    2.459987   -3.905430
    118          8           0       27.599770    2.880436   -5.057067
    119          6           0       27.043791    3.336467   -2.552527
    120          6           0       28.163467    4.257363   -2.114551
    121          8           0       29.316469    3.819204   -1.931640
    122          8           0       27.788230    5.601363   -2.131094
    123          6           0       28.939036    6.497016   -2.127925
    124          1           0       25.485394    1.470721    3.973317
    125          1           0       27.020452   -4.520025    2.732387
    126          1           0       27.812918   -3.125879   -3.417068
    127          1           0       26.864869    4.338445    0.362728
    128          1           0       24.726817    3.663167    2.189785
    129          1           0       27.285099    4.621189    2.644400
    130          1           0       27.127332    3.058573    3.353135
    131          1           0       25.947569    4.460543    3.770562
    132          1           0       23.919159    4.314569    0.461612
    133          1           0       24.428528    3.830675   -1.112833
    134          1           0       24.982302    5.945506   -1.725727
    135          1           0       25.924152    6.227865   -0.267036
    136          1           0       26.291620   -0.458649    6.692602
    137          1           0       24.826834   -1.077916    6.282663
    138          1           0       25.090635    0.508921    5.737691
    139          1           0       25.582093   -2.969584    7.027014
    140          1           0       27.228004   -2.363560    7.025026
    141          1           0       26.969355   -4.157779    7.344590
    142          1           0       26.732953   -5.807240    0.339354
    143          1           0       28.288889   -5.008022   -2.042104
    144          1           0       29.194791   -5.209911    1.365616
    145          1           0       29.617074   -5.892693   -0.277274
    146          1           0       28.699895   -6.774252    0.979344
    147          1           0       25.502668   -4.500923   -2.107860
    148          1           0       25.612137   -6.153469   -1.541305
    149          1           0       25.672790   -6.877099   -3.530133
    150          1           0       27.258645   -6.189607   -3.820423
    151          1           0       25.649114   -5.271985   -4.165104
    152          1           0       28.236318   -1.864771   -5.122896
    153          1           0       29.115462   -0.416700   -5.519847
    154          1           0       27.388984   -0.472243   -5.984768
    155          1           0       26.106374    3.871242   -2.705415
    156          1           0       29.103127    7.048164   -3.052850
    157          1           0       29.880138    6.012670   -1.867078
    158          1           0       28.750549    7.226466   -1.340641
 ---------------------------------------------------------------------

 SCF Done:  E(RPBE1PBE) =  -4067.36190814     A.U. after   17 cycles

 Excitation energies and oscillator strengths:

 Excited State   1:      Singlet-A      1.6845 eV  736.04 nm  f=0.0000  <S**2>=0.000
     312 -> 313        0.70711
 This state for optimization and/or second-order correction.
 Total Energy, E(TD-HF/TD-DFT) =  -4067.30000448
 Copying the excited state density for this state as the 1-particle RhoCI density.

 Excited State   2:      Singlet-A      1.8204 eV  681.09 nm  f=0.3615  <S**2>=0.000
     309 -> 316        0.15128
     311 -> 313        0.70060
     311 <- 313       -0.12604

 Excited State   3:      Singlet-A      1.8518 eV  669.54 nm  f=0.4082  <S**2>=0.000
     310 -> 315        0.16669
     312 -> 314        0.69630
     312 <- 314       -0.11426

 Excited State   4:      Singlet-A      2.2170 eV  559.25 nm  f=0.0000  <S**2>=0.000
     311 -> 314        0.70711

 Excited State   5:      Singlet-A      2.2899 eV  541.44 nm  f=0.0906  <S**2>=0.000
     310 -> 314        0.64391
     312 -> 315       -0.28550

 The electronic state is 1-A.
 Alpha  occ. eigenvalues --  -46.92343 -46.91807 -19.27234 -19.25390 -19.20966
 Alpha  occ. eigenvalues --  -19.20049 -19.20032 -19.19564 -19.18873 -19.17808
 Alpha  occ. eigenvalues --  -14.42064 -14.41682 -14.41231 -14.41100 -14.39421
 Alpha  occ. eigenvalues --  -14.39266 -14.39229 -14.39071 -10.37735 -10.36049
 Alpha  occ. eigenvalues --  -10.33549 -10.33061 -10.32191 -10.31242 -10.29284
 Alpha  occ. eigenvalues --  -10.29132 -10.28895 -10.28797 -10.28584 -10.28453
 Alpha  occ. eigenvalues --  -10.28388 -10.28332 -10.28295 -10.28254 -10.28007
 Alpha  occ. eigenvalues --  -10.28006 -10.27964 -10.27665 -10.27606 -10.27437
 Alpha  occ. eigenvalues --  -10.27373 -10.26870 -10.26727 -10.26719 -10.26467
 Alpha  occ. eigenvalues --  -10.26405 -10.26395 -10.26360 -10.26076 -10.26074
 Alpha  occ. eigenvalues --  -10.26038 -10.26025 -10.25782 -10.25769 -10.25746
 Alpha  occ. eigenvalues --  -10.25520 -10.25517 -10.25471 -10.25345 -10.25261
 Alpha  occ. eigenvalues --  -10.25205 -10.25137 -10.25112 -10.25044 -10.24868
 Alpha  occ. eigenvalues --  -10.24630 -10.24616 -10.24605 -10.24585 -10.24145
 Alpha  occ. eigenvalues --  -10.24063 -10.23595 -10.23528 -10.23526 -10.23501
 Alpha  occ. eigenvalues --  -10.23481 -10.23458 -10.23294 -10.23197 -10.23165
 Alpha  occ. eigenvalues --  -10.23093 -10.23052 -10.22984 -10.22934 -10.22884
 Alpha  occ. eigenvalues --  -10.22839  -3.14581  -3.14032  -1.87390  -1.86951
 Alpha  occ. eigenvalues --   -1.86854  -1.86826  -1.86391  -1.86283  -1.11235
 Alpha  occ. eigenvalues --   -1.10989  -1.04957  -1.04903  -1.03641  -1.02635
 Alpha  occ. eigenvalues --   -1.02293  -1.01726  -0.99682  -0.98616  -0.98570
 Alpha  occ. eigenvalues --   -0.98362  -0.97984  -0.97235  -0.97180  -0.96521
 Alpha  occ. eigenvalues --   -0.87989  -0.86874  -0.83764  -0.83432  -0.83145
 Alpha  occ. eigenvalues --   -0.83000  -0.82391  -0.82379  -0.81818  -0.81624
 Alpha  occ. eigenvalues --   -0.81565  -0.81176  -0.80556  -0.80387  -0.79002
 Alpha  occ. eigenvalues --   -0.78570  -0.78322  -0.77910  -0.77434  -0.76972
 Alpha  occ. eigenvalues --   -0.76383  -0.76164  -0.75492  -0.75488  -0.75119
 Alpha  occ. eigenvalues --   -0.74547  -0.72911  -0.72814  -0.71901  -0.71760
 Alpha  occ. eigenvalues --   -0.71620  -0.71202  -0.70565  -0.70475  -0.69843
 Alpha  occ. eigenvalues --   -0.69136  -0.67783  -0.66846  -0.65444  -0.65380
 Alpha  occ. eigenvalues --   -0.63664  -0.63411  -0.63054  -0.62783  -0.62574
 Alpha  occ. eigenvalues --   -0.62182  -0.61426  -0.61186  -0.60105  -0.59746
 Alpha  occ. eigenvalues --   -0.59606  -0.59517  -0.59471  -0.59405  -0.58992
 Alpha  occ. eigenvalues --   -0.58887  -0.57133  -0.56594  -0.55423  -0.54910
 Alpha  occ. eigenvalues --   -0.54365  -0.54270  -0.53987  -0.53332  -0.53283
 Alpha  occ. eigenvalues --   -0.53127  -0.52913  -0.52891  -0.52376  -0.51946
 Alpha  occ. eigenvalues --   -0.50851  -0.50416  -0.50158  -0.49922  -0.49639
 Alpha  occ. eigenvalues --   -0.49438  -0.49314  -0.49222  -0.48750  -0.48368
 Alpha  occ. eigenvalues --   -0.48255  -0.48155  -0.47858  -0.47695  -0.47324
 Alpha  occ. eigenvalues --   -0.47219  -0.47060  -0.47028  -0.46878  -0.46469
 Alpha  occ. eigenvalues --   -0.46425  -0.46192  -0.46039  -0.46031  -0.45914
 Alpha  occ. eigenvalues --   -0.45784  -0.45705  -0.45546  -0.45307  -0.44909
 Alpha  occ. eigenvalues --   -0.44893  -0.44563  -0.44418  -0.44366  -0.44129
 Alpha  occ. eigenvalues --   -0.44051  -0.43942  -0.43874  -0.43851  -0.43458
 Alpha  occ. eigenvalues --   -0.43394  -0.43290  -0.43004  -0.42975  -0.42818
 Alpha  occ. eigenvalues --   -0.42794  -0.42609  -0.42529  -0.42301  -0.41966
 Alpha  occ. eigenvalues --   -0.41901  -0.41692  -0.41509  -0.41272  -0.41170
 Alpha  occ. eigenvalues --   -0.41066  -0.40903  -0.40802  -0.40739  -0.40681
 Alpha  occ. eigenvalues --   -0.40427  -0.40105  -0.40083  -0.39936  -0.39649
 Alpha  occ. eigenvalues --   -0.39540  -0.39310  -0.39273  -0.39094  -0.38883
 Alpha  occ. eigenvalues --   -0.38851  -0.38803  -0.38598  -0.38507  -0.38418
 Alpha  occ. eigenvalues --   -0.38157  -0.37913  -0.37894  -0.37828  -0.37654
 Alpha  occ. eigenvalues --   -0.37606  -0.37531  -0.37454  -0.37051  -0.36866
 Alpha  occ. eigenvalues --   -0.36625  -0.36573  -0.36394  -0.36149  -0.35994
 Alpha  occ. eigenvalues --   -0.35717  -0.35655  -0.35534  -0.35517  -0.35071
 Alpha  occ. eigenvalues --   -0.34710  -0.34418  -0.34380  -0.34232  -0.34056
 Alpha  occ. eigenvalues --   -0.33568  -0.33292  -0.33124  -0.32808  -0.32781
 Alpha  occ. eigenvalues --   -0.32459  -0.32259  -0.32257  -0.31512  -0.31510
 Alpha  occ. eigenvalues --   -0.31132  -0.30693  -0.29848  -0.29812  -0.29633
 Alpha  occ. eigenvalues --   -0.29101  -0.28678  -0.28538  -0.27227  -0.27081
 Alpha  occ. eigenvalues --   -0.26356  -0.26284  -0.25874  -0.25759  -0.25603
 Alpha  occ. eigenvalues --   -0.25510  -0.25431  -0.24729  -0.21252  -0.21058
 Alpha  occ. eigenvalues --   -0.19318  -0.18446
 Alpha virt. eigenvalues --   -0.12011  -0.10927  -0.04841  -0.04437  -0.04278
 Alpha virt. eigenvalues --   -0.03941  -0.02253  -0.02249  -0.01689  -0.01029
 Alpha virt. eigenvalues --   -0.00796  -0.00480   0.00369   0.00921   0.01299

 Mulliken charges:
               1
     1  Mg  12.000000
     2  C    6.000000
     3  C    6.000000
     4  C    6.000000
     5  C    6.000000
     6  N    7.000000
     7  C    6.000000
     8  C    6.000000
     9  C    6.000000
    10  C    6.000000
    11  C    6.000000
    12  C    6.000000
    13  C    6.000000
    14  H    1.000000
    15  N    7.000000
    16  C    6.000000
    17  C    6.000000
    18  C    6.000000
    19  C    6.000000
    20  C    6.000000
    21  C    6.000000
    22  O    8.000000
    23  C    6.000000
    24  N    7.000000
    25  C    6.000000
    26  C    6.000000
    27  C    6.000000
    28  C    6.000000
    29  C    6.000000
    30  C    6.000000
    31  C    6.000000
    32  N    7.000000
    33  C    6.000000
    34  C    6.000000
    35  C    6.000000
    36  C    6.000000
    37  C    6.000000
    38  C    6.000000
    39  O    8.000000
    40  C    6.000000
    41  C    6.000000
    42  O    8.000000
    43  O    8.000000
    44  C    6.000000
    45  H    1.000000
    46  H    1.000000
    47  H    1.000000
    48  H    1.000000
    49  H    1.000000
    50  H    1.000000
    51  H    1.000000
    52  H    1.000000
    53  H    1.000000
    54  H    1.000000
    55  H    1.000000
    56  H    1.000000
    57  H    1.000000
    58  H    1.000000
    59  H    1.000000
    60  H    1.000000
    61  H    1.000000
    62  H    1.000000
    63  H    1.000000
    64  H    1.000000
    65  H    1.000000
    66  H    1.000000
    67  H    1.000000
    68  H    1.000000
    69  H    1.000000
    70  H    1.000000
    71  H    1.000000
    72  H    1.000000
    73  H    1.000000
    74  H    1.000000
    75  H    1.000000
    76  H    1.000000
    77  H    1.000000
    78  H    1.000000
    79  H    1.000000
    80  Mg  12.000000
    81  C    6.000000
    82  C    6.000000
    83  C    6.000000
    84  C    6.000000
    85  N    7.000000
    86  C    6.000000
    87  C    6.000000
    88  C    6.000000
    89  C    6.000000
    90  C    6.000000
    91  C    6.000000
    92  C    6.000000
    93  H    1.000000
    94  N    7.000000
    95  C    6.000000
    96  C    6.000000
    97  C    6.000000
    98  C    6.000000
    99  C    6.000000
   100  C    6.000000
   101  O    8.000000
   102  C    6.000000
   103  N    7.000000
   104  C    6.000000
   105  C    6.000000
   106  C    6.000000
   107  C    6.000000
   108  C    6.000000
   109  C    6.000000
   110  C    6.000000
   111  N    7.000000
   112  C    6.000000
   113  C    6.000000
   114  C    6.000000
   115  C    6.000000
   116  C    6.000000
   117  C    6.000000
   118  O    8.000000
   119  C    6.000000
   120  C    6.000000
   121  O    8.000000
   122  O    8.000000
   123  C    6.000000
   124  H    1.000000
   125  H    1.000000
   126  H    1.000000
   127  H    1.000000
   128  H    1.000000
   129  H    1.000000
   130  H    1.000000
   131  H    1.000000
   132  H    1.000000
   133  H    1.000000
   134  H    1.000000
   135  H    1.000000
   136  H    1.000000
   137  H    1.000000
   138  H    1.000000
   139  H    1.000000
   140  H    1.000000
   141  H    1.000000
   142  H    1.000000
   143  H    1.000000
   144  H    1.000000
   145  H    1.000000
   146  H    1.000000
   147  H    1.000000
   148  H    1.000000
   149  H    1.000000
   150  H    1.000000
   151  H    1.000000
   152  H    1.000000
   153  H    1.000000
   154  H    1.000000
   155  H    1.000000
   156  H    1.000000
   157  H    1.000000
   158  H    1.000000
 Sum of Mulliken charges = 624.00000

 Dipole moment (field-independent basis, Debye):
    X=              0.0000    Y=              0.0000    Z=             -0.0000  Tot=              0.0000
 Quadrupole moment (field-independent basis, Debye-Ang):
   XX=             -0.0000   YY=             -0.0000   ZZ=             -0.0000
   XY=              0.0000   XZ=             -0.0000   YZ=              0.0000

 Normal termination of Gaussian 16 at Thu Oct 14 02:13:08 2021.
