 Gaussian 16, Revision A.03,
 Gaussian 16:  ES64L-G16RevA.03 25-Dec-2016

 --------------------------------------------------------
 #p PBE1PBE/Def2SVP td=(nstates=5) density=(transition=1)
 --------------------------------------------------------

 --------------------------------
 TDDFT excited states in gaussian
 --------------------------------
 Symbolic Z-matrix:
 Charge =  0 Multiplicity = 1

                         Standard orientation:
 ---------------------------------------------------------------------
 Center     Atomic      Atomic             Coordinates (Angstroms)
 Number     Number       Type             X           Y           Z
 ---------------------------------------------------------------------
      1         12           0      -26.183656   -0.406170   -0.260517
      2          6           0      -24.348494    2.399900   -0.724057
      3          6           0      -27.425397    0.896576    2.710287
      4          6           0      -28.014293   -3.215556    0.205944
      5          6           0      -24.584024   -1.897413   -2.943876
      6          7           0      -25.965437    1.442229    0.724041
      7          6           0      -25.140007    2.471052    0.405330
      8          6           0      -25.381838    3.688555    1.258914
      9          6           0      -26.151811    3.106192    2.504508
     10          6           0      -26.572201    1.715964    1.924596
     11          6           0      -25.454052    3.058697    3.927757
     12          6           0      -26.289329    4.765368    0.510122
     13          6           0      -26.075850    6.208080    1.055871
     14          1           0      -25.618660    6.470664    2.500576
     15          7           0      -27.498949   -1.148013    1.291272
     16          6           0      -27.873298   -0.400709    2.438702
     17          6           0      -28.797164   -1.163246    3.223115
     18          6           0      -28.982827   -2.403441    2.514314
     19          6           0      -28.145437   -2.259833    1.270104
     20          6           0      -29.468824   -0.672575    4.457556
     21          6           0      -29.849249   -3.603959    2.878254
     22          8           0      -29.874199   -4.710136    2.263003
     23          6           0      -30.764302   -3.522351    4.088303
     24          7           0      -26.243461   -2.303853   -1.173929
     25          6           0      -27.230568   -3.258939   -0.925730
     26          6           0      -27.352103   -4.363968   -2.014496
     27          6           0      -26.212498   -3.823222   -3.047294
     28          6           0      -25.655142   -2.607206   -2.402812
     29          6           0      -27.041446   -5.726596   -1.381898
     30          6           0      -26.698589   -3.615396   -4.451377
     31          6           0      -25.909155   -4.376612   -5.477682
     32          7           0      -24.728911   -0.014580   -1.509821
     33          6           0      -24.159790   -0.669706   -2.594801
     34          6           0      -23.157739    0.139444   -3.183118
     35          6           0      -23.129878    1.369580   -2.472739
     36          6           0      -24.173098    1.284385   -1.526710
     37          6           0      -22.293169   -0.146015   -4.350572
     38          6           0      -22.421627    2.619296   -2.302376
     39          8           0      -21.445286    3.131729   -2.813875
     40          6           0      -23.286030    3.353051   -1.170590
     41          6           0      -22.436566    4.086843   -0.196344
     42          8           0      -21.416929    3.692449    0.309234
     43          8           0      -22.888314    5.320281    0.078906
     44          6           0      -22.062455    6.073096    1.065436
     45          1           0      -27.614690    1.319932    3.699046
     46          1           0      -28.505611   -4.162403    0.439127
     47          1           0      -24.114118   -2.248517   -3.864865
     48          1           0      -24.460863    4.091598    1.679841
     49          1           0      -27.087798    3.653327    2.612398
     50          1           0      -24.496366    3.570923    3.834489
     51          1           0      -25.290593    2.081092    4.378489
     52          1           0      -26.128934    3.563967    4.618914
     53          1           0      -27.306359    4.397030    0.645715
     54          1           0      -26.021583    4.732261   -0.546035
     55          1           0      -27.052805    6.662387    0.889736
     56          1           0      -25.424269    6.708159    0.339794
     57          1           0      -30.346914   -0.045474    4.302951
     58          1           0      -28.693519   -0.150409    5.016817
     59          1           0      -29.683708   -1.465647    5.173154
     60          1           0      -30.140157   -3.760815    4.949378
     61          1           0      -31.493980   -4.317913    3.939487
     62          1           0      -31.216448   -2.541851    4.238621
     63          1           0      -28.396550   -4.363092   -2.326542
     64          1           0      -25.421778   -4.571703   -3.108768
     65          1           0      -26.657870   -5.701982   -0.361701
     66          1           0      -26.426832   -6.303431   -2.072586
     67          1           0      -28.003508   -6.229099   -1.277661
     68          1           0      -26.618821   -2.580909   -4.785666
     69          1           0      -27.748759   -3.860444   -4.610608
     70          1           0      -26.536112   -4.932510   -6.174235
     71          1           0      -25.242422   -5.100170   -5.009357
     72          1           0      -25.258192   -3.623474   -5.922648
     73          1           0      -22.031725   -1.192740   -4.508687
     74          1           0      -21.319401    0.228156   -4.033236
     75          1           0      -22.722570    0.296494   -5.249470
     76          1           0      -23.744373    4.094737   -1.825395
     77          1           0      -21.152531    6.474629    0.617182
     78          1           0      -21.907903    5.507104    1.984211
     79          1           0      -22.634068    6.942524    1.391096
     80         12           0       25.422682   -0.795371    0.058044
     81          6           0       26.306572    2.425449   -0.981529
     82          6           0       24.660327    0.349970    3.037432
     83          6           0       25.305789   -4.025182    1.223574
     84          6           0       26.721745   -2.085251   -2.960922
     85          7           0       25.398752    1.162890    0.836486
     86          6           0       25.725842    2.374274    0.267906
     87          6           0       25.338419    3.542883    1.164827
     88          6           0       25.032969    2.814079    2.512669
     89          6           0       24.921349    1.388089    2.098578
     90          6           0       25.913675    3.066657    3.717276
     91          6           0       24.198592    4.452050    0.604068
     92          6           0       23.821811    5.646014    1.487955
     93          1           0       23.806755    7.004945    0.803427
     94          7           0       25.076538   -1.748440    1.992795
     95          6           0       24.630894   -1.064456    3.067172
     96          6           0       24.279809   -1.992622    4.106020
     97          6           0       24.569692   -3.280086    3.622359
     98          6           0       25.020772   -3.046493    2.223495
     99          6           0       23.766919   -1.578977    5.469256
    100          6           0       24.375348   -4.611514    4.270812
    101          8           0       24.789281   -5.719370    3.835873
    102          6           0       23.574734   -4.723432    5.562502
    103          7           0       25.959793   -2.728348   -0.735469
    104          6           0       25.876696   -3.879510   -0.028670
    105          6           0       26.142035   -5.141800   -1.013324
    106          6           0       26.124021   -4.460115   -2.426464
    107          6           0       26.204879   -3.010441   -2.069983
    108          6           0       27.506504   -5.828155   -0.613983
    109          6           0       24.736771   -4.677241   -3.134214
    110          6           0       23.457617   -4.329761   -2.388707
    111          7           0       26.308658   -0.004760   -1.726480
    112          6           0       26.760142   -0.681004   -2.826449
    113          6           0       27.238065    0.269071   -3.719883
    114          6           0       27.134838    1.545667   -3.096056
    115          6           0       26.559095    1.325337   -1.872461
    116          6           0       27.876923    0.067351   -5.048604
    117          6           0       27.386833    3.001853   -3.185529
    118          8           0       27.924948    3.715625   -4.024166
    119          6           0       26.752748    3.639634   -1.830651
    120          6           0       27.695764    4.615492   -1.222210
    121          8           0       28.957243    4.498834   -1.221648
    122          8           0       26.978053    5.669154   -0.856860
    123          6           0       27.754959    6.880877   -0.678490
    124          1           0       24.285586    0.685859    4.006682
    125          1           0       25.239457   -5.060205    1.567253
    126          1           0       26.993248   -2.507354   -3.929758
    127          1           0       26.218497    4.186142    1.152912
    128          1           0       24.040161    3.040787    2.902821
    129          1           0       26.517024    3.974326    3.704281
    130          1           0       26.553679    2.198726    3.878252
    131          1           0       25.283417    2.950435    4.599183
    132          1           0       23.315805    3.846489    0.397322
    133          1           0       24.499530    4.836286   -0.370013
    134          1           0       24.642337    5.924489    2.148995
    135          1           0       22.903364    5.453953    2.043418
    136          1           0       23.796133   -0.506964    5.663926
    137          1           0       24.371218   -1.894561    6.319393
    138          1           0       22.746469   -1.908295    5.667449
    139          1           0       24.155622   -4.254143    6.356017
    140          1           0       23.562076   -5.742797    5.947629
    141          1           0       22.545709   -4.376115    5.463054
    142          1           0       25.360520   -5.887765   -0.868763
    143          1           0       27.033458   -4.808488   -2.915974
    144          1           0       27.885907   -5.509856    0.357176
    145          1           0       28.325138   -5.629519   -1.305899
    146          1           0       27.432861   -6.908344   -0.496480
    147          1           0       24.810820   -5.748406   -3.322173
    148          1           0       24.636958   -4.185218   -4.101240
    149          1           0       23.674004   -4.152687   -1.334960
    150          1           0       22.618465   -5.011921   -2.520628
    151          1           0       23.119640   -3.436529   -2.914129
    152          1           0       27.284586   -0.524699   -5.746706
    153          1           0       28.783890   -0.499387   -4.840079
    154          1           0       28.167201    1.005498   -5.520479
    155          1           0       25.884309    4.190778   -2.190499
    156          1           0       27.232111    7.728339   -1.123582
    157          1           0       28.742397    6.894028   -1.139274
    158          1           0       27.827484    7.031633    0.399090
 ---------------------------------------------------------------------

 SCF Done:  E(RPBE1PBE) =  -4067.38923977     A.U. after   17 cycles

 Excitation energies and oscillator strengths:

 Excited State   1:      Singlet-A      1.8022 eV  687.95 nm  f=0.3691  <S**2>=0.000
     309 -> 315       -0.16356
     312 -> 314        0.69742
     312 <- 314       -0.11962
 This state for optimization and/or second-order correction.
 Total Energy, E(TD-HF/TD-DFT) =  -4067.32300869
 Copying the excited state density for this state as the 1-particle RhoCI density.

 Excited State   2:      Singlet-A      1.8276 eV  678.40 nm  f=0.0000  <S**2>=0.000
     312 -> 313        0.70711

 Excited State   3:      Singlet-A      2.0777 eV  596.74 nm  f=0.0000  <S**2>=0.000
     311 -> 314        0.70711

 Excited State   4:      Singlet-A      2.2176 eV  559.08 nm  f=0.1179  <S**2>=0.000
     309 -> 314        0.65145
     312 -> 315        0.25931

 Excited State   5:      Singlet-A      2.5061 eV  494.72 nm  f=0.0000  <S**2>=0.000
     309 -> 313        0.70711

 The electronic state is 1-A.
 Alpha  occ. eigenvalues --  -46.92763 -46.90586 -19.27340 -19.25801 -19.19456
 Alpha  occ. eigenvalues --  -19.19414 -19.19103 -19.19001 -19.18911 -19.18744
 Alpha  occ. eigenvalues --  -14.42341 -14.42310 -14.41379 -14.41321 -14.39239
 Alpha  occ. eigenvalues --  -14.39154 -14.38516 -14.37871 -10.36319 -10.35602
 Alpha  occ. eigenvalues --  -10.32661 -10.32358 -10.32288 -10.32207 -10.29599
 Alpha  occ. eigenvalues --  -10.29301 -10.29275 -10.29138 -10.28867 -10.28696
 Alpha  occ. eigenvalues --  -10.28691 -10.28478 -10.28266 -10.28175 -10.28030
 Alpha  occ. eigenvalues --  -10.27977 -10.27752 -10.27580 -10.27061 -10.26892
 Alpha  occ. eigenvalues --  -10.26766 -10.26700 -10.26538 -10.26350 -10.26346
 Alpha  occ. eigenvalues --  -10.26224 -10.26145 -10.26105 -10.26091 -10.26026
 Alpha  occ. eigenvalues --  -10.25991 -10.25888 -10.25825 -10.25670 -10.25614
 Alpha  occ. eigenvalues --  -10.25559 -10.25509 -10.25505 -10.25486 -10.25384
 Alpha  occ. eigenvalues --  -10.25378 -10.25239 -10.25219 -10.25093 -10.24985
 Alpha  occ. eigenvalues --  -10.24686 -10.24589 -10.24520 -10.24328 -10.24218
 Alpha  occ. eigenvalues --  -10.24211 -10.23880 -10.23739 -10.23670 -10.23293
 Alpha  occ. eigenvalues --  -10.23246 -10.23207 -10.23138 -10.23126 -10.23024
 Alpha  occ. eigenvalues --  -10.23015 -10.23006 -10.22859 -10.22584 -10.22532
 Alpha  occ. eigenvalues --  -10.22289  -3.14736  -3.13015  -1.87585  -1.87079
 Alpha  occ. eigenvalues --   -1.86972  -1.85849  -1.85370  -1.85286  -1.12964
 Alpha  occ. eigenvalues --   -1.12103  -1.04896  -1.03742  -1.02841  -1.02107
 Alpha  occ. eigenvalues --   -1.02101  -1.00787  -0.99895  -0.99120  -0.98937
 Alpha  occ. eigenvalues --   -0.98256  -0.98098  -0.97370  -0.97216  -0.96067
 Alpha  occ. eigenvalues --   -0.87752  -0.86294  -0.84039  -0.83831  -0.83560
 Alpha  occ. eigenvalues --   -0.83120  -0.82854  -0.82595  -0.82143  -0.82044
 Alpha  occ. eigenvalues --   -0.81550  -0.81443  -0.80734  -0.80220  -0.79103
 Alpha  occ. eigenvalues --   -0.78679  -0.78100  -0.78085  -0.77167  -0.76778
 Alpha  occ. eigenvalues --   -0.76050  -0.75904  -0.75641  -0.75411  -0.74851
 Alpha  occ. eigenvalues --   -0.74775  -0.72933  -0.72624  -0.72129  -0.71947
 Alpha  occ. eigenvalues --   -0.71673  -0.71665  -0.70861  -0.70510  -0.69611
 Alpha  occ. eigenvalues --   -0.69579  -0.67360  -0.67272  -0.66314  -0.66146
 Alpha  occ. eigenvalues --   -0.64176  -0.63574  -0.63524  -0.63072  -0.62636
 Alpha  occ. eigenvalues --   -0.62597  -0.62251  -0.61129  -0.60295  -0.59873
 Alpha  occ. eigenvalues --   -0.59811  -0.59799  -0.59340  -0.59284  -0.59062
 Alpha  occ. eigenvalues --   -0.58697  -0.57358  -0.56920  -0.55405  -0.54898
 Alpha  occ. eigenvalues --   -0.54464  -0.54277  -0.53872  -0.53565  -0.53157
 Alpha  occ. eigenvalues --   -0.53020  -0.52558  -0.52332  -0.52143  -0.51879
 Alpha  occ. eigenvalues --   -0.50787  -0.50703  -0.50545  -0.50324  -0.50014
 Alpha  occ. eigenvalues --   -0.49932  -0.49891  -0.49763  -0.49600  -0.48929
 Alpha  occ. eigenvalues --   -0.48538  -0.48031  -0.47982  -0.47629  -0.47510
 Alpha  occ. eigenvalues --   -0.47496  -0.47294  -0.47114  -0.47064  -0.46916
 Alpha  occ. eigenvalues --   -0.46691  -0.46624  -0.46307  -0.46151  -0.45912
 Alpha  occ. eigenvalues --   -0.45761  -0.45606  -0.45225  -0.45001  -0.44853
 Alpha  occ. eigenvalues --   -0.44689  -0.44671  -0.44443  -0.44259  -0.44104
 Alpha  occ. eigenvalues --   -0.43693  -0.43604  -0.43515  -0.43487  -0.43253
 Alpha  occ. eigenvalues --   -0.43097  -0.43049  -0.42914  -0.42870  -0.42713
 Alpha  occ. eigenvalues --   -0.42711  -0.42395  -0.42022  -0.42005  -0.41850
 Alpha  occ. eigenvalues --   -0.41650  -0.41508  -0.41417  -0.41355  -0.41179
 Alpha  occ. eigenvalues --   -0.41070  -0.41019  -0.40738  -0.40699  -0.40653
 Alpha  occ. eigenvalues --   -0.40199  -0.40003  -0.40000  -0.39759  -0.39582
 Alpha  occ. eigenvalues --   -0.39578  -0.39380  -0.39202  -0.39047  -0.38883
 Alpha  occ. eigenvalues --   -0.38726  -0.38644  -0.38530  -0.38418  -0.38171
 Alpha  occ. eigenvalues --   -0.38136  -0.38034  -0.38014  -0.37566  -0.37471
 Alpha  occ. eigenvalues --   -0.37283  -0.37260  -0.37163  -0.37031  -0.36824
 Alpha  occ. eigenvalues --   -0.36799  -0.36464  -0.36293  -0.36250  -0.36152
 Alpha  occ. eigenvalues --   -0.35933  -0.35759  -0.35686  -0.35357  -0.35329
 Alpha  occ. eigenvalues --   -0.35309  -0.35286  -0.34983  -0.34528  -0.34190
 Alpha  occ. eigenvalues --   -0.33630  -0.33258  -0.33006  -0.32835  -0.32672
 Alpha  occ. eigenvalues --   -0.32333  -0.32259  -0.32069  -0.31985  -0.31628
 Alpha  occ. eigenvalues --   -0.31619  -0.31347  -0.29848  -0.29419  -0.29284
 Alpha  occ. eigenvalues --   -0.29204  -0.28446  -0.28244  -0.27369  -0.27021
 Alpha  occ. eigenvalues --   -0.26353  -0.25962  -0.25605  -0.25544  -0.25455
 Alpha  occ. eigenvalues --   -0.25247  -0.25216  -0.24411  -0.21218  -0.20990
 Alpha  occ. eigenvalues --   -0.19314  -0.18724
 Alpha virt. eigenvalues --   -0.11752  -0.11424  -0.05154  -0.04904  -0.04109
 Alpha virt. eigenvalues --   -0.04108  -0.02156  -0.02050  -0.01030  -0.00257
 Alpha virt. eigenvalues --    0.00094   0.00538   0.00821   0.01173   0.01228

 Mulliken charges:
               1
     1  Mg  12.004223
     2  C    5.978614
     3  C    5.999613
     4  C    6.030834
     5  C    6.015559
     6  N    6.985460
     7  C    6.031686
     8  C    5.988277
     9  C    6.009580
    10  C    5.968559
    11  C    6.004447
    12  C    5.997414
    13  C    5.999976
    14  H    1.005852
    15  N    7.003364
    16  C    5.962118
    17  C    5.986240
    18  C    5.978773
    19  C    5.970029
    20  C    6.003504
    21  C    5.986421
    22  O    7.962598
    23  C    6.004831
    24  N    7.019778
    25  C    5.967272
    26  C    6.009344
    27  C    5.988519
    28  C    6.017995
    29  C    5.999812
    30  C    5.993717
    31  C    5.999728
    32  N    6.997366
    33  C    6.019542
    34  C    6.034881
    35  C    6.000695
    36  C    6.029162
    37  C    5.997036
    38  C    6.013801
    39  O    8.023545
    40  C    6.003540
    41  C    6.003184
    42  O    8.002207
    43  O    8.001945
    44  C    5.998585
    45  H    0.985312
    46  H    1.001370
    47  H    1.014836
    48  H    0.999182
    49  H    0.996498
    50  H    0.985129
    51  H    1.000524
    52  H    0.996757
    53  H    1.011067
    54  H    0.992807
    55  H    1.002241
    56  H    0.995660
    57  H    0.981839
    58  H    0.987250
    59  H    0.986276
    60  H    0.989929
    61  H    0.985690
    62  H    0.993072
    63  H    1.003676
    64  H    1.004128
    65  H    1.004917
    66  H    0.992565
    67  H    1.005132
    68  H    0.998239
    69  H    1.012417
    70  H    1.007126
    71  H    1.003892
    72  H    0.996003
    73  H    1.016584
    74  H    1.015401
    75  H    1.021219
    76  H    1.003539
    77  H    1.000414
    78  H    1.004968
    79  H    1.004712
    80  Mg  11.999967
    81  C    6.000030
    82  C    6.000027
    83  C    5.999976
    84  C    5.999964
    85  N    7.000021
    86  C    5.999959
    87  C    6.000017
    88  C    5.999987
    89  C    6.000024
    90  C    5.999996
    91  C    6.000007
    92  C    5.999996
    93  H    0.999987
    94  N    7.000000
    95  C    6.000027
    96  C    5.999999
    97  C    6.000005
    98  C    6.000043
    99  C    6.000000
   100  C    6.000029
   101  O    8.000054
   102  C    5.999987
   103  N    6.999990
   104  C    6.000030
   105  C    5.999985
   106  C    6.000020
   107  C    5.999983
   108  C    5.999994
   109  C    6.000013
   110  C    6.000008
   111  N    7.000001
   112  C    5.999979
   113  C    5.999972
   114  C    6.000007
   115  C    5.999959
   116  C    5.999990
   117  C    5.999973
   118  O    7.999969
   119  C    5.999989
   120  C    5.999992
   121  O    8.000014
   122  O    7.999992
   123  C    6.000001
   124  H    1.000013
   125  H    1.000016
   126  H    0.999978
   127  H    1.000017
   128  H    0.999985
   129  H    1.000039
   130  H    1.000017
   131  H    1.000000
   132  H    0.999962
   133  H    1.000004
   134  H    1.000018
   135  H    0.999974
   136  H    1.000032
   137  H    1.000059
   138  H    1.000018
   139  H    1.000035
   140  H    1.000048
   141  H    0.999995
   142  H    0.999988
   143  H    1.000010
   144  H    1.000007
   145  H    1.000032
   146  H    1.000012
   147  H    0.999983
   148  H    0.999988
   149  H    0.999989
   150  H    0.999966
   151  H    0.999985
   152  H    0.999947
   153  H    0.999988
   154  H    0.999973
   155  H    0.999968
   156  H    0.999980
   157  H    1.000011
   158  H    1.000001
 Sum of Mulliken charges = 624.00000

 Dipole moment (field-independent basis, Debye):
    X=              6.6976    Y=              1.7735    Z=             -7.7474  Tot=             10.3935
 Quadrupole moment (field-independent basis, Debye-Ang):
   XX=           -349.6231   YY=             -1.2174   ZZ=              0.3145
   XY=            -51.1695   XZ=            204.1872   YZ=              7.1133

 Normal termination of Gaussian 16 at Fri Oct 15 01:30:22 2021.
