 Gaussian 16, Revision A.03,
 Gaussian 16:  ES64L-G16RevA.03 25-Dec-2016

 --------------------------------------------------------
 #p PBE1PBE/Def2SVP td=(nstates=5) density=(transition=1)
 --------------------------------------------------------

 --------------------------------
 TDDFT excited states in gaussian
 --------------------------------
 Symbolic Z-matrix:
 Charge =  0 Multiplicity = 1

                         Standard orientation:
 ---------------------------------------------------------------------
 Center     Atomic      Atomic             Coordinates (Angstroms)
 Number     Number       Type             X           Y           Z
 ---------------------------------------------------------------------
      1         12           0      -24.968880   -0.760151   -0.247903
      2          6           0      -25.325750    2.485156    1.255150
      3          6           0      -24.881600    0.936511   -3.359912
      4          6           0      -24.751267   -3.815762   -1.924866
      5          6           0      -25.457450   -2.269280    2.692188
      6          7           0      -25.308850    1.533516   -0.943533
      7          6           0      -25.307904    2.617839   -0.138830
      8          6           0      -25.453640    3.923631   -1.000139
      9          6           0      -25.518157    3.307519   -2.443361
     10          6           0      -25.133699    1.819610   -2.275270
     11          6           0      -26.915589    3.523916   -3.122277
     12          6           0      -24.290505    4.899549   -0.824161
     13          6           0      -24.654113    6.340903   -0.679621
     14          1           0      -23.539856    7.359806   -0.400041
     15          7           0      -24.633384   -1.368431   -2.273141
     16          6           0      -24.644118   -0.514519   -3.371027
     17          6           0      -24.386486   -1.305198   -4.558226
     18          6           0      -24.243280   -2.632872   -4.190606
     19          6           0      -24.624654   -2.673103   -2.738600
     20          6           0      -24.428329   -0.777012   -5.963352
     21          6           0      -23.975975   -3.931667   -5.056106
     22          8           0      -23.864456   -5.067895   -4.665387
     23          6           0      -23.655079   -3.767124   -6.525867
     24          7           0      -25.227594   -2.711050    0.228680
     25          6           0      -25.103308   -3.828167   -0.555535
     26          6           0      -25.527094   -5.115468    0.189524
     27          6           0      -25.508586   -4.656645    1.709560
     28          6           0      -25.355294   -3.098163    1.529862
     29          6           0      -26.883766   -5.698262   -0.320720
     30          6           0      -24.361826   -5.282043    2.560704
     31          6           0      -22.948397   -4.829052    2.201781
     32          7           0      -25.345269   -0.123763    1.582474
     33          6           0      -25.467726   -0.872776    2.785918
     34          6           0      -25.690299    0.016512    3.923832
     35          6           0      -25.586801    1.307221    3.374779
     36          6           0      -25.368162    1.194122    1.976234
     37          6           0      -25.894072   -0.393128    5.308276
     38          6           0      -25.650375    2.713661    3.758946
     39          8           0      -25.763661    3.210910    4.866823
     40          6           0      -25.572408    3.560625    2.377234
     41          6           0      -24.410951    4.497500    2.717787
     42          8           0      -23.200344    4.225670    2.810865
     43          8           0      -24.896467    5.698821    2.978358
     44          6           0      -23.946698    6.881353    3.064850
     45          1           0      -24.781446    1.474687   -4.304466
     46          1           0      -24.699745   -4.816159   -2.361622
     47          1           0      -25.535973   -2.825223    3.628470
     48          1           0      -26.341025    4.410295   -0.596808
     49          1           0      -24.752826    3.729627   -3.096044
     50          1           0      -26.903258    4.017394   -4.094092
     51          1           0      -27.671901    3.943325   -2.458540
     52          1           0      -27.426023    2.624411   -3.467170
     53          1           0      -23.916079    4.959652   -1.846221
     54          1           0      -23.523326    4.535426   -0.139932
     55          1           0      -25.447488    6.636361    0.008848
     56          1           0      -25.034117    6.594882   -1.669224
     57          1           0      -24.497459    0.310403   -5.977128
     58          1           0      -25.244113   -1.159283   -6.578892
     59          1           0      -23.541553   -0.971953   -6.566672
     60          1           0      -22.761890   -3.164721   -6.691111
     61          1           0      -24.580104   -3.328333   -6.900021
     62          1           0      -23.643977   -4.793648   -6.892283
     63          1           0      -24.780240   -5.847566   -0.119641
     64          1           0      -26.462209   -4.630249    2.237286
     65          1           0      -26.762731   -6.643788   -0.849270
     66          1           0      -27.537886   -5.048014   -0.900528
     67          1           0      -27.411400   -5.842449    0.622275
     68          1           0      -24.569771   -6.348074    2.653629
     69          1           0      -24.498163   -4.939193    3.586217
     70          1           0      -22.860058   -4.200112    1.316676
     71          1           0      -22.394183   -5.744514    1.996214
     72          1           0      -22.464008   -4.171436    2.922674
     73          1           0      -26.051452    0.423907    6.012687
     74          1           0      -24.995199   -0.950656    5.571211
     75          1           0      -26.735770   -1.086974    5.323680
     76          1           0      -26.425243    4.227677    2.251608
     77          1           0      -24.571986    7.768192    2.959403
     78          1           0      -23.242710    6.921706    2.234216
     79          1           0      -23.344236    6.889653    3.973928
     80         12           0       24.486064   -0.599232    0.371226
     81          6           0       25.522412    1.730052   -1.997238
     82          6           0       23.541041    1.892456    2.432743
     83          6           0       23.935809   -2.917966    2.768344
     84          6           0       25.919413   -3.055494   -1.578665
     85          7           0       24.560735    1.609137    0.201263
     86          6           0       24.829823    2.320088   -0.940531
     87          6           0       24.559973    3.761004   -0.726865
     88          6           0       23.978894    3.890212    0.685940
     89          6           0       23.984670    2.383127    1.190522
     90          6           0       24.613715    4.874110    1.656432
     91          6           0       23.600653    4.368950   -1.899984
     92          6           0       24.178112    5.495428   -2.788718
     93          1           0       23.320893    6.662294   -3.213569
     94          7           0       23.719537   -0.541197    2.277874
     95          6           0       23.392229    0.605451    2.985907
     96          6           0       22.966720    0.252695    4.291413
     97          6           0       23.075487   -1.158191    4.423974
     98          6           0       23.575456   -1.601230    3.118457
     99          6           0       22.381782    1.387262    5.220416
    100          6           0       22.797275   -1.948043    5.701708
    101          8           0       22.966152   -3.168742    5.842378
    102          6           0       22.208593   -1.268840    6.859146
    103          7           0       25.073792   -2.670634    0.722829
    104          6           0       24.639419   -3.429063    1.707995
    105          6           0       25.212971   -4.859943    1.599616
    106          6           0       25.364833   -4.904105    0.028051
    107          6           0       25.436877   -3.423534   -0.331907
    108          6           0       26.572141   -5.236295    2.297675
    109          6           0       24.213566   -5.659780   -0.793512
    110          6           0       22.830570   -5.166363   -0.667295
    111          7           0       25.597839   -0.741160   -1.461620
    112          6           0       26.119131   -1.848906   -2.158433
    113          6           0       26.749208   -1.398842   -3.358525
    114          6           0       26.613314   -0.025270   -3.325935
    115          6           0       25.804563    0.317361   -2.193181
    116          6           0       27.596975   -2.185044   -4.233664
    117          6           0       26.760370    1.120971   -4.092698
    118          8           0       27.290342    1.312317   -5.192041
    119          6           0       26.163601    2.345228   -3.259616
    120          6           0       27.345527    3.163613   -2.856684
    121          8           0       28.329790    2.894206   -2.200647
    122          8           0       27.144247    4.357744   -3.416688
    123          6           0       28.188010    5.398279   -3.139671
    124          1           0       23.071265    2.757783    2.904889
    125          1           0       23.597683   -3.644028    3.509664
    126          1           0       26.309889   -3.851524   -2.215767
    127          1           0       25.538036    4.237000   -0.785027
    128          1           0       22.926609    4.163315    0.610272
    129          1           0       25.272922    4.153582    2.139132
    130          1           0       23.922849    5.410230    2.307352
    131          1           0       25.240723    5.680265    1.276517
    132          1           0       22.668905    4.706811   -1.447302
    133          1           0       23.346422    3.645923   -2.675440
    134          1           0       24.430190    5.025187   -3.739649
    135          1           0       25.132073    5.864005   -2.413960
    136          1           0       22.906382    1.354052    6.175106
    137          1           0       21.389825    0.952336    5.343340
    138          1           0       22.493441    2.424775    4.905299
    139          1           0       22.830151   -0.434612    7.181495
    140          1           0       22.357868   -1.945912    7.699878
    141          1           0       21.151175   -1.020151    6.765433
    142          1           0       24.401849   -5.565180    1.781331
    143          1           0       26.291047   -5.458526   -0.121208
    144          1           0       27.353071   -4.478126    2.253101
    145          1           0       26.852235   -6.152586    1.776759
    146          1           0       26.416281   -5.448579    3.355713
    147          1           0       24.122919   -6.715529   -0.536841
    148          1           0       24.313670   -5.483059   -1.864383
    149          1           0       22.807279   -4.323464   -1.356583
    150          1           0       22.483851   -4.790009    0.295602
    151          1           0       22.015702   -5.817216   -0.982576
    152          1           0       28.566060   -2.165706   -3.733640
    153          1           0       27.712216   -1.799353   -5.246201
    154          1           0       27.211450   -3.186882   -4.425994
    155          1           0       25.389901    2.896473   -3.794156
    156          1           0       27.711482    6.073030   -2.428168
    157          1           0       28.479512    5.882847   -4.071233
    158          1           0       29.106254    5.070328   -2.651646
 ---------------------------------------------------------------------

 SCF Done:  E(RPBE1PBE) =  -4067.33913046     A.U. after   16 cycles

 Excitation energies and oscillator strengths:

 Excited State   1:      Singlet-A      1.8203 eV  681.13 nm  f=0.3537  <S**2>=0.000
     309 -> 315        0.17699
     312 -> 314        0.69234
     312 <- 314       -0.10909
 This state for optimization and/or second-order correction.
 Total Energy, E(TD-HF/TD-DFT) =  -4067.27223677
 Copying the excited state density for this state as the 1-particle RhoCI density.

 Excited State   2:      Singlet-A      1.8587 eV  667.05 nm  f=0.3522  <S**2>=0.000
     310 -> 316        0.16384
     311 -> 313        0.69253
     311 <- 313       -0.10764

 Excited State   3:      Singlet-A      1.8900 eV  656.01 nm  f=0.0000  <S**2>=0.000
     312 -> 313        0.70711

 Excited State   4:      Singlet-A      2.0808 eV  595.86 nm  f=0.0000  <S**2>=0.000
     311 -> 314        0.70711

 Excited State   5:      Singlet-A      2.1770 eV  569.52 nm  f=0.1427  <S**2>=0.000
     310 -> 313        0.66023
     311 -> 316       -0.23475

 The electronic state is 1-A.
 Alpha  occ. eigenvalues --  -46.92736 -46.91724 -19.25689 -19.25591 -19.19665
 Alpha  occ. eigenvalues --  -19.19640 -19.19308 -19.18906 -19.18474 -19.18284
 Alpha  occ. eigenvalues --  -14.41973 -14.41641 -14.41224 -14.41125 -14.39742
 Alpha  occ. eigenvalues --  -14.39427 -14.39386 -14.38617 -10.35610 -10.35526
 Alpha  occ. eigenvalues --  -10.32696 -10.32618 -10.32214 -10.31282 -10.29440
 Alpha  occ. eigenvalues --  -10.29246 -10.29215 -10.29099 -10.28996 -10.28937
 Alpha  occ. eigenvalues --  -10.28915 -10.28832 -10.28692 -10.28371 -10.28299
 Alpha  occ. eigenvalues --  -10.28016 -10.27845 -10.27837 -10.27688 -10.27518
 Alpha  occ. eigenvalues --  -10.26801 -10.26680 -10.26629 -10.26563 -10.26438
 Alpha  occ. eigenvalues --  -10.26425 -10.26375 -10.26356 -10.26312 -10.26248
 Alpha  occ. eigenvalues --  -10.26227 -10.26212 -10.25998 -10.25960 -10.25855
 Alpha  occ. eigenvalues --  -10.25815 -10.25812 -10.25681 -10.25630 -10.25543
 Alpha  occ. eigenvalues --  -10.25345 -10.25267 -10.25183 -10.25135 -10.25023
 Alpha  occ. eigenvalues --  -10.24930 -10.24913 -10.24502 -10.24277 -10.24224
 Alpha  occ. eigenvalues --  -10.24015 -10.23983 -10.23969 -10.23750 -10.23705
 Alpha  occ. eigenvalues --  -10.23669 -10.23582 -10.23480 -10.23407 -10.23379
 Alpha  occ. eigenvalues --  -10.23225 -10.22973 -10.22886 -10.22831 -10.22344
 Alpha  occ. eigenvalues --  -10.22124  -3.14730  -3.13991  -1.87573  -1.87082
 Alpha  occ. eigenvalues --   -1.86969  -1.86817  -1.86382  -1.86220  -1.11783
 Alpha  occ. eigenvalues --   -1.10749  -1.06155  -1.04835  -1.03858  -1.03301
 Alpha  occ. eigenvalues --   -1.02175  -1.00112  -1.00037  -0.98932  -0.98397
 Alpha  occ. eigenvalues --   -0.98062  -0.97749  -0.97320  -0.96873  -0.96387
 Alpha  occ. eigenvalues --   -0.86562  -0.85226  -0.83523  -0.83495  -0.83045
 Alpha  occ. eigenvalues --   -0.83030  -0.82698  -0.82297  -0.82271  -0.81948
 Alpha  occ. eigenvalues --   -0.81718  -0.81248  -0.81164  -0.80765  -0.78948
 Alpha  occ. eigenvalues --   -0.78544  -0.78399  -0.77870  -0.77371  -0.76646
 Alpha  occ. eigenvalues --   -0.76249  -0.75842  -0.75665  -0.75341  -0.75089
 Alpha  occ. eigenvalues --   -0.74507  -0.73086  -0.72433  -0.71980  -0.71715
 Alpha  occ. eigenvalues --   -0.71621  -0.71257  -0.70303  -0.70285  -0.69700
 Alpha  occ. eigenvalues --   -0.69491  -0.67927  -0.67065  -0.66147  -0.66094
 Alpha  occ. eigenvalues --   -0.64417  -0.63782  -0.63480  -0.63173  -0.62171
 Alpha  occ. eigenvalues --   -0.61975  -0.61581  -0.60665  -0.60277  -0.59918
 Alpha  occ. eigenvalues --   -0.59898  -0.59631  -0.59333  -0.59147  -0.58661
 Alpha  occ. eigenvalues --   -0.58494  -0.56625  -0.56409  -0.55015  -0.54494
 Alpha  occ. eigenvalues --   -0.54121  -0.53932  -0.53887  -0.53492  -0.53263
 Alpha  occ. eigenvalues --   -0.52828  -0.52399  -0.52382  -0.51974  -0.51043
 Alpha  occ. eigenvalues --   -0.50654  -0.50285  -0.50258  -0.50103  -0.50005
 Alpha  occ. eigenvalues --   -0.49643  -0.49626  -0.49354  -0.49198  -0.49162
 Alpha  occ. eigenvalues --   -0.48515  -0.47908  -0.47821  -0.47819  -0.47745
 Alpha  occ. eigenvalues --   -0.47540  -0.47453  -0.47287  -0.47271  -0.46969
 Alpha  occ. eigenvalues --   -0.46738  -0.46649  -0.46494  -0.46211  -0.45856
 Alpha  occ. eigenvalues --   -0.45691  -0.45583  -0.45471  -0.44992  -0.44726
 Alpha  occ. eigenvalues --   -0.44423  -0.44397  -0.44324  -0.44215  -0.44127
 Alpha  occ. eigenvalues --   -0.43888  -0.43855  -0.43836  -0.43602  -0.43572
 Alpha  occ. eigenvalues --   -0.43229  -0.43159  -0.43083  -0.42981  -0.42754
 Alpha  occ. eigenvalues --   -0.42726  -0.42250  -0.42163  -0.41983  -0.41777
 Alpha  occ. eigenvalues --   -0.41536  -0.41511  -0.41403  -0.41361  -0.41073
 Alpha  occ. eigenvalues --   -0.40982  -0.40926  -0.40758  -0.40578  -0.40531
 Alpha  occ. eigenvalues --   -0.40307  -0.40081  -0.39913  -0.39712  -0.39413
 Alpha  occ. eigenvalues --   -0.39233  -0.39141  -0.39012  -0.39011  -0.38857
 Alpha  occ. eigenvalues --   -0.38829  -0.38539  -0.38427  -0.38260  -0.38184
 Alpha  occ. eigenvalues --   -0.38049  -0.37948  -0.37885  -0.37781  -0.37765
 Alpha  occ. eigenvalues --   -0.37303  -0.37238  -0.37030  -0.36982  -0.36953
 Alpha  occ. eigenvalues --   -0.36741  -0.36720  -0.36436  -0.36243  -0.35956
 Alpha  occ. eigenvalues --   -0.35799  -0.35743  -0.35585  -0.35277  -0.35152
 Alpha  occ. eigenvalues --   -0.35101  -0.34554  -0.34380  -0.34037  -0.33884
 Alpha  occ. eigenvalues --   -0.33575  -0.33069  -0.33062  -0.33049  -0.32691
 Alpha  occ. eigenvalues --   -0.32541  -0.32044  -0.31735  -0.31377  -0.31180
 Alpha  occ. eigenvalues --   -0.31092  -0.30673  -0.29685  -0.29203  -0.29122
 Alpha  occ. eigenvalues --   -0.28988  -0.28684  -0.27643  -0.27113  -0.26929
 Alpha  occ. eigenvalues --   -0.26178  -0.26093  -0.25856  -0.25798  -0.25732
 Alpha  occ. eigenvalues --   -0.25694  -0.25535  -0.25242  -0.21054  -0.20974
 Alpha  occ. eigenvalues --   -0.19081  -0.18650
 Alpha virt. eigenvalues --   -0.11442  -0.11170  -0.05509  -0.05167  -0.03922
 Alpha virt. eigenvalues --   -0.03606  -0.02131  -0.02069  -0.00605   0.00588
 Alpha virt. eigenvalues --    0.00848   0.01030   0.01345   0.01726   0.01921

 Mulliken charges:
               1
     1  Mg  12.000220
     2  C    5.983106
     3  C    6.014590
     4  C    6.020945
     5  C    5.999182
     6  N    6.990944
     7  C    6.025961
     8  C    5.995392
     9  C    6.005751
    10  C    5.970178
    11  C    6.001909
    12  C    5.994959
    13  C    5.998383
    14  H    1.000143
    15  N    7.004451
    16  C    5.958377
    17  C    5.984476
    18  C    5.983085
    19  C    5.965779
    20  C    6.005295
    21  C    5.987538
    22  O    7.974548
    23  C    6.003079
    24  N    7.011199
    25  C    5.962886
    26  C    6.006218
    27  C    5.996055
    28  C    6.031059
    29  C    6.004478
    30  C    5.995138
    31  C    5.994486
    32  N    6.997783
    33  C    6.032585
    34  C    6.028522
    35  C    6.002423
    36  C    6.029579
    37  C    5.999528
    38  C    6.015755
    39  O    8.026693
    40  C    6.002048
    41  C    6.003361
    42  O    8.005311
    43  O    8.000116
    44  C    5.998135
    45  H    0.989925
    46  H    0.993737
    47  H    1.011719
    48  H    0.996391
    49  H    1.001282
    50  H    0.997459
    51  H    0.988287
    52  H    1.002320
    53  H    1.008538
    54  H    0.996506
    55  H    0.996748
    56  H    1.005246
    57  H    0.983968
    58  H    0.981443
    59  H    0.982626
    60  H    0.992761
    61  H    0.995258
    62  H    0.986906
    63  H    1.002758
    64  H    0.997868
    65  H    1.000540
    66  H    1.001530
    67  H    0.987849
    68  H    1.009519
    69  H    0.996075
    70  H    1.010261
    71  H    1.007830
    72  H    0.996199
    73  H    1.013475
    74  H    1.017018
    75  H    1.017012
    76  H    1.008442
    77  H    1.004298
    78  H    1.005043
    79  H    1.001512
    80  Mg  11.999994
    81  C    5.999905
    82  C    5.999969
    83  C    6.000148
    84  C    6.000126
    85  N    6.999954
    86  C    6.000132
    87  C    5.999944
    88  C    6.000038
    89  C    5.999865
    90  C    6.000010
    91  C    5.999996
    92  C    5.999992
    93  H    1.000025
    94  N    7.000012
    95  C    5.999870
    96  C    5.999902
    97  C    5.999955
    98  C    5.999832
    99  C    6.000000
   100  C    5.999901
   101  O    7.999844
   102  C    6.000054
   103  N    7.000044
   104  C    5.999847
   105  C    6.000062
   106  C    5.999942
   107  C    6.000091
   108  C    5.999981
   109  C    5.999948
   110  C    5.999995
   111  N    7.000009
   112  C    6.000080
   113  C    6.000194
   114  C    5.999960
   115  C    6.000123
   116  C    5.999972
   117  C    6.000138
   118  O    8.000190
   119  C    5.999979
   120  C    6.000006
   121  O    8.000010
   122  O    8.000014
   123  C    5.999994
   124  H    0.999907
   125  H    0.999987
   126  H    1.000092
   127  H    0.999989
   128  H    0.999978
   129  H    0.999999
   130  H    0.999974
   131  H    0.999924
   132  H    1.000031
   133  H    0.999990
   134  H    0.999985
   135  H    0.999990
   136  H    0.999886
   137  H    0.999913
   138  H    0.999917
   139  H    0.999961
   140  H    0.999902
   141  H    0.999939
   142  H    1.000014
   143  H    1.000036
   144  H    0.999975
   145  H    0.999978
   146  H    1.000021
   147  H    1.000065
   148  H    1.000001
   149  H    0.999975
   150  H    1.000071
   151  H    1.000049
   152  H    1.000104
   153  H    1.000101
   154  H    1.000102
   155  H    1.000054
   156  H    1.000026
   157  H    1.000016
   158  H    1.000002
 Sum of Mulliken charges = 624.00000

 Dipole moment (field-independent basis, Debye):
    X=             -1.0970    Y=              2.6191    Z=              9.7171  Tot=             10.1235
 Quadrupole moment (field-independent basis, Debye-Ang):
   XX=             56.9489   YY=             -1.3957   ZZ=             -7.6571
   XY=            -64.2494   XZ=           -244.8108   YZ=             -8.2890

 Normal termination of Gaussian 16 at Thu Oct 14 14:11:52 2021.
