 Gaussian 16, Revision A.03,
 Gaussian 16:  ES64L-G16RevA.03 25-Dec-2016

 --------------------------------------------------------
 #p PBE1PBE/Def2SVP td=(nstates=5) density=(transition=1)
 --------------------------------------------------------

 --------------------------------
 TDDFT excited states in gaussian
 --------------------------------
 Symbolic Z-matrix:
 Charge =  0 Multiplicity = 1

                         Standard orientation:
 ---------------------------------------------------------------------
 Center     Atomic      Atomic             Coordinates (Angstroms)
 Number     Number       Type             X           Y           Z
 ---------------------------------------------------------------------
      1         12           0       21.792221   -0.149691   -0.250007
      2          6           0       19.071666    1.551473    0.990351
      3          6           0       23.637378    0.545510    2.549903
      4          6           0       24.477754   -2.051702   -1.450705
      5          6           0       19.804599   -1.607003   -2.669058
      6          7           0       21.244257    0.765467    1.637718
      7          6           0       20.137819    1.574849    1.909353
      8          6           0       20.206685    2.161520    3.321567
      9          6           0       21.711445    1.935985    3.616270
     10          6           0       22.255252    0.934524    2.576811
     11          6           0       22.507241    3.252951    3.748165
     12          6           0       19.261054    1.438388    4.300967
     13          6           0       18.461272    2.337336    5.305946
     14          1           0       18.153962    1.732986    6.620194
     15          7           0       23.749505   -0.613054    0.426036
     16          6           0       24.352926   -0.162782    1.549851
     17          6           0       25.760460   -0.426860    1.572608
     18          6           0       26.068735   -1.062955    0.358868
     19          6           0       24.720218   -1.254785   -0.319094
     20          6           0       26.716407    0.073077    2.657622
     21          6           0       27.485838   -1.531680   -0.133439
     22          8           0       28.461075   -1.411068    0.651461
     23          6           0       27.776705   -2.073231   -1.598958
     24          7           0       22.022755   -1.852016   -1.655615
     25          6           0       23.229185   -2.325302   -2.052144
     26          6           0       23.146344   -3.182954   -3.288718
     27          6           0       21.653463   -3.099352   -3.673554
     28          6           0       21.119057   -2.102238   -2.642264
     29          6           0       24.150106   -2.792269   -4.423737
     30          6           0       20.934874   -4.530499   -3.737724
     31          6           0       20.660470   -5.045625   -5.155355
     32          7           0       19.856669   -0.032709   -0.805563
     33          6           0       19.136737   -0.656893   -1.847990
     34          6           0       17.817019   -0.023899   -1.971298
     35          6           0       17.805259    0.887101   -0.924263
     36          6           0       19.001944    0.733283   -0.205118
     37          6           0       16.716238   -0.281414   -2.937014
     38          6           0       16.973453    1.897106   -0.254578
     39          8           0       15.929015    2.471837   -0.603124
     40          6           0       17.785660    2.408044    1.002305
     41          6           0       18.082548    3.898313    0.903006
     42          8           0       18.497020    4.521006   -0.079771
     43          8           0       17.715516    4.377010    2.125554
     44          6           0       17.718565    5.821626    2.284341
     45          1           0       24.237938    0.765565    3.434875
     46          1           0       25.255225   -2.615786   -1.970238
     47          1           0       19.124655   -2.020881   -3.416382
     48          1           0       19.914110    3.211715    3.295220
     49          1           0       21.703855    1.460689    4.597107
     50          1           0       21.979596    4.178806    3.977157
     51          1           0       22.939793    3.430392    2.763641
     52          1           0       23.295422    3.184758    4.497613
     53          1           0       19.754136    0.638810    4.853150
     54          1           0       18.602167    0.845967    3.665681
     55          1           0       17.522295    2.637459    4.840892
     56          1           0       19.066920    3.213902    5.540204
     57          1           0       27.471959    0.657790    2.133371
     58          1           0       27.009641   -0.757376    3.299971
     59          1           0       26.124499    0.788073    3.228977
     60          1           0       27.536843   -3.135691   -1.579704
     61          1           0       28.845066   -1.936620   -1.764790
     62          1           0       27.282073   -1.382287   -2.282164
     63          1           0       23.395819   -4.205195   -3.004026
     64          1           0       21.417878   -2.552148   -4.586035
     65          1           0       23.662671   -2.763732   -5.397871
     66          1           0       24.991164   -3.481642   -4.495520
     67          1           0       24.620105   -1.842944   -4.170200
     68          1           0       19.948044   -4.522204   -3.275091
     69          1           0       21.498834   -5.257400   -3.153305
     70          1           0       20.840547   -6.120000   -5.196637
     71          1           0       21.321997   -4.545707   -5.862533
     72          1           0       19.643690   -4.863817   -5.503012
     73          1           0       17.088082   -0.996205   -3.671144
     74          1           0       16.275288    0.662277   -3.258736
     75          1           0       15.964900   -0.848595   -2.386516
     76          1           0       17.279874    2.186126    1.942381
     77          1           0       18.601421    6.310265    1.870199
     78          1           0       17.597803    6.209762    3.295692
     79          1           0       16.854505    6.248056    1.774130
     80         12           0      -21.351482   -0.646701    0.544207
     81          6           0      -22.180918    2.435806   -0.886121
     82          6           0      -18.261189   -0.333248   -0.514841
     83          6           0      -20.805620   -3.956322    1.287340
     84          6           0      -24.769949   -1.207016    1.226590
     85          7           0      -20.375331    0.923123   -0.467777
     86          6           0      -20.835129    2.138634   -0.924767
     87          6           0      -19.696815    3.029306   -1.405554
     88          6           0      -18.512421    2.012613   -1.473953
     89          6           0      -19.028295    0.852525   -0.695848
     90          6           0      -17.898596    1.666485   -2.813330
     91          6           0      -19.453005    4.307913   -0.541864
     92          6           0      -18.327201    5.223486   -1.034876
     93          1           0      -18.688875    6.691071   -1.210604
     94          7           0      -19.683710   -2.041963    0.336364
     95          6           0      -18.440681   -1.639145   -0.000288
     96          6           0      -17.526056   -2.733364    0.173220
     97          6           0      -18.283011   -3.838443    0.599063
     98          6           0      -19.661409   -3.296548    0.744767
     99          6           0      -16.046016   -2.653222   -0.136019
    100          6           0      -17.841458   -5.220417    0.954224
    101          8           0      -18.592127   -6.204116    1.192322
    102          6           0      -16.357769   -5.535063    1.101329
    103          7           0      -22.596731   -2.308926    1.128089
    104          6           0      -22.134136   -3.568885    1.301741
    105          6           0      -23.299463   -4.490145    1.954901
    106          6           0      -24.382497   -3.420829    2.336461
    107          6           0      -23.896184   -2.213891    1.600274
    108          6           0      -23.759442   -5.566188    0.895240
    109          6           0      -24.312716   -3.076805    3.869201
    110          6           0      -22.978054   -2.686978    4.485212
    111          7           0      -23.190883    0.425781    0.297366
    112          6           0      -24.457369    0.036639    0.637451
    113          6           0      -25.309636    1.076352    0.288291
    114          6           0      -24.530197    2.084310   -0.348898
    115          6           0      -23.235108    1.638054   -0.320393
    116          6           0      -26.791389    1.151318    0.402826
    117          6           0      -24.507727    3.394961   -1.037139
    118          8           0      -25.380757    4.185829   -1.375808
    119          6           0      -22.938509    3.712687   -1.321965
    120          6           0      -22.749385    4.202838   -2.713282
    121          8           0      -23.406747    3.799277   -3.718246
    122          8           0      -21.912074    5.229347   -2.650180
    123          6           0      -21.966689    6.108782   -3.802258
    124          1           0      -17.197292   -0.235386   -0.741208
    125          1           0      -20.641337   -5.000929    1.562284
    126          1           0      -25.794528   -1.360251    1.569057
    127          1           0      -20.053339    3.419435   -2.359048
    128          1           0      -17.642984    2.333813   -0.899330
    129          1           0      -18.074642    2.365547   -3.630877
    130          1           0      -18.221455    0.666689   -3.104862
    131          1           0      -16.849369    1.434585   -2.629375
    132          1           0      -19.274628    4.020753    0.494708
    133          1           0      -20.371751    4.892560   -0.508277
    134          1           0      -18.139656    5.083363   -2.099290
    135          1           0      -17.420353    5.090187   -0.444257
    136          1           0      -15.729335   -1.732226   -0.625345
    137          1           0      -15.680751   -3.348599   -0.891359
    138          1           0      -15.411637   -2.778664    0.741976
    139          1           0      -15.906761   -5.484066    0.110713
    140          1           0      -16.183136   -6.590640    1.308327
    141          1           0      -15.866306   -4.942869    1.874103
    142          1           0      -22.896418   -5.039052    2.806007
    143          1           0      -25.312779   -3.803896    1.917065
    144          1           0      -23.079100   -5.662007    0.048858
    145          1           0      -24.730332   -5.361241    0.443870
    146          1           0      -23.790210   -6.580795    1.289783
    147          1           0      -24.675943   -4.023313    4.269693
    148          1           0      -25.005515   -2.301004    4.193781
    149          1           0      -22.166957   -2.900251    3.788651
    150          1           0      -22.770265   -3.078098    5.480586
    151          1           0      -23.113396   -1.622046    4.674327
    152          1           0      -27.174765    0.960371    1.405469
    153          1           0      -27.162552    0.351805   -0.237706
    154          1           0      -27.192964    2.093742    0.031850
    155          1           0      -22.717592    4.535566   -0.642627
    156          1           0      -21.947285    7.150058   -3.478166
    157          1           0      -22.856038    6.031740   -4.427280
    158          1           0      -21.066517    5.897627   -4.380419
 ---------------------------------------------------------------------

 SCF Done:  E(RPBE1PBE) =  -4067.40401699     A.U. after   17 cycles

 Excitation energies and oscillator strengths:

 Excited State   1:      Singlet-A      1.8238 eV  679.82 nm  f=0.0000  <S**2>=0.000
     312 -> 313        0.70711
 This state for optimization and/or second-order correction.
 Total Energy, E(TD-HF/TD-DFT) =  -4067.33699441
 Copying the excited state density for this state as the 1-particle RhoCI density.

 Excited State   2:      Singlet-A      1.8386 eV  674.36 nm  f=0.3811  <S**2>=0.000
     309 -> 315       -0.16786
     312 -> 314        0.69203
     312 <- 314       -0.10456

 Excited State   3:      Singlet-A      1.8527 eV  669.21 nm  f=0.3497  <S**2>=0.000
     310 -> 316        0.15613
     311 -> 313        0.69560
     311 <- 313       -0.11154

 Excited State   4:      Singlet-A      2.1355 eV  580.57 nm  f=0.0000  <S**2>=0.000
     311 -> 314        0.70710

 Excited State   5:      Singlet-A      2.2418 eV  553.06 nm  f=0.0969  <S**2>=0.000
     309 -> 314        0.64064
     312 -> 315        0.28306

 The electronic state is 1-A.
 Alpha  occ. eigenvalues --  -46.92768 -46.92620 -19.27343 -19.27124 -19.20625
 Alpha  occ. eigenvalues --  -19.19736 -19.19417 -19.19108 -19.18956 -19.18916
 Alpha  occ. eigenvalues --  -14.42345 -14.42040 -14.41681 -14.41384 -14.39762
 Alpha  occ. eigenvalues --  -14.39244 -14.38929 -14.37877 -10.37096 -10.36323
 Alpha  occ. eigenvalues --  -10.33735 -10.32666 -10.32212 -10.32161 -10.29763
 Alpha  occ. eigenvalues --  -10.29603 -10.29352 -10.29278 -10.29056 -10.29051
 Alpha  occ. eigenvalues --  -10.28871 -10.28769 -10.28702 -10.28517 -10.28180
 Alpha  occ. eigenvalues --  -10.28035 -10.27981 -10.27846 -10.27761 -10.27065
 Alpha  occ. eigenvalues --  -10.26767 -10.26419 -10.26397 -10.26353 -10.26229
 Alpha  occ. eigenvalues --  -10.26151 -10.26096 -10.26011 -10.25994 -10.25994
 Alpha  occ. eigenvalues --  -10.25971 -10.25904 -10.25850 -10.25829 -10.25796
 Alpha  occ. eigenvalues --  -10.25769 -10.25748 -10.25677 -10.25618 -10.25563
 Alpha  occ. eigenvalues --  -10.25493 -10.25294 -10.25224 -10.24988 -10.24852
 Alpha  occ. eigenvalues --  -10.24751 -10.24689 -10.24676 -10.24652 -10.24524
 Alpha  occ. eigenvalues --  -10.24263 -10.24225 -10.24223 -10.24218 -10.23881
 Alpha  occ. eigenvalues --  -10.23744 -10.23633 -10.23563 -10.23499 -10.23276
 Alpha  occ. eigenvalues --  -10.23211 -10.23144 -10.22868 -10.22652 -10.22538
 Alpha  occ. eigenvalues --  -10.22294  -3.14741  -3.14731  -1.87590  -1.87537
 Alpha  occ. eigenvalues --   -1.87092  -1.87084  -1.86984  -1.86977  -1.12967
 Alpha  occ. eigenvalues --   -1.11733  -1.03747  -1.03302  -1.03172  -1.02845
 Alpha  occ. eigenvalues --   -1.02717  -1.00791  -0.99900  -0.99467  -0.98942
 Alpha  occ. eigenvalues --   -0.98776  -0.98103  -0.98059  -0.97221  -0.96785
 Alpha  occ. eigenvalues --   -0.86299  -0.85920  -0.83834  -0.83566  -0.83217
 Alpha  occ. eigenvalues --   -0.83142  -0.83014  -0.82600  -0.82148  -0.81816
 Alpha  occ. eigenvalues --   -0.81449  -0.81296  -0.80623  -0.80225  -0.79107
 Alpha  occ. eigenvalues --   -0.78619  -0.78263  -0.78089  -0.77173  -0.76834
 Alpha  occ. eigenvalues --   -0.76054  -0.75834  -0.75645  -0.75359  -0.74855
 Alpha  occ. eigenvalues --   -0.74568  -0.72937  -0.72374  -0.71952  -0.71769
 Alpha  occ. eigenvalues --   -0.71676  -0.71026  -0.70515  -0.70287  -0.69658
 Alpha  occ. eigenvalues --   -0.69584  -0.67277  -0.67250  -0.66192  -0.66150
 Alpha  occ. eigenvalues --   -0.64180  -0.63584  -0.63580  -0.63414  -0.62640
 Alpha  occ. eigenvalues --   -0.62389  -0.62255  -0.61615  -0.60614  -0.59876
 Alpha  occ. eigenvalues --   -0.59803  -0.59717  -0.59475  -0.59288  -0.59173
 Alpha  occ. eigenvalues --   -0.59068  -0.57381  -0.57362  -0.55409  -0.54538
 Alpha  occ. eigenvalues --   -0.54281  -0.54230  -0.53877  -0.53594  -0.53243
 Alpha  occ. eigenvalues --   -0.53162  -0.52390  -0.52147  -0.51884  -0.51814
 Alpha  occ. eigenvalues --   -0.50791  -0.50548  -0.50548  -0.50466  -0.50328
 Alpha  occ. eigenvalues --   -0.50019  -0.49937  -0.49855  -0.49622  -0.48932
 Alpha  occ. eigenvalues --   -0.48452  -0.48035  -0.47996  -0.47892  -0.47513
 Alpha  occ. eigenvalues --   -0.47323  -0.47298  -0.47069  -0.47015  -0.46644
 Alpha  occ. eigenvalues --   -0.46313  -0.46187  -0.46155  -0.45947  -0.45788
 Alpha  occ. eigenvalues --   -0.45610  -0.45601  -0.45513  -0.45230  -0.44857
 Alpha  occ. eigenvalues --   -0.44692  -0.44629  -0.44156  -0.44108  -0.44015
 Alpha  occ. eigenvalues --   -0.43723  -0.43696  -0.43519  -0.43259  -0.43250
 Alpha  occ. eigenvalues --   -0.43054  -0.42918  -0.42900  -0.42809  -0.42718
 Alpha  occ. eigenvalues --   -0.42553  -0.42284  -0.42156  -0.42032  -0.42010
 Alpha  occ. eigenvalues --   -0.41654  -0.41551  -0.41510  -0.41343  -0.41199
 Alpha  occ. eigenvalues --   -0.41183  -0.41024  -0.40743  -0.40740  -0.40658
 Alpha  occ. eigenvalues --   -0.40430  -0.40203  -0.40115  -0.40006  -0.39587
 Alpha  occ. eigenvalues --   -0.39579  -0.39237  -0.39208  -0.39050  -0.38787
 Alpha  occ. eigenvalues --   -0.38727  -0.38648  -0.38615  -0.38535  -0.38338
 Alpha  occ. eigenvalues --   -0.38220  -0.38176  -0.38037  -0.37761  -0.37570
 Alpha  occ. eigenvalues --   -0.37476  -0.37366  -0.37289  -0.37175  -0.37036
 Alpha  occ. eigenvalues --   -0.37033  -0.36803  -0.36548  -0.36469  -0.36254
 Alpha  occ. eigenvalues --   -0.36157  -0.36123  -0.35797  -0.35689  -0.35588
 Alpha  occ. eigenvalues --   -0.35333  -0.34714  -0.34531  -0.34286  -0.34197
 Alpha  occ. eigenvalues --   -0.33700  -0.33637  -0.33414  -0.33157  -0.32840
 Alpha  occ. eigenvalues --   -0.32426  -0.32337  -0.31990  -0.31966  -0.31631
 Alpha  occ. eigenvalues --   -0.31514  -0.31351  -0.30095  -0.29801  -0.29289
 Alpha  occ. eigenvalues --   -0.29209  -0.28713  -0.28248  -0.27373  -0.27000
 Alpha  occ. eigenvalues --   -0.26358  -0.26300  -0.25815  -0.25655  -0.25610
 Alpha  occ. eigenvalues --   -0.25447  -0.25252  -0.24416  -0.21129  -0.20995
 Alpha  occ. eigenvalues --   -0.19319  -0.18772
 Alpha virt. eigenvalues --   -0.11757  -0.11167  -0.05577  -0.04909  -0.04112
 Alpha virt. eigenvalues --   -0.04038  -0.02539  -0.02055  -0.01161  -0.01035
 Alpha virt. eigenvalues --   -0.00260   0.00187   0.00534   0.00648   0.01649

 Mulliken charges:
               1
     1  Mg  12.000000
     2  C    6.000000
     3  C    6.000000
     4  C    6.000000
     5  C    6.000000
     6  N    7.000000
     7  C    6.000000
     8  C    6.000000
     9  C    6.000000
    10  C    6.000000
    11  C    6.000000
    12  C    6.000000
    13  C    6.000000
    14  H    1.000000
    15  N    7.000000
    16  C    6.000000
    17  C    6.000000
    18  C    6.000000
    19  C    6.000000
    20  C    6.000000
    21  C    6.000000
    22  O    8.000000
    23  C    6.000000
    24  N    7.000000
    25  C    6.000000
    26  C    6.000000
    27  C    6.000000
    28  C    6.000000
    29  C    6.000000
    30  C    6.000000
    31  C    6.000000
    32  N    7.000000
    33  C    6.000000
    34  C    6.000000
    35  C    6.000000
    36  C    6.000000
    37  C    6.000000
    38  C    6.000000
    39  O    8.000000
    40  C    6.000000
    41  C    6.000000
    42  O    8.000000
    43  O    8.000000
    44  C    6.000000
    45  H    1.000000
    46  H    1.000000
    47  H    1.000000
    48  H    1.000000
    49  H    1.000000
    50  H    1.000000
    51  H    1.000000
    52  H    1.000000
    53  H    1.000000
    54  H    1.000000
    55  H    1.000000
    56  H    1.000000
    57  H    1.000000
    58  H    1.000000
    59  H    1.000000
    60  H    1.000000
    61  H    1.000000
    62  H    1.000000
    63  H    1.000000
    64  H    1.000000
    65  H    1.000000
    66  H    1.000000
    67  H    1.000000
    68  H    1.000000
    69  H    1.000000
    70  H    1.000000
    71  H    1.000000
    72  H    1.000000
    73  H    1.000000
    74  H    1.000000
    75  H    1.000000
    76  H    1.000000
    77  H    1.000000
    78  H    1.000000
    79  H    1.000000
    80  Mg  12.000000
    81  C    6.000000
    82  C    6.000000
    83  C    6.000000
    84  C    6.000000
    85  N    7.000000
    86  C    6.000000
    87  C    6.000000
    88  C    6.000000
    89  C    6.000000
    90  C    6.000000
    91  C    6.000000
    92  C    6.000000
    93  H    1.000000
    94  N    7.000000
    95  C    6.000000
    96  C    6.000000
    97  C    6.000000
    98  C    6.000000
    99  C    6.000000
   100  C    6.000000
   101  O    8.000000
   102  C    6.000000
   103  N    7.000000
   104  C    6.000000
   105  C    6.000000
   106  C    6.000000
   107  C    6.000000
   108  C    6.000000
   109  C    6.000000
   110  C    6.000000
   111  N    7.000000
   112  C    6.000000
   113  C    6.000000
   114  C    6.000000
   115  C    6.000000
   116  C    6.000000
   117  C    6.000000
   118  O    8.000000
   119  C    6.000000
   120  C    6.000000
   121  O    8.000000
   122  O    8.000000
   123  C    6.000000
   124  H    1.000000
   125  H    1.000000
   126  H    1.000000
   127  H    1.000000
   128  H    1.000000
   129  H    1.000000
   130  H    1.000000
   131  H    1.000000
   132  H    1.000000
   133  H    1.000000
   134  H    1.000000
   135  H    1.000000
   136  H    1.000000
   137  H    1.000000
   138  H    1.000000
   139  H    1.000000
   140  H    1.000000
   141  H    1.000000
   142  H    1.000000
   143  H    1.000000
   144  H    1.000000
   145  H    1.000000
   146  H    1.000000
   147  H    1.000000
   148  H    1.000000
   149  H    1.000000
   150  H    1.000000
   151  H    1.000000
   152  H    1.000000
   153  H    1.000000
   154  H    1.000000
   155  H    1.000000
   156  H    1.000000
   157  H    1.000000
   158  H    1.000000
 Sum of Mulliken charges = 624.00000

 Dipole moment (field-independent basis, Debye):
    X=             -0.0000    Y=              0.0000    Z=             -0.0000  Tot=              0.0000
 Quadrupole moment (field-independent basis, Debye-Ang):
   XX=             -0.0000   YY=              0.0000   ZZ=              0.0000
   XY=              0.0000   XZ=             -0.0000   YZ=              0.0000

 Normal termination of Gaussian 16 at Fri Oct 15 15:39:47 2021.
