 Gaussian 16, Revision A.03,
 Gaussian 16:  ES64L-G16RevA.03 25-Dec-2016

 --------------------------------------------------------
 #p PBE1PBE/Def2SVP td=(nstates=5) density=(transition=1)
 --------------------------------------------------------

 --------------------------------
 TDDFT excited states in gaussian
 --------------------------------
 Symbolic Z-matrix:
 Charge =  0 Multiplicity = 1

                         Standard orientation:
 ---------------------------------------------------------------------
 Center     Atomic      Atomic             Coordinates (Angstroms)
 Number     Number       Type             X           Y           Z
 ---------------------------------------------------------------------
      1         12           0      -20.151245   -0.458227   -0.052653
      2          6           0      -19.525368    2.854076   -0.690388
      3          6           0      -19.417585    0.104142    3.249303
      4          6           0      -20.669713   -3.826388    0.591422
      5          6           0      -20.447508   -1.060455   -3.454110
      6          7           0      -19.478363    1.290766    1.181535
      7          6           0      -19.391315    2.552548    0.666021
      8          6           0      -19.052830    3.515542    1.698419
      9          6           0      -18.792576    2.693439    2.950791
     10          6           0      -19.216892    1.238827    2.465170
     11          6           0      -17.358931    2.717763    3.584834
     12          6           0      -20.173049    4.596947    1.872215
     13          6           0      -19.714171    6.038983    2.282011
     14          1           0      -18.417779    6.157662    3.107189
     15          7           0      -20.159265   -1.645732    1.727442
     16          6           0      -19.838566   -1.189345    2.994439
     17          6           0      -19.937754   -2.314392    3.946234
     18          6           0      -20.316729   -3.493983    3.171161
     19          6           0      -20.422787   -3.025247    1.778480
     20          6           0      -19.645343   -2.216290    5.434585
     21          6           0      -20.664236   -4.867982    3.694777
     22          8           0      -21.046095   -5.740049    2.894698
     23          6           0      -20.552869   -5.285141    5.113450
     24          7           0      -20.432177   -2.222771   -1.253475
     25          6           0      -20.670232   -3.433608   -0.741268
     26          6           0      -21.056265   -4.428006   -1.848911
     27          6           0      -21.247349   -3.506732   -3.173852
     28          6           0      -20.749360   -2.148526   -2.565532
     29          6           0      -19.995675   -5.563167   -1.988651
     30          6           0      -22.705540   -3.376177   -3.692934
     31          6           0      -22.993552   -4.046179   -5.044796
     32          7           0      -19.955040    0.625847   -1.781977
     33          6           0      -20.088596    0.251769   -3.121103
     34          6           0      -19.881203    1.423666   -4.000526
     35          6           0      -19.642590    2.440997   -3.046627
     36          6           0      -19.688595    1.908402   -1.730470
     37          6           0      -19.973995    1.496408   -5.444688
     38          6           0      -19.455416    3.899742   -2.904575
     39          8           0      -19.444134    4.786703   -3.716310
     40          6           0      -19.330712    4.203906   -1.369124
     41          6           0      -18.082458    4.949851   -1.142856
     42          8           0      -16.984480    4.378893   -1.242758
     43          8           0      -18.249258    6.224379   -0.694613
     44          6           0      -17.076236    6.970370   -0.250009
     45          1           0      -19.179098    0.316932    4.293483
     46          1           0      -20.793041   -4.889507    0.809389
     47          1           0      -20.675874   -1.271943   -4.500712
     48          1           0      -18.129919    4.014002    1.399988
     49          1           0      -19.543337    2.889386    3.717224
     50          1           0      -16.556286    3.328654    3.170431
     51          1           0      -16.991030    1.692499    3.616194
     52          1           0      -17.358072    2.963966    4.646951
     53          1           0      -20.942843    4.220748    2.546111
     54          1           0      -20.787312    4.612245    0.972107
     55          1           0      -20.507822    6.538767    2.838098
     56          1           0      -19.442557    6.656874    1.426639
     57          1           0      -19.476235   -1.195363    5.775208
     58          1           0      -18.734776   -2.758015    5.692064
     59          1           0      -20.536363   -2.471901    6.007758
     60          1           0      -20.960511   -6.294109    5.168234
     61          1           0      -21.082108   -4.627408    5.804178
     62          1           0      -19.515133   -5.199216    5.436117
     63          1           0      -22.057819   -4.787892   -1.613028
     64          1           0      -20.575195   -3.793652   -3.982471
     65          1           0      -20.428894   -6.563380   -2.001802
     66          1           0      -19.290688   -5.539703   -1.157214
     67          1           0      -19.457668   -5.307872   -2.901909
     68          1           0      -23.032975   -2.342928   -3.801958
     69          1           0      -23.426132   -3.791145   -2.987860
     70          1           0      -22.315414   -4.888234   -5.183734
     71          1           0      -22.797479   -3.315756   -5.829109
     72          1           0      -24.059442   -4.269961   -5.059151
     73          1           0      -20.115835    2.513951   -5.808143
     74          1           0      -20.773560    0.881225   -5.856952
     75          1           0      -18.985457    1.277832   -5.848831
     76          1           0      -20.229277    4.799728   -1.205321
     77          1           0      -16.363583    7.199777   -1.042690
     78          1           0      -16.604319    6.483779    0.603534
     79          1           0      -17.385566    7.952890    0.106116
     80         12           0       19.341534   -0.797406    0.062656
     81          6           0       21.504456    1.810953   -0.384741
     82          6           0       17.529606    0.972058    2.227887
     83          6           0       17.531538   -3.468849    0.520749
     84          6           0       21.676826   -2.761219   -1.779192
     85          7           0       19.593161    1.150305    0.986333
     86          6           0       20.387194    2.104413    0.439336
     87          6           0       19.964724    3.488664    0.849265
     88          6           0       18.853759    3.153772    1.923693
     89          6           0       18.685107    1.656464    1.782975
     90          6           0       19.174335    3.639626    3.357617
     91          6           0       19.522865    4.463833   -0.404209
     92          6           0       20.086242    5.892138   -0.457108
     93          1           0       20.541374    6.522716    0.896452
     94          7           0       17.718686   -1.128820    1.036138
     95          6           0       17.069111   -0.311372    1.905351
     96          6           0       15.964896   -0.954561    2.574863
     97          6           0       15.830771   -2.155850    1.946803
     98          6           0       17.124336   -2.333837    1.216839
     99          6           0       15.316505   -0.202219    3.722530
    100          6           0       14.727196   -3.218501    2.118603
    101          8           0       14.725026   -4.289813    1.558239
    102          6           0       13.650131   -2.824755    3.085801
    103          7           0       19.700389   -2.868683   -0.423655
    104          6           0       18.687202   -3.726033   -0.204640
    105          6           0       18.984619   -5.094317   -0.826002
    106          6           0       20.149482   -4.778471   -1.824553
    107          6           0       20.571426   -3.387904   -1.307315
    108          6           0       19.305157   -6.310706    0.143216
    109          6           0       19.757732   -4.675011   -3.346708
    110          6           0       18.738774   -3.693018   -3.862124
    111          7           0       21.179379   -0.599626   -0.993040
    112          6           0       22.071035   -1.477252   -1.618236
    113          6           0       23.258278   -0.774635   -2.121387
    114          6           0       23.073163    0.538424   -1.663299
    115          6           0       21.804236    0.553388   -1.003145
    116          6           0       24.373767   -1.317177   -2.977458
    117          6           0       23.619588    1.816369   -1.604045
    118          8           0       24.678243    2.290113   -1.986033
    119          6           0       22.540740    2.746535   -0.991317
    120          6           0       23.316118    3.522769    0.003340
    121          8           0       23.641709    3.125457    1.124660
    122          8           0       23.734876    4.712689   -0.517658
    123          6           0       24.757077    5.489991    0.190167
    124          1           0       16.856608    1.636201    2.774597
    125          1           0       16.946588   -4.388044    0.583116
    126          1           0       22.276880   -3.468818   -2.356428
    127          1           0       20.756647    3.980419    1.414290
    128          1           0       17.907151    3.582163    1.594992
    129          1           0       19.492616    2.785893    3.955771
    130          1           0       18.261976    4.042835    3.797103
    131          1           0       19.974461    4.373909    3.263429
    132          1           0       18.435371    4.510136   -0.345371
    133          1           0       19.831861    4.027748   -1.353657
    134          1           0       19.314441    6.588960   -0.782923
    135          1           0       20.865150    5.953169   -1.217064
    136          1           0       15.974776    0.018291    4.563007
    137          1           0       14.559942   -0.683798    4.341754
    138          1           0       14.902652    0.657220    3.195054
    139          1           0       13.198777   -1.876738    2.794107
    140          1           0       14.183407   -2.856797    4.035676
    141          1           0       12.760571   -3.448703    3.164526
    142          1           0       18.032630   -5.327768   -1.304110
    143          1           0       20.974283   -5.463034   -1.625379
    144          1           0       19.251752   -5.973161    1.177979
    145          1           0       20.343934   -6.622353    0.040689
    146          1           0       18.700399   -7.209416    0.012780
    147          1           0       19.440391   -5.703839   -3.518649
    148          1           0       20.619856   -4.469184   -3.980318
    149          1           0       18.232462   -3.218161   -3.020715
    150          1           0       17.969633   -4.207551   -4.437927
    151          1           0       19.122994   -2.851054   -4.437601
    152          1           0       25.303328   -1.436107   -2.422562
    153          1           0       24.535620   -0.659386   -3.831567
    154          1           0       24.027193   -2.322082   -3.219906
    155          1           0       22.037617    3.342837   -1.752717
    156          1           0       25.321192    6.137387   -0.482253
    157          1           0       25.354463    4.868371    0.855361
    158          1           0       24.330457    6.159632    0.936721
 ---------------------------------------------------------------------

 SCF Done:  E(RPBE1PBE) =  -4067.40765084     A.U. after   16 cycles

 Excitation energies and oscillator strengths:

 Excited State   1:      Singlet-A      1.8897 eV  656.10 nm  f=0.3507  <S**2>=0.000
     309 -> 315       -0.17980
     311 -> 313        0.68848
     311 <- 313       -0.10419
 This state for optimization and/or second-order correction.
 Total Energy, E(TD-HF/TD-DFT) =  -4067.33820507
 Copying the excited state density for this state as the 1-particle RhoCI density.

 Excited State   2:      Singlet-A      1.8950 eV  654.27 nm  f=0.3853  <S**2>=0.000
     310 -> 316       -0.18658
     312 -> 314        0.68694

 Excited State   3:      Singlet-A      1.9386 eV  639.54 nm  f=0.0000  <S**2>=0.000
     312 -> 313        0.70711

 Excited State   4:      Singlet-A      2.1107 eV  587.40 nm  f=0.0000  <S**2>=0.000
     311 -> 314        0.70710

 Excited State   5:      Singlet-A      2.2581 eV  549.07 nm  f=0.0596  <S**2>=0.000
     310 -> 314        0.63580
     312 -> 316        0.29817

 The electronic state is 1-A.
 Alpha  occ. eigenvalues --  -46.92311 -46.91351 -19.26615 -19.24609 -19.19919
 Alpha  occ. eigenvalues --  -19.19562 -19.19294 -19.18634 -19.18594 -19.18082
 Alpha  occ. eigenvalues --  -14.41347 -14.41254 -14.41168 -14.40556 -14.39528
 Alpha  occ. eigenvalues --  -14.39215 -14.38930 -14.38482 -10.36587 -10.35313
 Alpha  occ. eigenvalues --  -10.32890 -10.32081 -10.32055 -10.30817 -10.29567
 Alpha  occ. eigenvalues --  -10.28773 -10.28359 -10.28357 -10.28307 -10.28283
 Alpha  occ. eigenvalues --  -10.28155 -10.28070 -10.27919 -10.27858 -10.27821
 Alpha  occ. eigenvalues --  -10.27738 -10.27706 -10.27508 -10.26921 -10.26848
 Alpha  occ. eigenvalues --  -10.26840 -10.26721 -10.26534 -10.26408 -10.26284
 Alpha  occ. eigenvalues --  -10.26110 -10.26099 -10.25930 -10.25830 -10.25729
 Alpha  occ. eigenvalues --  -10.25689 -10.25675 -10.25638 -10.25480 -10.25410
 Alpha  occ. eigenvalues --  -10.25401 -10.25279 -10.25267 -10.25252 -10.25229
 Alpha  occ. eigenvalues --  -10.25122 -10.25117 -10.25027 -10.25027 -10.25003
 Alpha  occ. eigenvalues --  -10.24807 -10.24656 -10.24150 -10.24075 -10.23966
 Alpha  occ. eigenvalues --  -10.23728 -10.23696 -10.23645 -10.23572 -10.23529
 Alpha  occ. eigenvalues --  -10.23512 -10.23474 -10.23459 -10.23369 -10.23125
 Alpha  occ. eigenvalues --  -10.23050 -10.23043 -10.22827 -10.22720 -10.22638
 Alpha  occ. eigenvalues --  -10.22010  -3.14319  -3.13778  -1.87181  -1.86676
 Alpha  occ. eigenvalues --   -1.86585  -1.86548  -1.86168  -1.86035  -1.11225
 Alpha  occ. eigenvalues --   -1.09652  -1.06068  -1.05744  -1.03910  -1.03628
 Alpha  occ. eigenvalues --   -1.01941  -1.00775  -1.00134  -0.99774  -0.99268
 Alpha  occ. eigenvalues --   -0.98832  -0.98751  -0.98090  -0.97775  -0.95629
 Alpha  occ. eigenvalues --   -0.86870  -0.86811  -0.83785  -0.83454  -0.82684
 Alpha  occ. eigenvalues --   -0.82611  -0.82267  -0.82239  -0.82047  -0.81811
 Alpha  occ. eigenvalues --   -0.81543  -0.81108  -0.81009  -0.80491  -0.78628
 Alpha  occ. eigenvalues --   -0.78284  -0.77889  -0.77864  -0.76866  -0.76712
 Alpha  occ. eigenvalues --   -0.76614  -0.76029  -0.75552  -0.75395  -0.74933
 Alpha  occ. eigenvalues --   -0.74819  -0.73205  -0.72788  -0.71889  -0.71848
 Alpha  occ. eigenvalues --   -0.71647  -0.71311  -0.70580  -0.70024  -0.69539
 Alpha  occ. eigenvalues --   -0.69276  -0.67146  -0.67098  -0.66108  -0.66014
 Alpha  occ. eigenvalues --   -0.63990  -0.63584  -0.63426  -0.62774  -0.62626
 Alpha  occ. eigenvalues --   -0.62501  -0.61654  -0.61395  -0.60294  -0.59882
 Alpha  occ. eigenvalues --   -0.59830  -0.59641  -0.59471  -0.59248  -0.58916
 Alpha  occ. eigenvalues --   -0.58333  -0.57349  -0.56348  -0.55537  -0.54428
 Alpha  occ. eigenvalues --   -0.54145  -0.53913  -0.53811  -0.53804  -0.53254
 Alpha  occ. eigenvalues --   -0.52939  -0.52571  -0.52372  -0.52120  -0.51897
 Alpha  occ. eigenvalues --   -0.50832  -0.50721  -0.50354  -0.49947  -0.49866
 Alpha  occ. eigenvalues --   -0.49621  -0.49306  -0.49169  -0.48722  -0.48554
 Alpha  occ. eigenvalues --   -0.48210  -0.48095  -0.47810  -0.47643  -0.47398
 Alpha  occ. eigenvalues --   -0.47299  -0.47035  -0.46968  -0.46880  -0.46825
 Alpha  occ. eigenvalues --   -0.46639  -0.46282  -0.46145  -0.46144  -0.45852
 Alpha  occ. eigenvalues --   -0.45820  -0.45764  -0.45239  -0.44974  -0.44896
 Alpha  occ. eigenvalues --   -0.44838  -0.44553  -0.44449  -0.43995  -0.43960
 Alpha  occ. eigenvalues --   -0.43924  -0.43725  -0.43585  -0.43404  -0.43176
 Alpha  occ. eigenvalues --   -0.43147  -0.43086  -0.42798  -0.42718  -0.42656
 Alpha  occ. eigenvalues --   -0.42623  -0.42385  -0.42152  -0.41891  -0.41848
 Alpha  occ. eigenvalues --   -0.41805  -0.41487  -0.41391  -0.41340  -0.41237
 Alpha  occ. eigenvalues --   -0.40986  -0.40684  -0.40520  -0.40488  -0.40305
 Alpha  occ. eigenvalues --   -0.40247  -0.40044  -0.39949  -0.39776  -0.39663
 Alpha  occ. eigenvalues --   -0.39352  -0.39271  -0.39168  -0.38871  -0.38708
 Alpha  occ. eigenvalues --   -0.38632  -0.38612  -0.38456  -0.38348  -0.38106
 Alpha  occ. eigenvalues --   -0.38015  -0.37930  -0.37863  -0.37744  -0.37678
 Alpha  occ. eigenvalues --   -0.37554  -0.37206  -0.37056  -0.37010  -0.36757
 Alpha  occ. eigenvalues --   -0.36639  -0.36417  -0.36376  -0.36083  -0.36015
 Alpha  occ. eigenvalues --   -0.35916  -0.35791  -0.35631  -0.35576  -0.35410
 Alpha  occ. eigenvalues --   -0.35298  -0.34894  -0.34544  -0.34480  -0.34148
 Alpha  occ. eigenvalues --   -0.33461  -0.33189  -0.33179  -0.32511  -0.32226
 Alpha  occ. eigenvalues --   -0.32065  -0.31757  -0.31695  -0.31498  -0.31372
 Alpha  occ. eigenvalues --   -0.31109  -0.30111  -0.29573  -0.29292  -0.28950
 Alpha  occ. eigenvalues --   -0.28723  -0.28529  -0.27862  -0.27675  -0.26723
 Alpha  occ. eigenvalues --   -0.26349  -0.26128  -0.25831  -0.25702  -0.25579
 Alpha  occ. eigenvalues --   -0.25519  -0.25155  -0.25115  -0.20843  -0.20666
 Alpha  occ. eigenvalues --   -0.18529  -0.18268
 Alpha virt. eigenvalues --   -0.10813  -0.10438  -0.05243  -0.05219  -0.03923
 Alpha virt. eigenvalues --   -0.03679  -0.01860  -0.01852  -0.00267  -0.00051
 Alpha virt. eigenvalues --    0.00320   0.00951   0.01285   0.01669   0.01912

 Mulliken charges:
               1
     1  Mg  12.000542
     2  C    6.025526
     3  C    5.999159
     4  C    5.970522
     5  C    5.996223
     6  N    7.011260
     7  C    5.968588
     8  C    6.011904
     9  C    5.996409
    10  C    6.026683
    11  C    5.999349
    12  C    6.003832
    13  C    6.000850
    14  H    0.993506
    15  N    6.993266
    16  C    6.032346
    17  C    6.026271
    18  C    6.011913
    19  C    6.033711
    20  C    5.996594
    21  C    6.010381
    22  O    8.029228
    23  C    5.996368
    24  N    6.986141
    25  C    6.035031
    26  C    5.990754
    27  C    6.010397
    28  C    5.971764
    29  C    5.997331
    30  C    6.006924
    31  C    5.998943
    32  N    7.004632
    33  C    5.969384
    34  C    5.970425
    35  C    6.000415
    36  C    5.968802
    37  C    6.003602
    38  C    5.981662
    39  O    7.973294
    40  C    5.995657
    41  C    5.998306
    42  O    7.996643
    43  O    7.998597
    44  C    6.002339
    45  H    1.012531
    46  H    1.001945
    47  H    0.986136
    48  H    0.999472
    49  H    0.999621
    50  H    1.012057
    51  H    0.996094
    52  H    1.002949
    53  H    0.990972
    54  H    1.005707
    55  H    0.997927
    56  H    1.004225
    57  H    1.015851
    58  H    1.018723
    59  H    1.017532
    60  H    1.013122
    61  H    1.005627
    62  H    1.006351
    63  H    0.998154
    64  H    0.998357
    65  H    1.000204
    66  H    0.993504
    67  H    1.009354
    68  H    1.002687
    69  H    0.987709
    70  H    0.994598
    71  H    1.002946
    72  H    0.994808
    73  H    0.985403
    74  H    0.984572
    75  H    0.980372
    76  H    0.995098
    77  H    0.999228
    78  H    0.994229
    79  H    0.996458
    80  Mg  12.000037
    81  C    5.998711
    82  C    6.000486
    83  C    6.001163
    84  C    5.999803
    85  N    6.999393
    86  C    6.001918
    87  C    5.999239
    88  C    6.000648
    89  C    5.998182
    90  C    6.000148
    91  C    5.999813
    92  C    5.999909
    93  H    1.000212
    94  N    7.000253
    95  C    5.998120
    96  C    5.998780
    97  C    5.999072
    98  C    5.998409
    99  C    6.000100
   100  C    5.999180
   101  O    7.998462
   102  C    6.000332
   103  N    7.000223
   104  C    5.998207
   105  C    6.000426
   106  C    5.999633
   107  C    6.001517
   108  C    6.000018
   109  C    5.999511
   110  C    5.999698
   111  N    7.000037
   112  C    6.001712
   113  C    6.001758
   114  C    6.000170
   115  C    6.001296
   116  C    5.999865
   117  C    6.000975
   118  O    8.001869
   119  C    6.000099
   120  C    6.000205
   121  O    8.000443
   122  O    8.000023
   123  C    5.999820
   124  H    0.999306
   125  H    0.999718
   126  H    1.000720
   127  H    1.000044
   128  H    0.999958
   129  H    0.999928
   130  H    0.999987
   131  H    0.999258
   132  H    1.000567
   133  H    0.999731
   134  H    1.000217
   135  H    0.999764
   136  H    0.998902
   137  H    0.999086
   138  H    0.999304
   139  H    0.999683
   140  H    0.999641
   141  H    0.999121
   142  H    1.000201
   143  H    1.000084
   144  H    1.000192
   145  H    0.999417
   146  H    0.999932
   147  H    1.000630
   148  H    0.999819
   149  H    1.000724
   150  H    1.000372
   151  H    0.999784
   152  H    1.001110
   153  H    1.000986
   154  H    1.000880
   155  H    1.000421
   156  H    1.000188
   157  H    1.000067
   158  H    1.000388
 Sum of Mulliken charges = 624.00000

 Dipole moment (field-independent basis, Debye):
    X=              0.6078    Y=             -4.6244    Z=              8.7247  Tot=              9.8932
 Quadrupole moment (field-independent basis, Debye-Ang):
   XX=             13.8778   YY=              2.9915   ZZ=              0.5678
   XY=             94.0664   XZ=           -186.6879   YZ=             -6.4808

 Normal termination of Gaussian 16 at Fri Oct 15 00:42:07 2021.
