 Gaussian 16, Revision A.03,
 Gaussian 16:  ES64L-G16RevA.03 25-Dec-2016

 --------------------------------------------------------
 #p PBE1PBE/Def2SVP td=(nstates=5) density=(transition=1)
 --------------------------------------------------------

 --------------------------------
 TDDFT excited states in gaussian
 --------------------------------
 Symbolic Z-matrix:
 Charge =  0 Multiplicity = 1

                         Standard orientation:
 ---------------------------------------------------------------------
 Center     Atomic      Atomic             Coordinates (Angstroms)
 Number     Number       Type             X           Y           Z
 ---------------------------------------------------------------------
      1         12           0       -9.364904   -0.842398    0.494985
      2          6           0      -10.179413    2.287866   -0.502382
      3          6           0       -7.364778    0.478859    3.008652
      4          6           0       -8.545534   -3.973415    1.488379
      5          6           0      -10.951495   -2.144962   -2.292326
      6          7           0       -8.975416    1.113387    1.170824
      7          6           0       -9.370957    2.287456    0.617203
      8          6           0       -9.025993    3.474696    1.477936
      9          6           0       -7.904532    2.912504    2.431757
     10          6           0       -8.116455    1.379266    2.208089
     11          6           0       -6.406433    3.412744    2.289556
     12          6           0      -10.277032    3.966759    2.336150
     13          6           0      -10.165894    5.464451    2.747735
     14          1           0       -8.805549    6.161677    2.916504
     15          7           0       -8.054545   -1.688918    1.996565
     16          6           0       -7.329981   -0.918222    2.943258
     17          6           0       -6.615183   -1.793356    3.822747
     18          6           0       -6.930784   -3.129764    3.387589
     19          6           0       -7.898638   -2.940608    2.248561
     20          6           0       -5.808645   -1.347729    4.991782
     21          6           0       -6.451575   -4.465680    3.944426
     22          8           0       -6.681276   -5.602392    3.436581
     23          6           0       -5.604310   -4.485956    5.205352
     24          7           0       -9.633222   -2.770186   -0.311697
     25          6           0       -9.366634   -3.951137    0.382896
     26          6           0      -10.055291   -5.217579   -0.202889
     27          6           0      -10.873742   -4.514068   -1.424768
     28          6           0      -10.513777   -3.075439   -1.350802
     29          6           0       -8.976650   -6.212498   -0.650229
     30          6           0      -12.349026   -4.786884   -1.419078
     31          6           0      -12.851344   -5.392775   -2.698347
     32          7           0      -10.254521   -0.201524   -1.126202
     33          6           0      -10.900019   -0.804182   -2.198772
     34          6           0      -11.429387    0.181495   -3.066618
     35          6           0      -11.149934    1.450891   -2.492868
     36          6           0      -10.526229    1.178914   -1.256924
     37          6           0      -12.187952    0.006712   -4.325962
     38          6           0      -11.195682    2.880485   -2.708747
     39          8           0      -11.570052    3.602839   -3.611803
     40          6           0      -10.607634    3.454999   -1.333733
     41          6           0       -9.721987    4.629999   -1.543968
     42          8           0       -8.874703    4.749734   -2.391663
     43          8           0       -9.965755    5.638066   -0.692154
     44          6           0       -9.080795    6.824092   -0.871600
     45          1           0       -6.638185    0.991934    3.642310
     46          1           0       -8.167397   -4.967049    1.737359
     47          1           0      -11.565887   -2.475353   -3.132367
     48          1           0       -8.526966    4.264723    0.917002
     49          1           0       -8.215344    3.085510    3.461580
     50          1           0       -6.402484    4.212071    1.548410
     51          1           0       -5.650750    2.676406    2.020594
     52          1           0       -6.102819    3.761261    3.276884
     53          1           0      -10.301774    3.284631    3.186149
     54          1           0      -11.165165    3.823235    1.720624
     55          1           0      -10.709700    5.483039    3.692387
     56          1           0      -10.807577    6.014706    2.060085
     57          1           0       -6.369550   -1.133547    5.901569
     58          1           0       -5.257117   -0.475524    4.643065
     59          1           0       -4.964680   -2.002916    5.205491
     60          1           0       -4.581357   -4.299142    4.878950
     61          1           0       -5.684046   -5.506969    5.577738
     62          1           0       -5.884807   -3.732687    5.941776
     63          1           0      -10.610671   -5.664702    0.621659
     64          1           0      -10.495940   -4.914049   -2.366321
     65          1           0       -7.950904   -5.843687   -0.631272
     66          1           0       -9.273361   -6.648096   -1.604040
     67          1           0       -8.974671   -7.002411    0.101417
     68          1           0      -12.952839   -3.885820   -1.310598
     69          1           0      -12.690271   -5.428591   -0.606658
     70          1           0      -13.479995   -6.268466   -2.539457
     71          1           0      -12.027926   -5.709407   -3.337974
     72          1           0      -13.322711   -4.558612   -3.218876
     73          1           0      -11.943397   -0.878558   -4.913733
     74          1           0      -11.761312    0.769192   -4.978292
     75          1           0      -13.258097    0.069298   -4.128256
     76          1           0      -11.553698    3.827469   -0.939810
     77          1           0       -9.380251    7.434015   -1.725088
     78          1           0       -8.025328    6.552067   -0.852269
     79          1           0       -9.197332    7.467733    0.000665
     80         12           0        9.397389   -0.539128   -0.016898
     81          6           0        7.935213    2.581447   -0.007628
     82          6           0       12.300524    0.967445    0.987636
     83          6           0       10.914562   -3.542662   -0.302171
     84          6           0        6.586424   -1.855141   -1.583971
     85          7           0       10.010597    1.625952    0.295069
     86          6           0        9.247498    2.640324    0.437303
     87          6           0        9.946311    4.003801    0.948159
     88          6           0       11.440072    3.490014    0.965790
     89          6           0       11.297563    1.925297    0.653348
     90          6           0       12.400410    4.134026   -0.165620
     91          6           0        9.435534    4.549285    2.351677
     92          6           0        9.447906    6.102368    2.580580
     93          1           0       10.176484    6.925812    1.561885
     94          7           0       11.261458   -1.206184    0.358568
     95          6           0       12.375251   -0.432548    0.872501
     96          6           0       13.488917   -1.353212    1.075992
     97          6           0       13.139704   -2.642060    0.601259
     98          6           0       11.711100   -2.519779    0.232805
     99          6           0       14.707708   -0.804759    1.726373
    100          6           0       13.939280   -3.965573    0.565809
    101          8           0       13.583004   -4.982518    0.048983
    102          6           0       15.381370   -3.867308    1.103202
    103          7           0        8.920243   -2.452324   -0.918786
    104          6           0        9.665551   -3.511937   -0.922215
    105          6           0        9.067888   -4.633664   -1.818185
    106          6           0        7.637041   -4.134076   -2.131095
    107          6           0        7.674580   -2.722635   -1.499282
    108          6           0        9.939322   -4.866655   -3.070707
    109          6           0        6.535715   -5.086121   -1.571754
    110          6           0        6.399512   -6.426773   -2.311537
    111          7           0        7.583702    0.181923   -0.685710
    112          6           0        6.505929   -0.508427   -1.211129
    113          6           0        5.441951    0.448536   -1.364736
    114          6           0        5.922685    1.726753   -0.950527
    115          6           0        7.245134    1.437998   -0.516311
    116          6           0        4.163719    0.163129   -1.905215
    117          6           0        5.634768    3.104197   -0.706441
    118          8           0        4.586080    3.753206   -0.997335
    119          6           0        6.991827    3.722768   -0.191083
    120          6           0        7.377449    4.756955   -1.127320
    121          8           0        7.957225    4.549511   -2.192954
    122          8           0        6.841858    5.934521   -0.671245
    123          6           0        6.932132    7.032516   -1.656829
    124          1           0       13.247396    1.423117    1.283157
    125          1           0       11.462964   -4.486826   -0.342437
    126          1           0        5.702589   -2.333223   -2.012516
    127          1           0        9.796772    4.690966    0.114977
    128          1           0       11.900738    3.711863    1.928224
    129          1           0       11.765007    4.543754   -0.951299
    130          1           0       13.048627    3.361703   -0.579375
    131          1           0       13.072718    4.926652    0.164398
    132          1           0       10.129512    4.104249    3.064230
    133          1           0        8.526816    4.093647    2.746531
    134          1           0        9.849548    6.400705    3.548894
    135          1           0        8.427333    6.478373    2.508224
    136          1           0       15.357472   -0.332655    0.988914
    137          1           0       15.193273   -1.518191    2.392362
    138          1           0       14.372931   -0.030253    2.416013
    139          1           0       15.458394   -3.796885    2.188643
    140          1           0       15.735861   -2.970135    0.596746
    141          1           0       16.060901   -4.658452    0.787698
    142          1           0        9.046008   -5.486158   -1.139726
    143          1           0        7.525683   -3.997426   -3.206721
    144          1           0       10.554013   -4.022379   -3.383653
    145          1           0        9.434524   -5.072043   -4.015270
    146          1           0       10.583128   -5.709151   -2.818254
    147          1           0        5.567789   -4.596613   -1.670170
    148          1           0        6.713032   -5.271618   -0.511851
    149          1           0        7.200805   -6.477919   -3.048717
    150          1           0        5.528985   -6.379122   -2.965936
    151          1           0        6.299768   -7.343158   -1.730321
    152          1           0        3.873286   -0.775817   -1.433752
    153          1           0        4.120058   -0.004048   -2.981309
    154          1           0        3.516667    1.024213   -1.734857
    155          1           0        6.702680    4.187019    0.752133
    156          1           0        6.283709    6.746877   -2.485595
    157          1           0        7.965136    7.269342   -1.909455
    158          1           0        6.509329    7.921298   -1.188163
 ---------------------------------------------------------------------

 SCF Done:  E(RPBE1PBE) =  -4067.39324287     A.U. after   17 cycles

 Excitation energies and oscillator strengths:

 Excited State   1:      Singlet-A      1.8018 eV  688.11 nm  f=0.3841  <S**2>=0.000
     309 -> 316       -0.16355
     312 -> 313        0.69727
     312 <- 313       -0.11961
 This state for optimization and/or second-order correction.
 Total Energy, E(TD-HF/TD-DFT) =  -4067.32702726
 Copying the excited state density for this state as the 1-particle RhoCI density.

 Excited State   2:      Singlet-A      1.8514 eV  669.69 nm  f=0.0000  <S**2>=0.000
     311 -> 313        0.70707

 Excited State   3:      Singlet-A      1.8972 eV  653.53 nm  f=0.0000  <S**2>=0.000
     312 -> 314        0.70706

 Excited State   4:      Singlet-A      1.9092 eV  649.39 nm  f=0.3652  <S**2>=0.000
     310 -> 315       -0.19433
     311 -> 314        0.68519

 Excited State   5:      Singlet-A      2.2081 eV  561.49 nm  f=0.0767  <S**2>=0.000
     310 -> 314        0.65093
     311 -> 315        0.24923

 The electronic state is 1-A.
 Alpha  occ. eigenvalues --  -46.91805 -46.90458 -19.25636 -19.25461 -19.20181
 Alpha  occ. eigenvalues --  -19.19538 -19.19322 -19.18835 -19.18663 -19.18641
 Alpha  occ. eigenvalues --  -14.42177 -14.41594 -14.41199 -14.41063 -14.39317
 Alpha  occ. eigenvalues --  -14.39030 -14.38656 -14.38388 -10.35543 -10.35440
 Alpha  occ. eigenvalues --  -10.33235 -10.32257 -10.32153 -10.32044 -10.29451
 Alpha  occ. eigenvalues --  -10.29125 -10.29000 -10.28556 -10.28486 -10.28380
 Alpha  occ. eigenvalues --  -10.28359 -10.28193 -10.28164 -10.28148 -10.28117
 Alpha  occ. eigenvalues --  -10.27970 -10.27631 -10.27452 -10.26875 -10.26828
 Alpha  occ. eigenvalues --  -10.26759 -10.26748 -10.26744 -10.26720 -10.26569
 Alpha  occ. eigenvalues --  -10.26413 -10.26225 -10.26003 -10.25944 -10.25926
 Alpha  occ. eigenvalues --  -10.25735 -10.25595 -10.25412 -10.25399 -10.25377
 Alpha  occ. eigenvalues --  -10.25368 -10.25367 -10.25344 -10.25286 -10.25282
 Alpha  occ. eigenvalues --  -10.25245 -10.25119 -10.24960 -10.24959 -10.24789
 Alpha  occ. eigenvalues --  -10.24698 -10.24464 -10.24427 -10.24376 -10.24193
 Alpha  occ. eigenvalues --  -10.24126 -10.23587 -10.23548 -10.23418 -10.23174
 Alpha  occ. eigenvalues --  -10.23153 -10.23095 -10.22997 -10.22967 -10.22933
 Alpha  occ. eigenvalues --  -10.22925 -10.22887 -10.22791 -10.22497 -10.22392
 Alpha  occ. eigenvalues --  -10.22180  -3.13995  -3.12888  -1.86829  -1.86374
 Alpha  occ. eigenvalues --   -1.86222  -1.85722  -1.85242  -1.85158  -1.11938
 Alpha  occ. eigenvalues --   -1.10280  -1.07101  -1.04761  -1.02033  -1.02006
 Alpha  occ. eigenvalues --   -1.01936  -1.01592  -1.00006  -0.98985  -0.98968
 Alpha  occ. eigenvalues --   -0.98262  -0.98130  -0.97244  -0.95945  -0.95328
 Alpha  occ. eigenvalues --   -0.87618  -0.86945  -0.83932  -0.83584  -0.82997
 Alpha  occ. eigenvalues --   -0.82706  -0.82577  -0.82034  -0.81922  -0.81820
 Alpha  occ. eigenvalues --   -0.81425  -0.81299  -0.81092  -0.80608  -0.78563
 Alpha  occ. eigenvalues --   -0.78201  -0.77965  -0.77701  -0.76641  -0.76561
 Alpha  occ. eigenvalues --   -0.75819  -0.75779  -0.75359  -0.75274  -0.74660
 Alpha  occ. eigenvalues --   -0.74578  -0.72751  -0.72506  -0.72012  -0.71689
 Alpha  occ. eigenvalues --   -0.71515  -0.70713  -0.70672  -0.70041  -0.69483
 Alpha  occ. eigenvalues --   -0.69162  -0.67233  -0.66688  -0.66184  -0.65893
 Alpha  occ. eigenvalues --   -0.63716  -0.63393  -0.63139  -0.62971  -0.62675
 Alpha  occ. eigenvalues --   -0.62458  -0.61340  -0.61008  -0.60194  -0.60172
 Alpha  occ. eigenvalues --   -0.59777  -0.59681  -0.59290  -0.59211  -0.58628
 Alpha  occ. eigenvalues --   -0.58562  -0.56772  -0.56140  -0.54780  -0.54467
 Alpha  occ. eigenvalues --   -0.54325  -0.53964  -0.53678  -0.53434  -0.52895
 Alpha  occ. eigenvalues --   -0.52894  -0.52453  -0.52423  -0.52201  -0.52147
 Alpha  occ. eigenvalues --   -0.50575  -0.50530  -0.50168  -0.49761  -0.49736
 Alpha  occ. eigenvalues --   -0.49628  -0.49481  -0.49090  -0.48544  -0.48415
 Alpha  occ. eigenvalues --   -0.47858  -0.47837  -0.47648  -0.47499  -0.47382
 Alpha  occ. eigenvalues --   -0.47357  -0.47150  -0.46978  -0.46793  -0.46746
 Alpha  occ. eigenvalues --   -0.46566  -0.46494  -0.46457  -0.45942  -0.45788
 Alpha  occ. eigenvalues --   -0.45634  -0.45597  -0.45434  -0.45281  -0.44894
 Alpha  occ. eigenvalues --   -0.44803  -0.44522  -0.44341  -0.44126  -0.44068
 Alpha  occ. eigenvalues --   -0.43710  -0.43565  -0.43483  -0.43329  -0.43136
 Alpha  occ. eigenvalues --   -0.43067  -0.42967  -0.42788  -0.42729  -0.42593
 Alpha  occ. eigenvalues --   -0.42463  -0.42449  -0.42274  -0.41891  -0.41728
 Alpha  occ. eigenvalues --   -0.41652  -0.41290  -0.41265  -0.41221  -0.41137
 Alpha  occ. eigenvalues --   -0.40996  -0.40932  -0.40700  -0.40557  -0.40361
 Alpha  occ. eigenvalues --   -0.39901  -0.39871  -0.39673  -0.39633  -0.39462
 Alpha  occ. eigenvalues --   -0.39257  -0.39168  -0.39053  -0.38913  -0.38749
 Alpha  occ. eigenvalues --   -0.38602  -0.38482  -0.38278  -0.38192  -0.38021
 Alpha  occ. eigenvalues --   -0.37886  -0.37878  -0.37767  -0.37568  -0.37468
 Alpha  occ. eigenvalues --   -0.37125  -0.37118  -0.37044  -0.36707  -0.36649
 Alpha  occ. eigenvalues --   -0.36608  -0.36477  -0.36281  -0.36150  -0.36052
 Alpha  occ. eigenvalues --   -0.35825  -0.35627  -0.35462  -0.35235  -0.35182
 Alpha  occ. eigenvalues --   -0.35151  -0.35142  -0.34877  -0.34677  -0.34299
 Alpha  occ. eigenvalues --   -0.33157  -0.33121  -0.32933  -0.32879  -0.32608
 Alpha  occ. eigenvalues --   -0.32546  -0.32131  -0.31953  -0.31942  -0.31482
 Alpha  occ. eigenvalues --   -0.31462  -0.31384  -0.29724  -0.29551  -0.29288
 Alpha  occ. eigenvalues --   -0.29082  -0.28577  -0.28290  -0.26951  -0.26891
 Alpha  occ. eigenvalues --   -0.26236  -0.25834  -0.25764  -0.25417  -0.25382
 Alpha  occ. eigenvalues --   -0.25351  -0.25092  -0.24947  -0.21090  -0.20603
 Alpha  occ. eigenvalues --   -0.18823  -0.18597
 Alpha virt. eigenvalues --   -0.11299  -0.10919  -0.05126  -0.05025  -0.04212
 Alpha virt. eigenvalues --   -0.03990  -0.02265  -0.02032  -0.00120   0.00222
 Alpha virt. eigenvalues --    0.00884   0.00970   0.01317   0.01369   0.01516

 Mulliken charges:
               1
     1  Mg  12.004228
     2  C    5.978719
     3  C    5.999216
     4  C    6.030882
     5  C    6.015525
     6  N    6.985512
     7  C    6.031565
     8  C    5.988290
     9  C    6.009560
    10  C    5.968680
    11  C    6.004399
    12  C    5.997402
    13  C    5.999953
    14  H    1.005859
    15  N    7.003438
    16  C    5.962250
    17  C    5.986107
    18  C    5.978864
    19  C    5.970047
    20  C    6.003577
    21  C    5.986352
    22  O    7.962585
    23  C    6.004885
    24  N    7.019796
    25  C    5.967285
    26  C    6.009297
    27  C    5.988509
    28  C    6.017992
    29  C    5.999796
    30  C    5.993684
    31  C    5.999725
    32  N    6.997411
    33  C    6.019430
    34  C    6.034819
    35  C    6.000762
    36  C    6.029101
    37  C    5.997082
    38  C    6.013815
    39  O    8.023582
    40  C    6.003578
    41  C    6.003178
    42  O    8.002179
    43  O    8.001948
    44  C    5.998552
    45  H    0.985318
    46  H    1.001404
    47  H    1.014824
    48  H    0.999192
    49  H    0.996522
    50  H    0.985152
    51  H    1.000504
    52  H    0.996775
    53  H    1.011076
    54  H    0.992819
    55  H    1.002259
    56  H    0.995672
    57  H    0.981823
    58  H    0.987220
    59  H    0.986238
    60  H    0.989892
    61  H    0.985683
    62  H    0.993088
    63  H    1.003713
    64  H    1.004145
    65  H    1.004910
    66  H    0.992599
    67  H    1.005162
    68  H    0.998273
    69  H    1.012437
    70  H    1.007143
    71  H    1.003894
    72  H    0.996024
    73  H    1.016572
    74  H    1.015383
    75  H    1.021212
    76  H    1.003538
    77  H    1.000432
    78  H    1.004950
    79  H    1.004733
    80  Mg  12.000393
    81  C    5.999790
    82  C    6.000112
    83  C    6.000370
    84  C    6.000272
    85  N    6.999840
    86  C    6.000607
    87  C    5.999670
    88  C    6.000300
    89  C    5.999208
    90  C    6.000119
    91  C    5.999819
    92  C    6.000159
    93  H    0.999505
    94  N    7.000138
    95  C    5.999250
    96  C    5.999558
    97  C    5.999472
    98  C    5.999453
    99  C    6.000092
   100  C    5.999707
   101  O    7.999335
   102  C    6.000128
   103  N    7.000021
   104  C    5.999505
   105  C    6.000131
   106  C    5.999591
   107  C    6.000775
   108  C    6.000177
   109  C    5.999859
   110  C    6.000170
   111  N    6.999825
   112  C    6.000844
   113  C    6.001088
   114  C    5.999980
   115  C    6.000607
   116  C    5.999869
   117  C    6.000825
   118  O    8.000664
   119  C    5.999843
   120  C    6.000002
   121  O    7.999806
   122  O    8.000214
   123  C    6.000081
   124  H    0.999589
   125  H    0.999792
   126  H    1.000293
   127  H    0.999745
   128  H    0.999881
   129  H    0.999525
   130  H    0.999918
   131  H    0.999614
   132  H    1.000289
   133  H    1.000422
   134  H    1.000061
   135  H    1.000025
   136  H    0.999306
   137  H    0.999599
   138  H    0.999740
   139  H    0.999827
   140  H    0.999751
   141  H    0.999446
   142  H    1.000229
   143  H    0.999664
   144  H    0.999788
   145  H    0.999481
   146  H    0.999954
   147  H    1.000452
   148  H    1.000698
   149  H    0.999592
   150  H    0.999832
   151  H    1.000359
   152  H    1.001431
   153  H    0.999815
   154  H    1.000591
   155  H    1.000518
   156  H    0.999681
   157  H    0.999922
   158  H    0.999995
 Sum of Mulliken charges = 624.00000

 Dipole moment (field-independent basis, Debye):
    X=             -6.2314    Y=              2.5648    Z=             -8.1870  Tot=             10.6036
 Quadrupole moment (field-independent basis, Debye-Ang):
   XX=            101.3966   YY=             -3.4063   ZZ=             -7.2070
   XY=            -14.6093   XZ=             70.4367   YZ=             10.2366

 Normal termination of Gaussian 16 at Fri Oct 15 03:25:13 2021.
