 Gaussian 16, Revision A.03,
 Gaussian 16:  ES64L-G16RevA.03 25-Dec-2016

 --------------------------------------------------------
 #p PBE1PBE/Def2SVP td=(nstates=5) density=(transition=1)
 --------------------------------------------------------

 --------------------------------
 TDDFT excited states in gaussian
 --------------------------------
 Symbolic Z-matrix:
 Charge =  0 Multiplicity = 1

                         Standard orientation:
 ---------------------------------------------------------------------
 Center     Atomic      Atomic             Coordinates (Angstroms)
 Number     Number       Type             X           Y           Z
 ---------------------------------------------------------------------
      1         12           0       28.228591    0.563058    0.121092
      2          6           0       24.754984   -0.092405   -0.863813
      3          6           0       26.926714    1.056029    3.289969
      4          6           0       31.188001    0.093871    1.212709
      5          6           0       29.081662   -0.469518   -3.213249
      6          7           0       25.987881    0.331054    1.111125
      7          6           0       24.764922    0.077436    0.529480
      8          6           0       23.664478   -0.011795    1.649227
      9          6           0       24.321218    0.623503    2.887086
     10          6           0       25.824049    0.676806    2.415355
     11          6           0       23.854610    2.071045    3.334058
     12          6           0       23.109381   -1.460058    1.873472
     13          6           0       21.623378   -1.577825    2.135653
     14          1           0       21.187719   -1.800593    3.617927
     15          7           0       28.986667    0.690752    1.944913
     16          6           0       28.349832    1.003569    3.115003
     17          6           0       29.332148    1.028510    4.233138
     18          6           0       30.573395    0.720480    3.617764
     19          6           0       30.273698    0.444855    2.214855
     20          6           0       29.035370    1.251400    5.725103
     21          6           0       31.925922    0.449446    4.282851
     22          8           0       31.997225    0.614802    5.497627
     23          6           0       33.096492    0.057686    3.602057
     24          7           0       29.864352   -0.370190   -0.854740
     25          6           0       31.051051   -0.167799   -0.178507
     26          6           0       32.236822   -0.532578   -1.153286
     27          6           0       31.506917   -1.007021   -2.460792
     28          6           0       30.073944   -0.489524   -2.189333
     29          6           0       33.276228    0.594904   -1.401158
     30          6           0       31.557701   -2.538982   -2.851743
     31          6           0       32.829325   -3.068988   -3.536817
     32          7           0       27.219211   -0.102103   -1.735958
     33          6           0       27.707018   -0.346915   -3.004062
     34          6           0       26.645026   -0.502268   -3.968349
     35          6           0       25.450311   -0.392216   -3.162789
     36          6           0       25.796783   -0.202549   -1.779453
     37          6           0       26.862787   -0.804837   -5.418869
     38          6           0       24.060413   -0.487916   -3.220508
     39          8           0       23.315959   -0.848606   -4.122091
     40          6           0       23.542760   -0.433666   -1.753945
     41          6           0       22.548895    0.704282   -1.745110
     42          8           0       21.415703    0.612938   -1.266441
     43          8           0       23.064250    1.987273   -2.191606
     44          6           0       22.188330    3.098676   -1.824083
     45          1           0       26.537967    1.288384    4.283122
     46          1           0       32.263183    0.078397    1.402943
     47          1           0       29.496655   -0.684933   -4.199990
     48          1           0       22.876741    0.705789    1.415380
     49          1           0       24.313916   -0.052820    3.741852
     50          1           0       23.255145    1.901100    4.228159
     51          1           0       23.195724    2.519444    2.591044
     52          1           0       24.652903    2.797384    3.486222
     53          1           0       23.487764   -1.959110    2.765956
     54          1           0       23.294939   -2.076971    0.993954
     55          1           0       21.242545   -2.342510    1.458633
     56          1           0       21.162712   -0.635962    1.835991
     57          1           0       29.813787    1.874056    6.166888
     58          1           0       28.979075    0.241893    6.132155
     59          1           0       28.106017    1.802877    5.860856
     60          1           0       33.409770    0.886884    2.966915
     61          1           0       33.018901   -0.886047    3.062107
     62          1           0       33.751657   -0.173537    4.442634
     63          1           0       32.837767   -1.376354   -0.815816
     64          1           0       31.832468   -0.432403   -3.327594
     65          1           0       33.279672    0.745229   -2.480826
     66          1           0       34.251214    0.238554   -1.070180
     67          1           0       32.888834    1.429284   -0.815209
     68          1           0       30.712740   -2.651390   -3.531869
     69          1           0       31.484161   -3.170094   -1.965841
     70          1           0       33.393892   -2.143455   -3.653338
     71          1           0       32.620717   -3.400493   -4.555015
     72          1           0       33.411658   -3.814374   -2.995705
     73          1           0       27.446932   -1.724022   -5.434720
     74          1           0       27.501631   -0.080095   -5.923256
     75          1           0       25.944735   -1.081214   -5.937558
     76          1           0       23.001611   -1.362904   -1.576737
     77          1           0       22.973568    3.855597   -1.821077
     78          1           0       21.609013    2.886931   -0.925412
     79          1           0       21.568173    3.299197   -2.697839
     80         12           0      -27.388565   -0.898147    0.190588
     81          6           0      -28.360407    2.632842    0.032355
     82          6           0      -24.442461    0.058406   -1.446914
     83          6           0      -26.608300   -4.055803   -0.028451
     84          6           0      -30.255968   -1.572041    1.947231
     85          7           0      -26.609218    1.046906   -0.785625
     86          6           0      -27.099510    2.410199   -0.624540
     87          6           0      -26.219523    3.474261   -1.314910
     88          6           0      -25.069730    2.494925   -1.946873
     89          6           0      -25.361516    1.086634   -1.392672
     90          6           0      -24.997579    2.534122   -3.460996
     91          6           0      -25.758940    4.554833   -0.290336
     92          6           0      -24.667866    5.466643   -0.765358
     93          1           0      -24.761579    6.952520   -0.498791
     94          7           0      -25.747102   -1.912896   -0.650348
     95          6           0      -24.625862   -1.354561   -1.274581
     96          6           0      -23.693645   -2.415263   -1.652163
     97          6           0      -24.312658   -3.663542   -1.233169
     98          6           0      -25.625525   -3.278792   -0.594851
     99          6           0      -22.274377   -2.183854   -2.289042
    100          6           0      -23.881557   -5.077074   -1.391504
    101          8           0      -24.488332   -6.048285   -0.959853
    102          6           0      -22.580006   -5.386326   -2.006889
    103          7           0      -28.224136   -2.520783    0.919898
    104          6           0      -27.800077   -3.746150    0.605338
    105          6           0      -28.671538   -4.859378    1.232715
    106          6           0      -29.524728   -4.053795    2.190392
    107          6           0      -29.389980   -2.589654    1.617889
    108          6           0      -29.492468   -5.631726    0.206517
    109          6           0      -29.305231   -4.054022    3.681111
    110          6           0      -27.967990   -3.491837    4.113846
    111          7           0      -29.039745    0.224374    0.783296
    112          6           0      -30.102891   -0.200520    1.600388
    113          6           0      -30.983009    0.916817    1.838729
    114          6           0      -30.254157    2.004095    1.291771
    115          6           0      -29.088523    1.548512    0.646802
    116          6           0      -32.240196    0.961908    2.657261
    117          6           0      -30.317172    3.495138    1.192118
    118          8           0      -31.103691    4.317422    1.708623
    119          6           0      -29.110789    3.903670    0.349701
    120          6           0      -29.569901    4.715440   -0.863377
    121          8           0      -30.289012    4.377018   -1.849393
    122          8           0      -28.927953    5.916831   -0.800732
    123          6           0      -29.168954    6.834151   -1.937526
    124          1           0      -23.451665    0.383911   -1.767655
    125          1           0      -26.398938   -5.121006   -0.146213
    126          1           0      -31.198891   -1.716354    2.478978
    127          1           0      -26.885677    3.981697   -2.012593
    128          1           0      -24.111117    2.738240   -1.488614
    129          1           0      -23.992918    2.843061   -3.751056
    130          1           0      -25.712478    3.291217   -3.781257
    131          1           0      -25.423853    1.693613   -4.008232
    132          1           0      -25.554449    4.011086    0.632609
    133          1           0      -26.616715    5.178367   -0.037988
    134          1           0      -24.481981    5.498946   -1.838659
    135          1           0      -23.742533    5.215501   -0.247708
    136          1           0      -21.574921   -2.582682   -1.553763
    137          1           0      -22.040708   -1.132957   -2.458997
    138          1           0      -22.265548   -2.749935   -3.220565
    139          1           0      -22.364909   -4.801445   -2.901413
    140          1           0      -22.668535   -6.439452   -2.271378
    141          1           0      -21.857337   -5.033701   -1.271647
    142          1           0      -27.991544   -5.556600    1.722325
    143          1           0      -30.573449   -4.349896    2.152940
    144          1           0      -29.477809   -6.686805    0.477372
    145          1           0      -29.074759   -5.525793   -0.794114
    146          1           0      -30.546875   -5.366176    0.290809
    147          1           0      -29.490211   -5.064914    4.045442
    148          1           0      -29.985217   -3.360547    4.175618
    149          1           0      -27.482256   -4.120756    4.859017
    150          1           0      -28.057420   -2.523078    4.605893
    151          1           0      -27.243398   -3.383561    3.306689
    152          1           0      -32.173792    1.770939    3.384283
    153          1           0      -32.568028    0.090259    3.223648
    154          1           0      -33.056219    1.180855    1.968272
    155          1           0      -28.503810    4.590890    0.939804
    156          1           0      -28.327545    6.792087   -2.628853
    157          1           0      -29.306850    7.758415   -1.376419
    158          1           0      -30.130033    6.655068   -2.421264
 ---------------------------------------------------------------------

 SCF Done:  E(RPBE1PBE) =  -4067.33708836     A.U. after   16 cycles

 Excitation energies and oscillator strengths:

 Excited State   1:      Singlet-A      1.8175 eV  682.17 nm  f=0.3870  <S**2>=0.000
     310 -> 316        0.16211
     312 -> 313        0.69597
     312 <- 313       -0.11404
 This state for optimization and/or second-order correction.
 Total Energy, E(TD-HF/TD-DFT) =  -4067.27029643
 Copying the excited state density for this state as the 1-particle RhoCI density.

 Excited State   2:      Singlet-A      1.8703 eV  662.90 nm  f=0.3414  <S**2>=0.000
     309 -> 315       -0.19148
     311 -> 314        0.68648

 Excited State   3:      Singlet-A      1.9597 eV  632.68 nm  f=0.0000  <S**2>=0.000
     311 -> 313        0.70711

 Excited State   4:      Singlet-A      2.0424 eV  607.06 nm  f=0.0000  <S**2>=0.000
     312 -> 314        0.70711

 Excited State   5:      Singlet-A      2.1799 eV  568.76 nm  f=0.1283  <S**2>=0.000
     310 -> 313        0.66146
     312 -> 316       -0.23365

 The electronic state is 1-A.
 Alpha  occ. eigenvalues --  -46.94160 -46.91158 -19.26509 -19.24404 -19.20358
 Alpha  occ. eigenvalues --  -19.20005 -19.18953 -19.18897 -19.18767 -19.18206
 Alpha  occ. eigenvalues --  -14.42103 -14.42082 -14.41660 -14.41654 -14.40348
 Alpha  occ. eigenvalues --  -14.39514 -14.38933 -14.38669 -10.37090 -10.36485
 Alpha  occ. eigenvalues --  -10.31994 -10.31983 -10.31605 -10.30727 -10.29949
 Alpha  occ. eigenvalues --  -10.29908 -10.29581 -10.29489 -10.29203 -10.29098
 Alpha  occ. eigenvalues --  -10.29043 -10.28891 -10.28809 -10.28790 -10.28645
 Alpha  occ. eigenvalues --  -10.28569 -10.28138 -10.28028 -10.27849 -10.27310
 Alpha  occ. eigenvalues --  -10.27268 -10.27173 -10.27153 -10.26829 -10.26798
 Alpha  occ. eigenvalues --  -10.26702 -10.26684 -10.26673 -10.26565 -10.26552
 Alpha  occ. eigenvalues --  -10.26454 -10.26321 -10.26218 -10.26145 -10.26027
 Alpha  occ. eigenvalues --  -10.25991 -10.25987 -10.25844 -10.25810 -10.25702
 Alpha  occ. eigenvalues --  -10.25472 -10.25121 -10.25093 -10.25089 -10.25071
 Alpha  occ. eigenvalues --  -10.24839 -10.24701 -10.24676 -10.24547 -10.24463
 Alpha  occ. eigenvalues --  -10.24458 -10.24435 -10.24121 -10.23978 -10.23774
 Alpha  occ. eigenvalues --  -10.23685 -10.23544 -10.23532 -10.23331 -10.23324
 Alpha  occ. eigenvalues --  -10.23254 -10.23106 -10.23057 -10.22914 -10.22718
 Alpha  occ. eigenvalues --  -10.21973  -3.16153  -3.13475  -1.88934  -1.88578
 Alpha  occ. eigenvalues --   -1.88339  -1.86322  -1.85862  -1.85700  -1.10868
 Alpha  occ. eigenvalues --   -1.08695  -1.05128  -1.04891  -1.03821  -1.02692
 Alpha  occ. eigenvalues --   -1.01208  -1.00651  -0.99655  -0.99589  -0.98029
 Alpha  occ. eigenvalues --   -0.97920  -0.97699  -0.96722  -0.95864  -0.95149
 Alpha  occ. eigenvalues --   -0.87339  -0.86761  -0.83989  -0.83276  -0.83224
 Alpha  occ. eigenvalues --   -0.83122  -0.82946  -0.82796  -0.81614  -0.81294
 Alpha  occ. eigenvalues --   -0.81145  -0.81074  -0.80372  -0.80334  -0.79259
 Alpha  occ. eigenvalues --   -0.79011  -0.78402  -0.78143  -0.77952  -0.77217
 Alpha  occ. eigenvalues --   -0.76860  -0.76300  -0.75807  -0.75555  -0.74398
 Alpha  occ. eigenvalues --   -0.74260  -0.72655  -0.72540  -0.71692  -0.71615
 Alpha  occ. eigenvalues --   -0.71343  -0.71199  -0.70322  -0.70163  -0.69802
 Alpha  occ. eigenvalues --   -0.69636  -0.67365  -0.67289  -0.66408  -0.66325
 Alpha  occ. eigenvalues --   -0.64582  -0.63811  -0.63527  -0.63067  -0.62181
 Alpha  occ. eigenvalues --   -0.62050  -0.61621  -0.61407  -0.60037  -0.59861
 Alpha  occ. eigenvalues --   -0.59578  -0.59499  -0.59225  -0.58749  -0.58631
 Alpha  occ. eigenvalues --   -0.58374  -0.56578  -0.56429  -0.54907  -0.54663
 Alpha  occ. eigenvalues --   -0.54453  -0.53801  -0.53789  -0.53704  -0.53538
 Alpha  occ. eigenvalues --   -0.52909  -0.52281  -0.51943  -0.51876  -0.51571
 Alpha  occ. eigenvalues --   -0.51243  -0.50810  -0.50446  -0.50299  -0.49982
 Alpha  occ. eigenvalues --   -0.49781  -0.49381  -0.49347  -0.48939  -0.48758
 Alpha  occ. eigenvalues --   -0.48450  -0.48324  -0.48143  -0.47876  -0.47853
 Alpha  occ. eigenvalues --   -0.47493  -0.47488  -0.47339  -0.47143  -0.47075
 Alpha  occ. eigenvalues --   -0.46801  -0.46625  -0.46436  -0.45937  -0.45817
 Alpha  occ. eigenvalues --   -0.45619  -0.45411  -0.45265  -0.45161  -0.44996
 Alpha  occ. eigenvalues --   -0.44804  -0.44539  -0.44520  -0.44489  -0.44083
 Alpha  occ. eigenvalues --   -0.43935  -0.43897  -0.43648  -0.43507  -0.43471
 Alpha  occ. eigenvalues --   -0.43327  -0.43213  -0.43060  -0.42933  -0.42874
 Alpha  occ. eigenvalues --   -0.42746  -0.42657  -0.42431  -0.42416  -0.42152
 Alpha  occ. eigenvalues --   -0.41894  -0.41727  -0.41487  -0.41478  -0.41322
 Alpha  occ. eigenvalues --   -0.41165  -0.40936  -0.40897  -0.40699  -0.40630
 Alpha  occ. eigenvalues --   -0.40491  -0.40195  -0.40184  -0.39773  -0.39688
 Alpha  occ. eigenvalues --   -0.39520  -0.39299  -0.39247  -0.39174  -0.39141
 Alpha  occ. eigenvalues --   -0.39082  -0.38961  -0.38838  -0.38752  -0.38506
 Alpha  occ. eigenvalues --   -0.38354  -0.38075  -0.37903  -0.37474  -0.37434
 Alpha  occ. eigenvalues --   -0.37384  -0.37346  -0.37172  -0.37041  -0.36869
 Alpha  occ. eigenvalues --   -0.36763  -0.36685  -0.36476  -0.36392  -0.36192
 Alpha  occ. eigenvalues --   -0.36077  -0.35730  -0.35350  -0.35207  -0.35089
 Alpha  occ. eigenvalues --   -0.34865  -0.34841  -0.34287  -0.34195  -0.33996
 Alpha  occ. eigenvalues --   -0.33842  -0.33828  -0.32906  -0.32584  -0.32328
 Alpha  occ. eigenvalues --   -0.32190  -0.32171  -0.31811  -0.31579  -0.31376
 Alpha  occ. eigenvalues --   -0.31180  -0.30285  -0.29695  -0.29528  -0.29251
 Alpha  occ. eigenvalues --   -0.29126  -0.28612  -0.28438  -0.27134  -0.27075
 Alpha  occ. eigenvalues --   -0.26680  -0.26100  -0.25848  -0.25778  -0.25380
 Alpha  occ. eigenvalues --   -0.25192  -0.25009  -0.24461  -0.21407  -0.21156
 Alpha  occ. eigenvalues --   -0.19134  -0.19101
 Alpha virt. eigenvalues --   -0.11691  -0.11357  -0.06135  -0.05230  -0.04400
 Alpha virt. eigenvalues --   -0.03867  -0.02444  -0.02198  -0.02177  -0.00321
 Alpha virt. eigenvalues --    0.00068   0.00099   0.00112   0.01351   0.01478

 Mulliken charges:
               1
     1  Mg  12.000012
     2  C    5.999931
     3  C    5.999932
     4  C    6.000172
     5  C    6.000017
     6  N    6.999977
     7  C    6.000156
     8  C    5.999974
     9  C    6.000017
    10  C    5.999941
    11  C    6.000029
    12  C    5.999993
    13  C    5.999986
    14  H    1.000055
    15  N    7.000012
    16  C    5.999918
    17  C    5.999862
    18  C    5.999963
    19  C    5.999808
    20  C    6.000031
    21  C    5.999962
    22  O    7.999895
    23  C    6.000029
    24  N    6.999952
    25  C    5.999828
    26  C    6.000050
    27  C    6.000001
    28  C    6.000085
    29  C    6.000005
    30  C    5.999989
    31  C    6.000003
    32  N    7.000014
    33  C    6.000061
    34  C    6.000158
    35  C    6.000004
    36  C    6.000153
    37  C    5.999973
    38  C    6.000028
    39  O    8.000181
    40  C    5.999993
    41  C    5.999997
    42  O    8.000089
    43  O    7.999968
    44  C    5.999988
    45  H    0.999966
    46  H    0.999941
    47  H    1.000011
    48  H    1.000011
    49  H    1.000005
    50  H    0.999985
    51  H    0.999961
    52  H    0.999990
    53  H    1.000030
    54  H    0.999974
    55  H    1.000022
    56  H    1.000008
    57  H    0.999923
    58  H    0.999930
    59  H    0.999943
    60  H    0.999954
    61  H    0.999964
    62  H    0.999931
    63  H    0.999971
    64  H    0.999976
    65  H    0.999949
    66  H    0.999973
    67  H    1.000006
    68  H    0.999985
    69  H    1.000037
    70  H    0.999999
    71  H    1.000000
    72  H    1.000011
    73  H    1.000078
    74  H    1.000067
    75  H    1.000074
    76  H    1.000066
    77  H    0.999993
    78  H    1.000041
    79  H    1.000034
    80  Mg  12.002163
    81  C    5.984013
    82  C    6.006267
    83  C    6.014733
    84  C    5.990251
    85  N    6.994183
    86  C    6.031431
    87  C    5.989522
    88  C    6.007672
    89  C    5.975610
    90  C    6.006725
    91  C    5.997015
    92  C    6.000346
    93  H    1.000463
    94  N    7.004423
    95  C    5.964417
    96  C    5.978153
    97  C    5.984633
    98  C    5.970730
    99  C    5.998573
   100  C    5.987852
   101  O    7.970044
   102  C    6.003210
   103  N    6.998574
   104  C    5.966659
   105  C    6.007426
   106  C    5.998354
   107  C    6.032631
   108  C    6.001616
   109  C    5.992986
   110  C    5.995021
   111  N    6.998694
   112  C    6.039380
   113  C    6.021555
   114  C    6.005946
   115  C    6.032655
   116  C    5.997227
   117  C    6.019029
   118  O    8.030833
   119  C    5.997885
   120  C    6.002605
   121  O    8.005799
   122  O    8.001694
   123  C    5.998947
   124  H    0.989234
   125  H    0.993689
   126  H    1.009339
   127  H    0.999895
   128  H    1.000072
   129  H    0.998702
   130  H    0.987197
   131  H    1.002046
   132  H    1.002396
   133  H    0.994226
   134  H    1.004659
   135  H    1.005128
   136  H    0.984700
   137  H    0.983110
   138  H    0.985139
   139  H    0.993152
   140  H    0.986166
   141  H    0.992145
   142  H    1.001567
   143  H    1.000329
   144  H    0.997618
   145  H    1.005309
   146  H    0.987501
   147  H    1.010077
   148  H    0.995577
   149  H    1.005732
   150  H    0.994486
   151  H    1.014733
   152  H    1.014316
   153  H    1.017453
   154  H    1.016726
   155  H    1.008134
   156  H    1.006514
   157  H    1.002888
   158  H    1.002104
 Sum of Mulliken charges = 624.00000

 Dipole moment (field-independent basis, Debye):
    X=             -7.9640    Y=              5.8519    Z=              3.8234  Tot=             10.5967
 Quadrupole moment (field-independent basis, Debye-Ang):
   XX=            430.8194   YY=             -6.7623   ZZ=              1.2800
   XY=           -153.5229   XZ=           -106.3704   YZ=             -4.7791

 Normal termination of Gaussian 16 at Fri Oct 15 07:22:23 2021.
