 Gaussian 16, Revision A.03,
 Gaussian 16:  ES64L-G16RevA.03 25-Dec-2016

 --------------------------------------------------------
 #p PBE1PBE/Def2SVP td=(nstates=5) density=(transition=1)
 --------------------------------------------------------

 --------------------------------
 TDDFT excited states in gaussian
 --------------------------------
 Symbolic Z-matrix:
 Charge =  0 Multiplicity = 1

                         Standard orientation:
 ---------------------------------------------------------------------
 Center     Atomic      Atomic             Coordinates (Angstroms)
 Number     Number       Type             X           Y           Z
 ---------------------------------------------------------------------
      1         12           0       24.517599   -0.809614    0.344760
      2          6           0       24.662773    2.228118   -1.542916
      3          6           0       25.739452    0.955057    2.997320
      4          6           0       24.827385   -3.560063    1.892560
      5          6           0       24.402906   -2.517355   -2.691048
      6          7           0       25.087865    1.317014    0.574746
      7          6           0       25.039202    2.390534   -0.207788
      8          6           0       25.353361    3.718209    0.544513
      9          6           0       26.206443    3.126200    1.754379
     10          6           0       25.619592    1.726510    1.803367
     11          6           0       27.698453    3.023036    1.454770
     12          6           0       24.057213    4.434041    1.053742
     13          6           0       24.246939    5.884655    1.506596
     14          1           0       23.180777    6.842216    1.254162
     15          7           0       24.715127   -1.177975    2.275600
     16          6           0       25.216619   -0.338374    3.213077
     17          6           0       25.152817   -1.073499    4.494561
     18          6           0       24.750300   -2.475793    4.195152
     19          6           0       24.773933   -2.467418    2.754753
     20          6           0       25.408550   -0.432930    5.824230
     21          6           0       24.410126   -3.641721    5.068665
     22          8           0       24.313579   -4.830772    4.608870
     23          6           0       24.278134   -3.365763    6.510701
     24          7           0       24.824998   -2.772570   -0.295508
     25          6           0       24.863501   -3.785137    0.577538
     26          6           0       24.808487   -5.111154   -0.121456
     27          6           0       24.477897   -4.791433   -1.650587
     28          6           0       24.481602   -3.244677   -1.574411
     29          6           0       26.082960   -5.962882   -0.042160
     30          6           0       23.242942   -5.496669   -2.265360
     31          6           0       21.979485   -4.977201   -1.616569
     32          7           0       24.350893   -0.269808   -1.750917
     33          6           0       24.344913   -1.142686   -2.848516
     34          6           0       24.323626   -0.308227   -4.063956
     35          6           0       24.335520    1.000727   -3.586103
     36          6           0       24.389033    0.984948   -2.163015
     37          6           0       24.355322   -0.786287   -5.403690
     38          6           0       24.340342    2.409030   -3.947375
     39          8           0       24.212044    3.034453   -5.000883
     40          6           0       24.675357    3.259649   -2.643520
     41          6           0       23.678239    4.383464   -2.565383
     42          8           0       22.469532    4.152964   -2.357385
     43          8           0       24.331437    5.554272   -2.509866
     44          6           0       23.400708    6.709310   -2.401320
     45          1           0       26.336660    1.348509    3.822232
     46          1           0       24.823155   -4.532722    2.388901
     47          1           0       24.281019   -2.980222   -3.672042
     48          1           0       25.954398    4.430078   -0.021545
     49          1           0       26.008722    3.652875    2.687782
     50          1           0       27.912069    3.253208    0.411070
     51          1           0       27.970002    1.991616    1.680438
     52          1           0       28.275325    3.642062    2.142376
     53          1           0       23.745233    3.984668    1.996501
     54          1           0       23.271285    4.391880    0.298847
     55          1           0       25.205549    6.283880    1.174036
     56          1           0       24.311084    5.897160    2.594681
     57          1           0       25.843296    0.559692    5.713587
     58          1           0       26.186849   -1.017215    6.314710
     59          1           0       24.515261   -0.412932    6.448705
     60          1           0       25.214997   -2.952852    6.885322
     61          1           0       23.944823   -4.297708    6.965928
     62          1           0       23.523031   -2.592406    6.654534
     63          1           0       24.019174   -5.738228    0.291083
     64          1           0       25.298788   -5.067443   -2.312879
     65          1           0       25.921930   -6.953213    0.384478
     66          1           0       26.825016   -5.406591    0.529840
     67          1           0       26.600072   -6.101205   -0.991306
     68          1           0       23.284257   -6.568476   -2.074390
     69          1           0       23.158376   -5.354793   -3.342844
     70          1           0       21.906842   -5.577225   -0.710189
     71          1           0       21.120607   -5.146632   -2.266825
     72          1           0       22.088001   -3.936492   -1.310572
     73          1           0       23.622789   -0.197067   -5.955219
     74          1           0       24.123867   -1.850186   -5.450062
     75          1           0       25.390220   -0.572100   -5.670086
     76          1           0       25.695220    3.624662   -2.760854
     77          1           0       23.628905    7.384056   -3.226474
     78          1           0       23.504347    7.096574   -1.387569
     79          1           0       22.347697    6.499449   -2.592282
     80         12           0      -25.144268   -0.424459   -0.483853
     81          6           0      -22.875740    2.230686   -0.429305
     82          6           0      -26.987624    1.335735    1.924088
     83          6           0      -27.100143   -3.097229   -0.004444
     84          6           0      -22.738696   -2.368108   -1.993408
     85          7           0      -25.024259    1.657251    0.584557
     86          6           0      -23.944411    2.468738    0.430132
     87          6           0      -24.082060    3.753460    1.339720
     88          6           0      -25.308384    3.309661    2.286445
     89          6           0      -25.794096    2.013073    1.616996
     90          6           0      -24.704748    2.933180    3.686048
     91          6           0      -24.494854    4.948173    0.403608
     92          6           0      -24.823704    6.306452    1.080917
     93          1           0      -25.957585    7.248209    0.803859
     94          7           0      -26.894593   -0.723717    0.621687
     95          6           0      -27.550415    0.114894    1.538377
     96          6           0      -28.665164   -0.577968    2.032543
     97          6           0      -28.822952   -1.778635    1.353319
     98          6           0      -27.583419   -1.907792    0.605089
     99          6           0      -29.593011    0.084016    2.997878
    100          6           0      -29.930492   -2.878250    1.460025
    101          8           0      -29.968161   -3.902837    0.787163
    102          6           0      -31.206651   -2.669461    2.279881
    103          7           0      -24.870857   -2.449780   -0.839179
    104          6           0      -25.893380   -3.319756   -0.681610
    105          6           0      -25.640103   -4.695151   -1.329306
    106          6           0      -24.186072   -4.506875   -1.844198
    107          6           0      -23.927742   -3.020750   -1.672458
    108          6           0      -25.961905   -5.917574   -0.406947
    109          6           0      -23.862367   -5.035316   -3.268542
    110          6           0      -24.362825   -4.234631   -4.394966
    111          7           0      -23.236331   -0.156091   -1.190066
    112          6           0      -22.400768   -0.991708   -1.762055
    113          6           0      -21.176388   -0.321593   -2.212025
    114          6           0      -21.369538    0.992587   -1.678256
    115          6           0      -22.595415    1.036297   -1.043469
    116          6           0      -20.249820   -0.710647   -3.267101
    117          6           0      -20.746400    2.302404   -1.602768
    118          8           0      -19.737764    2.727635   -2.118803
    119          6           0      -21.696799    3.115751   -0.715733
    120          6           0      -20.980517    3.682119    0.514748
    121          8           0      -20.715039    3.043362    1.499662
    122          8           0      -20.633108    4.990368    0.276347
    123          6           0      -19.941245    5.612399    1.428729
    124          1           0      -27.617963    1.946743    2.572228
    125          1           0      -27.808940   -3.926873   -0.052114
    126          1           0      -22.228569   -3.143147   -2.568037
    127          1           0      -23.198357    3.927514    1.954151
    128          1           0      -26.089100    4.062528    2.401903
    129          1           0      -24.652547    1.871323    3.924393
    130          1           0      -25.383033    3.198392    4.497403
    131          1           0      -23.713349    3.348255    3.866411
    132          1           0      -25.342888    4.611716   -0.192215
    133          1           0      -23.692978    5.069897   -0.325096
    134          1           0      -23.879683    6.850512    1.038645
    135          1           0      -25.031054    5.971889    2.096617
    136          1           0      -29.302482    1.083221    3.323454
    137          1           0      -29.807423   -0.628569    3.795516
    138          1           0      -30.507532    0.219239    2.419758
    139          1           0      -31.035288   -2.621948    3.355334
    140          1           0      -32.015955   -3.361348    2.046051
    141          1           0      -31.632563   -1.724364    1.942475
    142          1           0      -26.386850   -4.613739   -2.118649
    143          1           0      -23.575901   -5.017146   -1.098932
    144          1           0      -26.754942   -5.675190    0.299700
    145          1           0      -25.069513   -6.182941    0.160509
    146          1           0      -26.318916   -6.784221   -0.963720
    147          1           0      -24.351763   -6.008590   -3.250046
    148          1           0      -22.794718   -5.240074   -3.350228
    149          1           0      -23.666215   -3.421832   -4.599759
    150          1           0      -25.376523   -3.881818   -4.206125
    151          1           0      -24.374210   -4.803530   -5.325132
    152          1           0      -20.835102   -1.353355   -3.925153
    153          1           0      -19.390109   -1.337744   -3.030468
    154          1           0      -19.909344    0.212763   -3.734404
    155          1           0      -22.097376    3.929781   -1.320779
    156          1           0      -19.196442    6.309652    1.045514
    157          1           0      -19.295171    4.956219    2.012308
    158          1           0      -20.636954    6.190355    2.036184
 ---------------------------------------------------------------------

 SCF Done:  E(RPBE1PBE) =  -4067.39596436     A.U. after   16 cycles

 Excitation energies and oscillator strengths:

 Excited State   1:      Singlet-A      1.8414 eV  673.31 nm  f=0.3741  <S**2>=0.000
     309 -> 315        0.16205
     311 -> 313        0.69323
     311 <- 313       -0.11106
 This state for optimization and/or second-order correction.
 Total Energy, E(TD-HF/TD-DFT) =  -4067.32829318
 Copying the excited state density for this state as the 1-particle RhoCI density.

 Excited State   2:      Singlet-A      1.8847 eV  657.86 nm  f=0.3809  <S**2>=0.000
     310 -> 316       -0.17974
     312 -> 314        0.69126
     312 <- 314       -0.10354

 Excited State   3:      Singlet-A      1.9551 eV  634.15 nm  f=0.0000  <S**2>=0.000
     312 -> 313        0.70711

 Excited State   4:      Singlet-A      2.0630 eV  601.00 nm  f=0.0000  <S**2>=0.000
     311 -> 314        0.70711

 Excited State   5:      Singlet-A      2.1929 eV  565.38 nm  f=0.0922  <S**2>=0.000
     309 -> 313        0.65172
     311 -> 315       -0.24142

 The electronic state is 1-A.
 Alpha  occ. eigenvalues --  -46.92117 -46.91165 -19.26898 -19.26449 -19.20627
 Alpha  occ. eigenvalues --  -19.19516 -19.19278 -19.19106 -19.18986 -19.18390
 Alpha  occ. eigenvalues --  -14.41921 -14.41556 -14.40934 -14.40741 -14.39027
 Alpha  occ. eigenvalues --  -14.38834 -14.38769 -14.38230 -10.36795 -10.36081
 Alpha  occ. eigenvalues --  -10.33195 -10.32468 -10.31699 -10.31547 -10.29121
 Alpha  occ. eigenvalues --  -10.29053 -10.28880 -10.28674 -10.28611 -10.28486
 Alpha  occ. eigenvalues --  -10.28221 -10.28194 -10.28112 -10.27977 -10.27830
 Alpha  occ. eigenvalues --  -10.27805 -10.27520 -10.27491 -10.27234 -10.27141
 Alpha  occ. eigenvalues --  -10.27012 -10.26543 -10.26446 -10.26410 -10.26193
 Alpha  occ. eigenvalues --  -10.26037 -10.25994 -10.25876 -10.25725 -10.25612
 Alpha  occ. eigenvalues --  -10.25592 -10.25473 -10.25428 -10.25385 -10.25351
 Alpha  occ. eigenvalues --  -10.25325 -10.25254 -10.25248 -10.25230 -10.25186
 Alpha  occ. eigenvalues --  -10.25081 -10.24962 -10.24828 -10.24751 -10.24657
 Alpha  occ. eigenvalues --  -10.24553 -10.24268 -10.24257 -10.23844 -10.23842
 Alpha  occ. eigenvalues --  -10.23769 -10.23664 -10.23590 -10.23589 -10.23519
 Alpha  occ. eigenvalues --  -10.23492 -10.23275 -10.23250 -10.23073 -10.22890
 Alpha  occ. eigenvalues --  -10.22876 -10.22580 -10.22569 -10.22377 -10.22146
 Alpha  occ. eigenvalues --  -10.22065  -3.14257  -3.13483  -1.87084  -1.86646
 Alpha  occ. eigenvalues --   -1.86467  -1.86305  -1.85871  -1.85717  -1.11593
 Alpha  occ. eigenvalues --   -1.11396  -1.05107  -1.05005  -1.03604  -1.03342
 Alpha  occ. eigenvalues --   -1.01813  -1.01424  -0.99769  -0.99147  -0.98347
 Alpha  occ. eigenvalues --   -0.98343  -0.97976  -0.97874  -0.97064  -0.97013
 Alpha  occ. eigenvalues --   -0.88248  -0.86305  -0.83808  -0.83731  -0.83428
 Alpha  occ. eigenvalues --   -0.82790  -0.82567  -0.82433  -0.82178  -0.81950
 Alpha  occ. eigenvalues --   -0.81722  -0.81544  -0.81414  -0.80628  -0.79208
 Alpha  occ. eigenvalues --   -0.78298  -0.78199  -0.77988  -0.77132  -0.76848
 Alpha  occ. eigenvalues --   -0.76672  -0.75868  -0.75713  -0.75155  -0.74917
 Alpha  occ. eigenvalues --   -0.74688  -0.73079  -0.72733  -0.71921  -0.71520
 Alpha  occ. eigenvalues --   -0.71206  -0.70939  -0.70455  -0.70217  -0.69201
 Alpha  occ. eigenvalues --   -0.69167  -0.67216  -0.66983  -0.66201  -0.66063
 Alpha  occ. eigenvalues --   -0.64386  -0.64194  -0.63616  -0.63207  -0.62787
 Alpha  occ. eigenvalues --   -0.62094  -0.61529  -0.61350  -0.59837  -0.59681
 Alpha  occ. eigenvalues --   -0.59394  -0.59208  -0.59071  -0.58948  -0.58742
 Alpha  occ. eigenvalues --   -0.58587  -0.57100  -0.56849  -0.54920  -0.54534
 Alpha  occ. eigenvalues --   -0.54281  -0.54034  -0.53915  -0.53597  -0.53093
 Alpha  occ. eigenvalues --   -0.53046  -0.52888  -0.52080  -0.51930  -0.51777
 Alpha  occ. eigenvalues --   -0.51057  -0.50848  -0.50348  -0.50185  -0.50129
 Alpha  occ. eigenvalues --   -0.50029  -0.49809  -0.49782  -0.49211  -0.49054
 Alpha  occ. eigenvalues --   -0.48548  -0.48435  -0.47928  -0.47806  -0.47728
 Alpha  occ. eigenvalues --   -0.47568  -0.47529  -0.47293  -0.47078  -0.46953
 Alpha  occ. eigenvalues --   -0.46825  -0.46731  -0.46391  -0.46160  -0.45833
 Alpha  occ. eigenvalues --   -0.45708  -0.45608  -0.45367  -0.45059  -0.44715
 Alpha  occ. eigenvalues --   -0.44609  -0.44530  -0.44459  -0.44165  -0.44104
 Alpha  occ. eigenvalues --   -0.44041  -0.43838  -0.43811  -0.43683  -0.43528
 Alpha  occ. eigenvalues --   -0.43440  -0.43195  -0.43091  -0.42986  -0.42945
 Alpha  occ. eigenvalues --   -0.42536  -0.42312  -0.42160  -0.41925  -0.41776
 Alpha  occ. eigenvalues --   -0.41540  -0.41330  -0.41220  -0.41046  -0.40849
 Alpha  occ. eigenvalues --   -0.40831  -0.40726  -0.40560  -0.40529  -0.40105
 Alpha  occ. eigenvalues --   -0.39916  -0.39838  -0.39736  -0.39450  -0.39277
 Alpha  occ. eigenvalues --   -0.39198  -0.39187  -0.39051  -0.38875  -0.38842
 Alpha  occ. eigenvalues --   -0.38814  -0.38719  -0.38641  -0.38436  -0.38257
 Alpha  occ. eigenvalues --   -0.38214  -0.38172  -0.37968  -0.37834  -0.37722
 Alpha  occ. eigenvalues --   -0.37465  -0.37421  -0.37379  -0.37255  -0.37153
 Alpha  occ. eigenvalues --   -0.36834  -0.36780  -0.36634  -0.36539  -0.36344
 Alpha  occ. eigenvalues --   -0.35938  -0.35753  -0.35591  -0.35569  -0.35456
 Alpha  occ. eigenvalues --   -0.35134  -0.34985  -0.34551  -0.34310  -0.33849
 Alpha  occ. eigenvalues --   -0.33396  -0.33393  -0.32811  -0.32700  -0.32684
 Alpha  occ. eigenvalues --   -0.32357  -0.32252  -0.32231  -0.31800  -0.31681
 Alpha  occ. eigenvalues --   -0.31406  -0.31231  -0.29802  -0.29496  -0.29484
 Alpha  occ. eigenvalues --   -0.28893  -0.28725  -0.28388  -0.26940  -0.26696
 Alpha  occ. eigenvalues --   -0.25978  -0.25882  -0.25739  -0.25530  -0.25090
 Alpha  occ. eigenvalues --   -0.24980  -0.24929  -0.24803  -0.20952  -0.20714
 Alpha  occ. eigenvalues --   -0.18735  -0.18652
 Alpha virt. eigenvalues --   -0.11199  -0.10889  -0.05320  -0.04842  -0.04130
 Alpha virt. eigenvalues --   -0.03778  -0.02151  -0.02101  -0.00565   0.00378
 Alpha virt. eigenvalues --    0.00448   0.00474   0.00557   0.01347   0.02100

 Mulliken charges:
               1
     1  Mg  12.000648
     2  C    5.985401
     3  C    6.011881
     4  C    6.012257
     5  C    5.985566
     6  N    6.991904
     7  C    6.031794
     8  C    5.991672
     9  C    6.008722
    10  C    5.972871
    11  C    6.000787
    12  C    5.996390
    13  C    5.998988
    14  H    0.999630
    15  N    7.003197
    16  C    5.963677
    17  C    5.970785
    18  C    5.984809
    19  C    5.979433
    20  C    6.005144
    21  C    5.985518
    22  O    7.969556
    23  C    6.004872
    24  N    7.000679
    25  C    5.973515
    26  C    6.011250
    27  C    5.988156
    28  C    6.031333
    29  C    5.999536
    30  C    5.996300
    31  C    5.999018
    32  N    6.996729
    33  C    6.043881
    34  C    6.022662
    35  C    6.006176
    36  C    6.028883
    37  C    5.996729
    38  C    6.014466
    39  O    8.030456
    40  C    6.001379
    41  C    6.003392
    42  O    8.004353
    43  O    8.001761
    44  C    5.998755
    45  H    0.992275
    46  H    0.994010
    47  H    1.008861
    48  H    0.999208
    49  H    1.000423
    50  H    0.984537
    51  H    1.004448
    52  H    0.996713
    53  H    1.013177
    54  H    0.994380
    55  H    1.000745
    56  H    1.006573
    57  H    0.980726
    58  H    0.980263
    59  H    0.979489
    60  H    0.994825
    61  H    0.985580
    62  H    0.992870
    63  H    1.000968
    64  H    1.003997
    65  H    1.000062
    66  H    1.005311
    67  H    0.990563
    68  H    1.008983
    69  H    0.997158
    70  H    1.011257
    71  H    1.001395
    72  H    0.997325
    73  H    1.015549
    74  H    1.016486
    75  H    1.018213
    76  H    1.007750
    77  H    1.002866
    78  H    1.005928
    79  H    1.002177
    80  Mg  11.999980
    81  C    5.999936
    82  C    5.999910
    83  C    6.000037
    84  C    6.000112
    85  N    7.000014
    86  C    5.999915
    87  C    6.000050
    88  C    5.999972
    89  C    6.000174
    90  C    5.999984
    91  C    6.000015
    92  C    5.999987
    93  H    0.999969
    94  N    6.999984
    95  C    6.000192
    96  C    6.000068
    97  C    6.000137
    98  C    6.000040
    99  C    6.000005
   100  C    6.000055
   101  O    8.000128
   102  C    5.999988
   103  N    7.000001
   104  C    6.000130
   105  C    5.999980
   106  C    6.000033
   107  C    5.999843
   108  C    5.999996
   109  C    6.000009
   110  C    6.000023
   111  N    7.000010
   112  C    5.999821
   113  C    5.999834
   114  C    5.999929
   115  C    5.999938
   116  C    5.999991
   117  C    5.999964
   118  O    7.999844
   119  C    6.000013
   120  C    5.999981
   121  O    7.999992
   122  O    7.999984
   123  C    6.000002
   124  H    1.000055
   125  H    1.000024
   126  H    0.999953
   127  H    1.000008
   128  H    1.000005
   129  H    1.000007
   130  H    1.000018
   131  H    1.000062
   132  H    0.999966
   133  H    1.000011
   134  H    1.000005
   135  H    1.000000
   136  H    1.000073
   137  H    1.000083
   138  H    1.000063
   139  H    1.000049
   140  H    1.000061
   141  H    1.000020
   142  H    0.999982
   143  H    0.999996
   144  H    0.999978
   145  H    1.000045
   146  H    1.000026
   147  H    0.999972
   148  H    1.000006
   149  H    1.000019
   150  H    0.999964
   151  H    0.999965
   152  H    0.999905
   153  H    0.999887
   154  H    0.999914
   155  H    0.999947
   156  H    0.999969
   157  H    1.000006
   158  H    0.999986
 Sum of Mulliken charges = 624.00000

 Dipole moment (field-independent basis, Debye):
    X=             -1.2679    Y=              2.5872    Z=             -9.9426  Tot=             10.3517
 Quadrupole moment (field-independent basis, Debye-Ang):
   XX=            -58.6114   YY=              0.5964   ZZ=             -8.2051
   XY=             63.8167   XZ=           -246.4386   YZ=              8.8842

 Normal termination of Gaussian 16 at Thu Oct 14 13:51:00 2021.
