 Gaussian 16, Revision A.03,
 Gaussian 16:  ES64L-G16RevA.03 25-Dec-2016

 --------------------------------------------------------
 #p PBE1PBE/Def2SVP td=(nstates=5) density=(transition=1)
 --------------------------------------------------------

 --------------------------------
 TDDFT excited states in gaussian
 --------------------------------
 Symbolic Z-matrix:
 Charge =  0 Multiplicity = 1

                         Standard orientation:
 ---------------------------------------------------------------------
 Center     Atomic      Atomic             Coordinates (Angstroms)
 Number     Number       Type             X           Y           Z
 ---------------------------------------------------------------------
      1         12           0       13.080251    0.133552    0.269811
      2          6           0        9.689940   -0.487299   -0.192520
      3          6           0       13.399814    0.639512   -3.104319
      4          6           0       16.443195    0.414274    0.745244
      5          6           0       12.554090   -0.681492    3.689194
      6          7           0       11.718807    0.048539   -1.447046
      7          6           0       10.360983   -0.105640   -1.350490
      8          6           0        9.802723    0.076829   -2.764011
      9          6           0       11.011331    0.127132   -3.681621
     10          6           0       12.128411    0.322634   -2.662854
     11          6           0       11.268055   -0.999478   -4.646156
     12          6           0        8.776441    1.293667   -2.949197
     13          6           0        8.371417    1.626163   -4.421288
     14          1           0        7.114505    0.940275   -5.017773
     15          7           0       14.651065    0.623175   -0.994958
     16          6           0       14.592589    0.760943   -2.342973
     17          6           0       15.939518    1.001045   -2.791528
     18          6           0       16.814829    0.927500   -1.668304
     19          6           0       16.002749    0.623615   -0.577191
     20          6           0       16.222224    1.253367   -4.240386
     21          6           0       18.369344    0.997000   -1.704558
     22          8           0       19.051656    0.588474   -0.781993
     23          6           0       19.128234    1.432079   -2.865878
     24          7           0       14.228221   -0.087243    1.886829
     25          6           0       15.607491    0.118537    1.887146
     26          6           0       16.226387   -0.037879    3.287044
     27          6           0       14.948676   -0.095786    4.191650
     28          6           0       13.828539   -0.253787    3.176666
     29          6           0       17.286462   -1.049880    3.431963
     30          6           0       14.684661    1.088078    5.277415
     31          6           0       14.568076    0.765365    6.770102
     32          7           0       11.432115   -0.537254    1.556553
     33          6           0       11.413309   -0.827877    2.891850
     34          6           0       10.108111   -1.204724    3.319185
     35          6           0        9.331493   -1.012310    2.113240
     36          6           0       10.223924   -0.688827    1.053009
     37          6           0        9.755554   -1.560407    4.713193
     38          6           0        7.981777   -0.996874    1.597835
     39          8           0        6.883704   -1.140791    2.098468
     40          6           0        8.190409   -0.648147    0.008916
     41          6           0        7.477372   -1.619031   -0.859855
     42          8           0        7.781916   -2.787873   -0.953612
     43          8           0        6.465478   -1.054059   -1.541558
     44          6           0        5.831570   -1.873380   -2.644748
     45          1           0       13.498190    0.854432   -4.170685
     46          1           0       17.524436    0.502590    0.868636
     47          1           0       12.595346   -0.868245    4.764481
     48          1           0        9.257260   -0.860828   -2.869744
     49          1           0       10.926182    0.990352   -4.341226
     50          1           0       12.113105   -1.467493   -4.142162
     51          1           0       11.463934   -0.648859   -5.659569
     52          1           0       10.477796   -1.750309   -4.628664
     53          1           0        9.341652    2.120779   -2.519113
     54          1           0        7.869605    1.102261   -2.376724
     55          1           0        9.158833    1.359662   -5.125193
     56          1           0        8.237631    2.705497   -4.493564
     57          1           0       15.377602    1.334480   -4.925299
     58          1           0       16.765821    0.375379   -4.587723
     59          1           0       16.894575    2.095671   -4.404581
     60          1           0       18.899218    1.026726   -3.850909
     61          1           0       20.212150    1.380259   -2.764041
     62          1           0       18.945272    2.506402   -2.861620
     63          1           0       16.660361    0.959686    3.360368
     64          1           0       15.095575   -1.085153    4.624567
     65          1           0       18.283108   -0.689559    3.688274
     66          1           0       17.356900   -1.585970    2.485162
     67          1           0       17.099404   -1.780756    4.218583
     68          1           0       13.752707    1.580098    4.999718
     69          1           0       15.393034    1.917111    5.298754
     70          1           0       13.551499    0.775298    7.164124
     71          1           0       15.261420    1.308454    7.411682
     72          1           0       14.826913   -0.286308    6.893702
     73          1           0       10.514253   -2.241734    5.097525
     74          1           0        8.748273   -1.966479    4.801911
     75          1           0        9.959414   -0.684845    5.330419
     76          1           0        7.703636    0.315242   -0.139359
     77          1           0        4.867351   -1.380047   -2.765145
     78          1           0        5.742409   -2.904987   -2.304849
     79          1           0        6.445820   -1.726751   -3.533295
     80         12           0      -12.572950   -0.485867   -0.425430
     81          6           0      -12.286174    2.888748    0.274058
     82          6           0       -9.069646   -0.584744   -0.982124
     83          6           0      -12.668731   -3.908453   -0.562888
     84          6           0      -15.877288   -0.474848    0.579674
     85          7           0      -10.937212    1.036659   -0.476434
     86          6           0      -11.058279    2.342534   -0.050054
     87          6           0       -9.683115    3.094075    0.104061
     88          6           0       -8.709310    2.096093   -0.683276
     89          6           0       -9.595087    0.733677   -0.792390
     90          6           0       -8.126764    2.530806   -2.081870
     91          6           0       -9.240545    3.328386    1.505538
     92          6           0       -9.035858    4.736739    2.029779
     93          1           0       -7.990244    4.895919    3.145177
     94          7           0      -11.075413   -2.037352   -0.827145
     95          6           0       -9.709988   -1.803173   -1.076459
     96          6           0       -9.063513   -3.035420   -1.398762
     97          6           0      -10.090296   -4.074512   -1.123581
     98          6           0      -11.371512   -3.374266   -0.799055
     99          6           0       -7.560467   -3.174647   -1.661814
    100          6           0       -9.758073   -5.573435   -1.225253
    101          8           0       -8.672486   -6.077504   -1.498277
    102          6           0      -10.739880   -6.523629   -0.636617
    103          7           0      -14.074801   -2.070211    0.143889
    104          6           0      -13.886979   -3.352428   -0.197115
    105          6           0      -15.028180   -4.142912    0.441275
    106          6           0      -16.168565   -3.067115    0.760018
    107          6           0      -15.346598   -1.736698    0.453004
    108          6           0      -15.593397   -5.180468   -0.592347
    109          6           0      -16.840740   -3.032454    2.193725
    110          6           0      -18.313591   -3.372637    2.365781
    111          7           0      -13.901920    0.951708    0.226427
    112          6           0      -15.250725    0.826375    0.573549
    113          6           0      -15.758605    2.087692    1.019486
    114          6           0      -14.635205    2.967145    0.935201
    115          6           0      -13.545290    2.184066    0.387907
    116          6           0      -17.136629    2.422239    1.496829
    117          6           0      -14.166627    4.282516    1.088295
    118          8           0      -14.783664    5.256496    1.470695
    119          6           0      -12.624936    4.281285    0.752595
    120          6           0      -12.331130    5.439650   -0.105618
    121          8           0      -11.771819    6.452495    0.299281
    122          8           0      -12.799278    5.213065   -1.391307
    123          6           0      -12.575704    6.360437   -2.299365
    124          1           0       -8.013654   -0.730827   -1.216924
    125          1           0      -12.628552   -4.989801   -0.712331
    126          1           0      -16.909877   -0.500078    0.933694
    127          1           0       -9.730620    4.046195   -0.423295
    128          1           0       -7.901754    1.847241    0.006154
    129          1           0       -8.318528    3.598383   -2.189151
    130          1           0       -8.537053    1.988106   -2.933584
    131          1           0       -7.062491    2.298864   -2.066549
    132          1           0       -8.253143    2.872845    1.594385
    133          1           0       -9.956212    2.888707    2.199405
    134          1           0       -9.969669    5.055608    2.491916
    135          1           0       -8.706698    5.439000    1.264231
    136          1           0       -6.885827   -2.324512   -1.563152
    137          1           0       -7.547516   -3.615845   -2.658142
    138          1           0       -7.284174   -4.037856   -1.057155
    139          1           0      -11.544078   -6.920251   -1.254855
    140          1           0      -11.142482   -6.166032    0.311204
    141          1           0      -10.174681   -7.425649   -0.399139
    142          1           0      -14.725964   -4.664701    1.349582
    143          1           0      -16.932017   -3.088448   -0.016876
    144          1           0      -15.632200   -6.142258   -0.080942
    145          1           0      -15.028545   -5.274864   -1.520639
    146          1           0      -16.595017   -4.933766   -0.945227
    147          1           0      -16.656474   -2.016443    2.542122
    148          1           0      -16.310984   -3.791605    2.770852
    149          1           0      -18.611887   -2.873256    3.287938
    150          1           0      -18.410774   -4.446589    2.526302
    151          1           0      -19.037331   -3.060822    1.613480
    152          1           0      -17.117758    3.485255    1.738544
    153          1           0      -17.350279    1.772181    2.344745
    154          1           0      -17.929508    2.284863    0.761373
    155          1           0      -12.154551    4.465863    1.718985
    156          1           0      -13.429687    7.036855   -2.265317
    157          1           0      -12.352815    5.927979   -3.274738
    158          1           0      -11.673469    6.913357   -2.039470
 ---------------------------------------------------------------------

 SCF Done:  E(RPBE1PBE) =  -4067.36678902     A.U. after   16 cycles

 Excitation energies and oscillator strengths:

 Excited State   1:      Singlet-A      1.6815 eV  737.34 nm  f=0.0000  <S**2>=0.000
     312 -> 313        0.70710
 This state for optimization and/or second-order correction.
 Total Energy, E(TD-HF/TD-DFT) =  -4067.30499510
 Copying the excited state density for this state as the 1-particle RhoCI density.

 Excited State   2:      Singlet-A      1.8553 eV  668.26 nm  f=0.6050  <S**2>=0.000
     310 -> 316       -0.14119
     311 -> 313        0.39695
     312 -> 314        0.56778

 Excited State   3:      Singlet-A      1.8602 eV  666.52 nm  f=0.1471  <S**2>=0.000
     309 -> 315       -0.13983
     311 -> 313        0.56668
     312 -> 314       -0.39744

 Excited State   4:      Singlet-A      2.1589 eV  574.29 nm  f=0.0000  <S**2>=0.000
     311 -> 314        0.70709

 Excited State   5:      Singlet-A      2.1845 eV  567.56 nm  f=0.1533  <S**2>=0.000
     309 -> 313        0.65879
     311 -> 315        0.23367

 The electronic state is 1-A.
 Alpha  occ. eigenvalues --  -46.93787 -46.91273 -19.25767 -19.25081 -19.20081
 Alpha  occ. eigenvalues --  -19.19282 -19.19074 -19.18935 -19.18724 -19.18489
 Alpha  occ. eigenvalues --  -14.42879 -14.42225 -14.41554 -14.41474 -14.39559
 Alpha  occ. eigenvalues --  -14.39552 -14.38736 -14.38109 -10.36139 -10.34967
 Alpha  occ. eigenvalues --  -10.32697 -10.32157 -10.31821 -10.31467 -10.30602
 Alpha  occ. eigenvalues --  -10.29469 -10.29433 -10.29365 -10.29352 -10.29172
 Alpha  occ. eigenvalues --  -10.28935 -10.28858 -10.28724 -10.28695 -10.28133
 Alpha  occ. eigenvalues --  -10.28100 -10.27732 -10.27450 -10.27330 -10.27155
 Alpha  occ. eigenvalues --  -10.27153 -10.27105 -10.26934 -10.26745 -10.26430
 Alpha  occ. eigenvalues --  -10.26421 -10.26218 -10.26205 -10.26149 -10.26017
 Alpha  occ. eigenvalues --  -10.25994 -10.25948 -10.25812 -10.25765 -10.25682
 Alpha  occ. eigenvalues --  -10.25597 -10.25550 -10.25347 -10.25336 -10.25149
 Alpha  occ. eigenvalues --  -10.25063 -10.25044 -10.25017 -10.24928 -10.24773
 Alpha  occ. eigenvalues --  -10.24725 -10.24723 -10.24676 -10.24676 -10.24520
 Alpha  occ. eigenvalues --  -10.24514 -10.24361 -10.24306 -10.24030 -10.23740
 Alpha  occ. eigenvalues --  -10.23697 -10.23629 -10.23602 -10.23420 -10.23331
 Alpha  occ. eigenvalues --  -10.23212 -10.23046 -10.23030 -10.22954 -10.22886
 Alpha  occ. eigenvalues --  -10.22545  -3.15589  -3.13510  -1.88456  -1.87937
 Alpha  occ. eigenvalues --   -1.87812  -1.86368  -1.85888  -1.85736  -1.10629
 Alpha  occ. eigenvalues --   -1.10286  -1.05700  -1.04689  -1.04545  -1.04285
 Alpha  occ. eigenvalues --   -1.02316  -1.01566  -0.99866  -0.99600  -0.98808
 Alpha  occ. eigenvalues --   -0.98696  -0.97954  -0.97007  -0.96977  -0.96182
 Alpha  occ. eigenvalues --   -0.86973  -0.86811  -0.83698  -0.83551  -0.83493
 Alpha  occ. eigenvalues --   -0.83028  -0.82655  -0.82422  -0.81942  -0.81889
 Alpha  occ. eigenvalues --   -0.81642  -0.81262  -0.81003  -0.79867  -0.78912
 Alpha  occ. eigenvalues --   -0.78644  -0.78149  -0.78002  -0.77077  -0.76802
 Alpha  occ. eigenvalues --   -0.76722  -0.76293  -0.75725  -0.75195  -0.75109
 Alpha  occ. eigenvalues --   -0.75043  -0.73136  -0.72186  -0.72124  -0.71586
 Alpha  occ. eigenvalues --   -0.71412  -0.71100  -0.70447  -0.70218  -0.69793
 Alpha  occ. eigenvalues --   -0.69530  -0.67950  -0.67245  -0.66662  -0.66280
 Alpha  occ. eigenvalues --   -0.63709  -0.63691  -0.63483  -0.63276  -0.62732
 Alpha  occ. eigenvalues --   -0.62339  -0.61453  -0.61356  -0.60103  -0.60004
 Alpha  occ. eigenvalues --   -0.59918  -0.59822  -0.59688  -0.59241  -0.59125
 Alpha  occ. eigenvalues --   -0.58765  -0.57542  -0.56019  -0.55077  -0.54739
 Alpha  occ. eigenvalues --   -0.54316  -0.54295  -0.53945  -0.53608  -0.53600
 Alpha  occ. eigenvalues --   -0.53456  -0.52581  -0.52379  -0.51707  -0.51435
 Alpha  occ. eigenvalues --   -0.51069  -0.50981  -0.50434  -0.50336  -0.49950
 Alpha  occ. eigenvalues --   -0.49777  -0.49363  -0.49288  -0.49095  -0.48442
 Alpha  occ. eigenvalues --   -0.48413  -0.48220  -0.47800  -0.47751  -0.47374
 Alpha  occ. eigenvalues --   -0.47327  -0.47260  -0.47141  -0.46947  -0.46908
 Alpha  occ. eigenvalues --   -0.46746  -0.46625  -0.46063  -0.45889  -0.45877
 Alpha  occ. eigenvalues --   -0.45620  -0.45619  -0.45443  -0.45077  -0.44900
 Alpha  occ. eigenvalues --   -0.44817  -0.44734  -0.44565  -0.44242  -0.44101
 Alpha  occ. eigenvalues --   -0.44066  -0.43955  -0.43706  -0.43613  -0.43572
 Alpha  occ. eigenvalues --   -0.43460  -0.43284  -0.43235  -0.42894  -0.42866
 Alpha  occ. eigenvalues --   -0.42611  -0.42417  -0.42265  -0.42147  -0.41858
 Alpha  occ. eigenvalues --   -0.41816  -0.41692  -0.41593  -0.41390  -0.41352
 Alpha  occ. eigenvalues --   -0.41266  -0.41229  -0.40989  -0.40796  -0.40732
 Alpha  occ. eigenvalues --   -0.40689  -0.40434  -0.40287  -0.40099  -0.39914
 Alpha  occ. eigenvalues --   -0.39908  -0.39844  -0.39587  -0.39373  -0.39249
 Alpha  occ. eigenvalues --   -0.39240  -0.39057  -0.38960  -0.38876  -0.38607
 Alpha  occ. eigenvalues --   -0.38534  -0.38418  -0.38080  -0.37711  -0.37684
 Alpha  occ. eigenvalues --   -0.37559  -0.37462  -0.37223  -0.36982  -0.36779
 Alpha  occ. eigenvalues --   -0.36650  -0.36356  -0.36346  -0.36322  -0.36153
 Alpha  occ. eigenvalues --   -0.35956  -0.35822  -0.35306  -0.35235  -0.35090
 Alpha  occ. eigenvalues --   -0.34889  -0.34591  -0.34473  -0.34327  -0.34216
 Alpha  occ. eigenvalues --   -0.33763  -0.33309  -0.32800  -0.32752  -0.32383
 Alpha  occ. eigenvalues --   -0.32309  -0.32131  -0.31929  -0.31726  -0.31354
 Alpha  occ. eigenvalues --   -0.31008  -0.30855  -0.29710  -0.29494  -0.29294
 Alpha  occ. eigenvalues --   -0.29262  -0.28698  -0.27897  -0.27366  -0.26623
 Alpha  occ. eigenvalues --   -0.26067  -0.26039  -0.25732  -0.25495  -0.25354
 Alpha  occ. eigenvalues --   -0.25206  -0.24949  -0.24686  -0.21507  -0.21127
 Alpha  occ. eigenvalues --   -0.19694  -0.18779
 Alpha virt. eigenvalues --   -0.12072  -0.11239  -0.05792  -0.05380  -0.04067
 Alpha virt. eigenvalues --   -0.03601  -0.02160  -0.01729  -0.00337   0.00434
 Alpha virt. eigenvalues --    0.00541   0.00688   0.00795   0.01334   0.01678

 Mulliken charges:
               1
     1  Mg  12.000000
     2  C    6.000000
     3  C    6.000000
     4  C    6.000000
     5  C    6.000000
     6  N    7.000000
     7  C    6.000000
     8  C    6.000000
     9  C    6.000000
    10  C    6.000000
    11  C    6.000000
    12  C    6.000000
    13  C    6.000000
    14  H    1.000000
    15  N    7.000000
    16  C    6.000000
    17  C    6.000000
    18  C    6.000000
    19  C    6.000000
    20  C    6.000000
    21  C    6.000000
    22  O    8.000000
    23  C    6.000000
    24  N    7.000000
    25  C    6.000000
    26  C    6.000000
    27  C    6.000000
    28  C    6.000000
    29  C    6.000000
    30  C    6.000000
    31  C    6.000000
    32  N    7.000000
    33  C    6.000000
    34  C    6.000000
    35  C    6.000000
    36  C    6.000000
    37  C    6.000000
    38  C    6.000000
    39  O    8.000000
    40  C    6.000000
    41  C    6.000000
    42  O    8.000000
    43  O    8.000000
    44  C    6.000000
    45  H    1.000000
    46  H    1.000000
    47  H    1.000000
    48  H    1.000000
    49  H    1.000000
    50  H    1.000000
    51  H    1.000000
    52  H    1.000000
    53  H    1.000000
    54  H    1.000000
    55  H    1.000000
    56  H    1.000000
    57  H    1.000000
    58  H    1.000000
    59  H    1.000000
    60  H    1.000000
    61  H    1.000000
    62  H    1.000000
    63  H    1.000000
    64  H    1.000000
    65  H    1.000000
    66  H    1.000000
    67  H    1.000000
    68  H    1.000000
    69  H    1.000000
    70  H    1.000000
    71  H    1.000000
    72  H    1.000000
    73  H    1.000000
    74  H    1.000000
    75  H    1.000000
    76  H    1.000000
    77  H    1.000000
    78  H    1.000000
    79  H    1.000000
    80  Mg  12.000000
    81  C    6.000000
    82  C    6.000000
    83  C    6.000000
    84  C    6.000000
    85  N    7.000000
    86  C    6.000000
    87  C    6.000000
    88  C    6.000000
    89  C    6.000000
    90  C    6.000000
    91  C    6.000000
    92  C    6.000000
    93  H    1.000000
    94  N    7.000000
    95  C    6.000000
    96  C    6.000000
    97  C    6.000000
    98  C    6.000000
    99  C    6.000000
   100  C    6.000000
   101  O    8.000000
   102  C    6.000000
   103  N    7.000000
   104  C    6.000000
   105  C    6.000000
   106  C    6.000000
   107  C    6.000000
   108  C    6.000000
   109  C    6.000000
   110  C    6.000000
   111  N    7.000000
   112  C    6.000000
   113  C    6.000000
   114  C    6.000000
   115  C    6.000000
   116  C    6.000000
   117  C    6.000000
   118  O    8.000000
   119  C    6.000000
   120  C    6.000000
   121  O    8.000000
   122  O    8.000000
   123  C    6.000000
   124  H    1.000000
   125  H    1.000000
   126  H    1.000000
   127  H    1.000000
   128  H    1.000000
   129  H    1.000000
   130  H    1.000000
   131  H    1.000000
   132  H    1.000000
   133  H    1.000000
   134  H    1.000000
   135  H    1.000000
   136  H    1.000000
   137  H    1.000000
   138  H    1.000000
   139  H    1.000000
   140  H    1.000000
   141  H    1.000000
   142  H    1.000000
   143  H    1.000000
   144  H    1.000000
   145  H    1.000000
   146  H    1.000000
   147  H    1.000000
   148  H    1.000000
   149  H    1.000000
   150  H    1.000000
   151  H    1.000000
   152  H    1.000000
   153  H    1.000000
   154  H    1.000000
   155  H    1.000000
   156  H    1.000000
   157  H    1.000000
   158  H    1.000000
 Sum of Mulliken charges = 624.00000

 Dipole moment (field-independent basis, Debye):
    X=              0.0000    Y=              0.0000    Z=             -0.0000  Tot=              0.0000
 Quadrupole moment (field-independent basis, Debye-Ang):
   XX=              0.0000   YY=             -0.0000   ZZ=              0.0000
   XY=             -0.0000   XZ=             -0.0000   YZ=             -0.0000

 Normal termination of Gaussian 16 at Fri Oct 15 05:58:05 2021.
