 Gaussian 16, Revision A.03,
 Gaussian 16:  ES64L-G16RevA.03 25-Dec-2016

 --------------------------------------------------------
 #p PBE1PBE/Def2SVP td=(nstates=5) density=(transition=1)
 --------------------------------------------------------

 --------------------------------
 TDDFT excited states in gaussian
 --------------------------------
 Symbolic Z-matrix:
 Charge =  0 Multiplicity = 1

                         Standard orientation:
 ---------------------------------------------------------------------
 Center     Atomic      Atomic             Coordinates (Angstroms)
 Number     Number       Type             X           Y           Z
 ---------------------------------------------------------------------
      1         12           0      -18.262130    0.447665    0.145146
      2          6           0      -15.192189   -1.166381   -0.167653
      3          6           0      -19.610060   -2.425906    1.471993
      4          6           0      -21.227242    2.063224    0.124418
      5          6           0      -16.853460    3.226674   -1.604843
      6          7           0      -17.491374   -1.559048    0.477614
      7          6           0      -16.215482   -2.002366    0.313311
      8          6           0      -16.046227   -3.431550    0.844792
      9          6           0      -17.547121   -3.811422    1.218086
     10          6           0      -18.266984   -2.469528    1.047793
     11          6           0      -18.116810   -4.876786    0.289205
     12          6           0      -15.187182   -3.581372    2.150641
     13          6           0      -14.469360   -4.889247    2.360677
     14          1           0      -14.847342   -6.057459    1.564976
     15          7           0      -20.097756   -0.072156    0.792897
     16          6           0      -20.454249   -1.333490    1.310514
     17          6           0      -21.803634   -1.202539    1.794303
     18          6           0      -22.298517    0.087922    1.477944
     19          6           0      -21.192375    0.767282    0.759464
     20          6           0      -22.609820   -2.368717    2.324858
     21          6           0      -23.584621    0.735809    1.779048
     22          8           0      -23.940297    1.778027    1.271464
     23          6           0      -24.652741    0.006822    2.672471
     24          7           0      -18.961516    2.483227   -0.482609
     25          6           0      -20.204235    2.853397   -0.397008
     26          6           0      -20.419238    4.272621   -1.003735
     27          6           0      -19.042718    4.691066   -1.487538
     28          6           0      -18.191671    3.392516   -1.246890
     29          6           0      -21.601604    4.246182   -2.082869
     30          6           0      -18.512131    5.958266   -0.784282
     31          6           0      -18.725456    7.333195   -1.521137
     32          7           0      -16.435270    1.068984   -0.469963
     33          6           0      -15.996444    2.219828   -1.170661
     34          6           0      -14.605598    2.170662   -1.416514
     35          6           0      -14.284236    0.783783   -1.094847
     36          6           0      -15.449049    0.220119   -0.499925
     37          6           0      -13.806415    3.176402   -2.224860
     38          6           0      -13.205130   -0.129785   -1.179241
     39          8           0      -12.049215   -0.004824   -1.563837
     40          6           0      -13.781446   -1.511033   -0.443732
     41          6           0      -13.531132   -2.612872   -1.431082
     42          8           0      -13.988056   -2.641088   -2.578633
     43          8           0      -12.590612   -3.574187   -0.955522
     44          6           0      -12.280695   -4.699362   -1.892108
     45          1           0      -19.970813   -3.371609    1.883576
     46          1           0      -22.244252    2.435292   -0.013387
     47          1           0      -16.359626    4.067811   -2.095110
     48          1           0      -15.671484   -4.022687    0.008897
     49          1           0      -17.645895   -4.208564    2.228261
     50          1           0      -17.327623   -5.366656   -0.280514
     51          1           0      -18.913922   -4.496666   -0.350298
     52          1           0      -18.505956   -5.751951    0.809596
     53          1           0      -15.842942   -3.380964    2.997223
     54          1           0      -14.502561   -2.733093    2.167812
     55          1           0      -14.687174   -5.207902    3.379810
     56          1           0      -13.400416   -4.735357    2.212885
     57          1           0      -23.445416   -2.641531    1.680391
     58          1           0      -22.943989   -2.115796    3.331941
     59          1           0      -22.078556   -3.315558    2.420215
     60          1           0      -25.168578   -0.687545    2.008739
     61          1           0      -25.434967    0.706430    2.967355
     62          1           0      -24.172499   -0.560562    3.468752
     63          1           0      -20.754105    4.854574   -0.144873
     64          1           0      -19.007611    4.790572   -2.571327
     65          1           0      -21.249935    4.615490   -3.046119
     66          1           0      -22.418166    4.930400   -1.851430
     67          1           0      -21.876952    3.193313   -2.156700
     68          1           0      -17.440071    5.803361   -0.657656
     69          1           0      -18.962828    5.973726    0.208168
     70          1           0      -17.894781    7.466906   -2.215001
     71          1           0      -18.880729    8.233096   -0.925708
     72          1           0      -19.590844    7.091413   -2.137259
     73          1           0      -13.562405    3.944044   -1.490964
     74          1           0      -14.407033    3.614888   -3.020906
     75          1           0      -12.998846    2.774689   -2.838220
     76          1           0      -13.257776   -1.647758    0.503216
     77          1           0      -11.808940   -4.341878   -2.806689
     78          1           0      -13.094805   -5.354012   -2.204307
     79          1           0      -11.530296   -5.214778   -1.292655
     80         12           0       18.352343    0.028906    0.402653
     81          6           0       15.443761   -1.425720   -0.829265
     82          6           0       19.531225    0.168812   -2.855313
     83          6           0       20.907486    1.899375    1.350175
     84          6           0       16.870169    0.290382    3.519273
     85          7           0       17.526175   -0.403737   -1.614911
     86          6           0       16.374300   -1.121842   -1.862711
     87          6           0       16.236074   -1.522586   -3.301670
     88          6           0       17.725540   -1.331987   -3.831252
     89          6           0       18.310316   -0.439127   -2.744930
     90          6           0       18.617399   -2.568136   -4.324826
     91          6           0       15.096763   -0.755624   -4.120053
     92          6           0       14.789148    0.719426   -3.725034
     93          1           0       14.560508    1.641657   -4.898411
     94          7           0       19.943910    1.021081   -0.624005
     95          6           0       20.261984    0.934871   -1.985113
     96          6           0       21.392563    1.758331   -2.315787
     97          6           0       21.817633    2.311081   -1.084177
     98          6           0       20.887508    1.792856   -0.037151
     99          6           0       22.033661    1.667370   -3.701484
    100          6           0       23.054925    3.232642   -0.989486
    101          8           0       23.671677    3.607157   -1.992042
    102          6           0       23.487889    3.591204    0.369597
    103          7           0       18.706989    1.039495    2.170807
    104          6           0       19.989540    1.516279    2.383461
    105          6           0       20.246064    1.921403    3.851718
    106          6           0       18.811311    1.588506    4.433824
    107          6           0       18.064765    0.989627    3.326114
    108          6           0       21.354255    1.264977    4.612939
    109          6           0       18.027480    2.895845    4.958137
    110          6           0       17.409608    2.652029    6.310272
    111          7           0       16.590152   -0.630257    1.298447
    112          6           0       16.124643   -0.445582    2.587128
    113          6           0       14.782731   -1.055138    2.730398
    114          6           0       14.472154   -1.463895    1.386797
    115          6           0       15.590108   -1.174217    0.595871
    116          6           0       13.822168   -1.003270    3.848199
    117          6           0       13.456841   -2.011308    0.462003
    118          8           0       12.306362   -2.314028    0.679131
    119          6           0       14.055588   -2.044543   -0.980991
    120          6           0       13.999221   -3.402584   -1.523264
    121          8           0       13.401527   -3.838058   -2.507712
    122          8           0       14.545079   -4.261644   -0.533682
    123          6           0       14.634200   -5.688451   -0.911292
    124          1           0       19.964851   -0.035150   -3.837073
    125          1           0       21.791884    2.340519    1.814341
    126          1           0       16.526820    0.356412    4.553206
    127          1           0       15.937526   -2.568288   -3.374851
    128          1           0       17.542131   -0.704474   -4.703791
    129          1           0       18.111242   -3.532501   -4.364710
    130          1           0       19.469700   -2.780326   -3.679466
    131          1           0       18.869019   -2.430363   -5.376759
    132          1           0       14.177426   -1.340085   -4.135762
    133          1           0       15.411463   -0.777779   -5.163373
    134          1           0       15.580210    1.121416   -3.091268
    135          1           0       13.873507    0.759539   -3.135683
    136          1           0       22.494603    2.597548   -4.035253
    137          1           0       21.255452    1.491370   -4.443663
    138          1           0       22.799101    0.895080   -3.621932
    139          1           0       23.901626    2.702919    0.846027
    140          1           0       22.648359    4.010829    0.924746
    141          1           0       24.271709    4.335024    0.226845
    142          1           0       20.289109    3.010302    3.884768
    143          1           0       19.023131    0.765096    5.115872
    144          1           0       21.204835    1.547649    5.655120
    145          1           0       22.280032    1.756526    4.313851
    146          1           0       21.362520    0.190519    4.425912
    147          1           0       17.295027    3.142018    4.189473
    148          1           0       18.585962    3.832376    4.984778
    149          1           0       16.327799    2.625125    6.181863
    150          1           0       17.488139    3.520303    6.965359
    151          1           0       17.696902    1.666098    6.675081
    152          1           0       14.157159   -0.469359    4.738724
    153          1           0       13.673130   -2.036615    4.159453
    154          1           0       13.046722   -0.376856    3.407762
    155          1           0       13.426071   -1.362161   -1.551619
    156          1           0       15.640427   -5.945546   -0.578392
    157          1           0       14.529505   -6.003472   -1.949549
    158          1           0       14.000578   -6.198376   -0.185382
 ---------------------------------------------------------------------

 SCF Done:  E(RPBE1PBE) =  -4067.40661863     A.U. after   16 cycles

 Excitation energies and oscillator strengths:

 Excited State   1:      Singlet-A      1.8458 eV  671.72 nm  f=0.3817  <S**2>=0.000
     309 -> 316       -0.17455
     311 -> 313        0.69202
     311 <- 313       -0.10445
 This state for optimization and/or second-order correction.
 Total Energy, E(TD-HF/TD-DFT) =  -4067.33878792
 Copying the excited state density for this state as the 1-particle RhoCI density.

 Excited State   2:      Singlet-A      1.8711 eV  662.62 nm  f=0.3396  <S**2>=0.000
     310 -> 315       -0.17698
     312 -> 314        0.68966
     312 <- 314       -0.10395

 Excited State   3:      Singlet-A      1.8952 eV  654.21 nm  f=0.0000  <S**2>=0.000
     312 -> 313        0.70710

 Excited State   4:      Singlet-A      2.0709 eV  598.71 nm  f=0.0000  <S**2>=0.000
     311 -> 314        0.70710

 Excited State   5:      Singlet-A      2.2118 eV  560.57 nm  f=0.1400  <S**2>=0.000
     309 -> 313        0.66010
     311 -> 316        0.23934

 The electronic state is 1-A.
 Alpha  occ. eigenvalues --  -46.92455 -46.91357 -19.24970 -19.24850 -19.20712
 Alpha  occ. eigenvalues --  -19.19715 -19.19138 -19.19136 -19.19061 -19.18826
 Alpha  occ. eigenvalues --  -14.42095 -14.41710 -14.41642 -14.41162 -14.39691
 Alpha  occ. eigenvalues --  -14.39204 -14.39167 -14.38845 -10.36691 -10.36136
 Alpha  occ. eigenvalues --  -10.32305 -10.32253 -10.32136 -10.31759 -10.29289
 Alpha  occ. eigenvalues --  -10.29045 -10.28959 -10.28920 -10.28762 -10.28728
 Alpha  occ. eigenvalues --  -10.28482 -10.28424 -10.28346 -10.28277 -10.28224
 Alpha  occ. eigenvalues --  -10.28211 -10.27914 -10.27860 -10.27067 -10.26884
 Alpha  occ. eigenvalues --  -10.26850 -10.26809 -10.26675 -10.26426 -10.26302
 Alpha  occ. eigenvalues --  -10.26251 -10.25991 -10.25964 -10.25937 -10.25919
 Alpha  occ. eigenvalues --  -10.25871 -10.25840 -10.25801 -10.25739 -10.25695
 Alpha  occ. eigenvalues --  -10.25585 -10.25531 -10.25440 -10.25404 -10.25369
 Alpha  occ. eigenvalues --  -10.25210 -10.25097 -10.24911 -10.24851 -10.24814
 Alpha  occ. eigenvalues --  -10.24723 -10.24564 -10.24560 -10.24496 -10.24452
 Alpha  occ. eigenvalues --  -10.24389 -10.24321 -10.24062 -10.23888 -10.23651
 Alpha  occ. eigenvalues --  -10.23582 -10.23544 -10.23429 -10.23347 -10.23306
 Alpha  occ. eigenvalues --  -10.23268 -10.23239 -10.23189 -10.23176 -10.23173
 Alpha  occ. eigenvalues --  -10.22725  -3.14561  -3.13630  -1.87386  -1.86951
 Alpha  occ. eigenvalues --   -1.86776  -1.86484  -1.85997  -1.85874  -1.09494
 Alpha  occ. eigenvalues --   -1.08211  -1.05527  -1.05139  -1.03991  -1.03692
 Alpha  occ. eigenvalues --   -1.01678  -1.00688  -0.99756  -0.99649  -0.98696
 Alpha  occ. eigenvalues --   -0.98317  -0.98121  -0.97803  -0.96924  -0.96806
 Alpha  occ. eigenvalues --   -0.86781  -0.86571  -0.83919  -0.83530  -0.83479
 Alpha  occ. eigenvalues --   -0.83194  -0.82610  -0.82239  -0.81987  -0.81909
 Alpha  occ. eigenvalues --   -0.81705  -0.81207  -0.80701  -0.80395  -0.78999
 Alpha  occ. eigenvalues --   -0.78725  -0.78507  -0.77340  -0.76914  -0.76536
 Alpha  occ. eigenvalues --   -0.76429  -0.75685  -0.75151  -0.74553  -0.74457
 Alpha  occ. eigenvalues --   -0.74257  -0.72806  -0.72651  -0.71741  -0.71616
 Alpha  occ. eigenvalues --   -0.71145  -0.71053  -0.70468  -0.70161  -0.70057
 Alpha  occ. eigenvalues --   -0.69372  -0.67609  -0.67073  -0.66540  -0.66013
 Alpha  occ. eigenvalues --   -0.63794  -0.63706  -0.63626  -0.63335  -0.62547
 Alpha  occ. eigenvalues --   -0.62542  -0.61623  -0.61207  -0.60827  -0.60145
 Alpha  occ. eigenvalues --   -0.59691  -0.59438  -0.59330  -0.59197  -0.59034
 Alpha  occ. eigenvalues --   -0.58506  -0.57030  -0.56020  -0.54756  -0.54755
 Alpha  occ. eigenvalues --   -0.54228  -0.53941  -0.53899  -0.53502  -0.53195
 Alpha  occ. eigenvalues --   -0.52852  -0.52377  -0.52073  -0.51833  -0.51731
 Alpha  occ. eigenvalues --   -0.50853  -0.50783  -0.50323  -0.49865  -0.49597
 Alpha  occ. eigenvalues --   -0.49499  -0.49171  -0.49070  -0.48578  -0.48336
 Alpha  occ. eigenvalues --   -0.47808  -0.47684  -0.47568  -0.47333  -0.47218
 Alpha  occ. eigenvalues --   -0.47006  -0.46990  -0.46794  -0.46714  -0.46679
 Alpha  occ. eigenvalues --   -0.46626  -0.46454  -0.46219  -0.46171  -0.45719
 Alpha  occ. eigenvalues --   -0.45678  -0.45351  -0.45242  -0.45017  -0.44748
 Alpha  occ. eigenvalues --   -0.44630  -0.44408  -0.44261  -0.44167  -0.44149
 Alpha  occ. eigenvalues --   -0.43841  -0.43840  -0.43805  -0.43591  -0.43445
 Alpha  occ. eigenvalues --   -0.43144  -0.43123  -0.42987  -0.42905  -0.42820
 Alpha  occ. eigenvalues --   -0.42749  -0.42363  -0.42331  -0.42205  -0.41857
 Alpha  occ. eigenvalues --   -0.41856  -0.41741  -0.41622  -0.41605  -0.41525
 Alpha  occ. eigenvalues --   -0.41204  -0.40939  -0.40884  -0.40458  -0.40421
 Alpha  occ. eigenvalues --   -0.40109  -0.39941  -0.39850  -0.39812  -0.39767
 Alpha  occ. eigenvalues --   -0.39664  -0.39473  -0.39461  -0.39367  -0.39239
 Alpha  occ. eigenvalues --   -0.38858  -0.38789  -0.38693  -0.38688  -0.38235
 Alpha  occ. eigenvalues --   -0.38233  -0.37909  -0.37898  -0.37794  -0.37725
 Alpha  occ. eigenvalues --   -0.37647  -0.37526  -0.37287  -0.36997  -0.36959
 Alpha  occ. eigenvalues --   -0.36805  -0.36739  -0.36695  -0.36560  -0.36484
 Alpha  occ. eigenvalues --   -0.36454  -0.36162  -0.36052  -0.35683  -0.35287
 Alpha  occ. eigenvalues --   -0.35052  -0.34829  -0.34681  -0.34391  -0.34014
 Alpha  occ. eigenvalues --   -0.33569  -0.33476  -0.32922  -0.32769  -0.32401
 Alpha  occ. eigenvalues --   -0.32252  -0.32008  -0.31914  -0.31557  -0.31205
 Alpha  occ. eigenvalues --   -0.30732  -0.30519  -0.30264  -0.29678  -0.29665
 Alpha  occ. eigenvalues --   -0.29151  -0.28847  -0.28530  -0.26965  -0.26875
 Alpha  occ. eigenvalues --   -0.26000  -0.25852  -0.25704  -0.25681  -0.25491
 Alpha  occ. eigenvalues --   -0.25458  -0.25302  -0.25042  -0.21072  -0.20962
 Alpha  occ. eigenvalues --   -0.19105  -0.18829
 Alpha virt. eigenvalues --   -0.11502  -0.11123  -0.05675  -0.05201  -0.03944
 Alpha virt. eigenvalues --   -0.03492  -0.02003  -0.01917  -0.01072  -0.00459
 Alpha virt. eigenvalues --    0.00046   0.00837   0.01172   0.01354   0.02066

 Mulliken charges:
               1
     1  Mg  11.999351
     2  C    6.027745
     3  C    5.998991
     4  C    5.979737
     5  C    5.998480
     6  N    7.015827
     7  C    5.964967
     8  C    6.011775
     9  C    5.987913
    10  C    6.025819
    11  C    5.995967
    12  C    6.002165
    13  C    6.000349
    14  H    0.995818
    15  N    6.991040
    16  C    6.034221
    17  C    6.020405
    18  C    6.017308
    19  C    6.027538
    20  C    5.995676
    21  C    6.009459
    22  O    8.030514
    23  C    5.998077
    24  N    6.992524
    25  C    6.027406
    26  C    5.998347
    27  C    6.003887
    28  C    5.976680
    29  C    5.997526
    30  C    6.003884
    31  C    5.998744
    32  N    7.000180
    33  C    5.968587
    34  C    5.974370
    35  C    5.993829
    36  C    5.971543
    37  C    6.000164
    38  C    5.986011
    39  O    7.969153
    40  C    5.992019
    41  C    5.995739
    42  O    7.996468
    43  O    7.997901
    44  C    6.001465
    45  H    1.013566
    46  H    1.002127
    47  H    0.988011
    48  H    1.002463
    49  H    1.002762
    50  H    1.014408
    51  H    0.997952
    52  H    1.003297
    53  H    0.990488
    54  H    1.007322
    55  H    0.996783
    56  H    1.004135
    57  H    1.017832
    58  H    1.016368
    59  H    1.015860
    60  H    1.008192
    61  H    1.013683
    62  H    1.004610
    63  H    0.996223
    64  H    1.000212
    65  H    1.007456
    66  H    0.999120
    67  H    0.994202
    68  H    1.005582
    69  H    0.990123
    70  H    1.001822
    71  H    0.995248
    72  H    0.994280
    73  H    0.985278
    74  H    0.983782
    75  H    0.987229
    76  H    0.994272
    77  H    0.999625
    78  H    0.993921
    79  H    0.996197
    80  Mg  12.000017
    81  C    5.999557
    82  C    6.000391
    83  C    6.000604
    84  C    5.999675
    85  N    6.999861
    86  C    6.000945
    87  C    5.999639
    88  C    6.000318
    89  C    5.999045
    90  C    6.000121
    91  C    5.999932
    92  C    5.999835
    93  H    1.000338
    94  N    7.000125
    95  C    5.998861
    96  C    5.999478
    97  C    5.999621
    98  C    5.999014
    99  C    6.000028
   100  C    5.999617
   101  O    7.999337
   102  C    6.000153
   103  N    7.000070
   104  C    5.998813
   105  C    6.000501
   106  C    5.999639
   107  C    6.001006
   108  C    6.000076
   109  C    5.999890
   110  C    5.999982
   111  N    7.000019
   112  C    6.000982
   113  C    6.000823
   114  C    6.000148
   115  C    6.000763
   116  C    6.000005
   117  C    6.000493
   118  O    8.000983
   119  C    5.999997
   120  C    6.000212
   121  O    8.000381
   122  O    7.999789
   123  C    5.999991
   124  H    0.999599
   125  H    0.999757
   126  H    1.000315
   127  H    1.000004
   128  H    0.999879
   129  H    0.999611
   130  H    0.999934
   131  H    0.999891
   132  H    0.999985
   133  H    1.000236
   134  H    1.000137
   135  H    0.999919
   136  H    0.999540
   137  H    0.999615
   138  H    0.999426
   139  H    0.999686
   140  H    0.999742
   141  H    0.999560
   142  H    0.999933
   143  H    0.999979
   144  H    0.999697
   145  H    1.000083
   146  H    0.999830
   147  H    1.000066
   148  H    1.000310
   149  H    0.999976
   150  H    1.000120
   151  H    0.999963
   152  H    1.000479
   153  H    1.000476
   154  H    1.000576
   155  H    1.000345
   156  H    1.000037
   157  H    1.000184
   158  H    1.000040
 Sum of Mulliken charges = 624.00000

 Dipole moment (field-independent basis, Debye):
    X=             -9.0624    Y=             -3.4680    Z=              3.8620  Tot=             10.4436
 Quadrupole moment (field-independent basis, Debye-Ang):
   XX=            311.8223   YY=             -5.4671   ZZ=              0.8223
   XY=             57.3350   XZ=            -67.3727   YZ=              1.4339

 Normal termination of Gaussian 16 at Fri Oct 15 11:18:16 2021.
