 Gaussian 16, Revision A.03,
 Gaussian 16:  ES64L-G16RevA.03 25-Dec-2016

 --------------------------------------------------------
 #p PBE1PBE/Def2SVP td=(nstates=5) density=(transition=1)
 --------------------------------------------------------

 --------------------------------
 TDDFT excited states in gaussian
 --------------------------------
 Symbolic Z-matrix:
 Charge =  0 Multiplicity = 1

                         Standard orientation:
 ---------------------------------------------------------------------
 Center     Atomic      Atomic             Coordinates (Angstroms)
 Number     Number       Type             X           Y           Z
 ---------------------------------------------------------------------
      1         12           0       24.620529   -0.868421    0.167631
      2          6           0       26.385283    2.153938   -0.582836
      3          6           0       24.000956    0.436561    3.258944
      4          6           0       23.454773   -3.695376    1.007846
      5          6           0       26.317663   -2.346031   -2.493584
      6          7           0       25.173793    1.061380    1.100588
      7          6           0       25.800223    2.157896    0.685365
      8          6           0       25.711595    3.340263    1.696072
      9          6           0       25.459648    2.509785    3.033543
     10          6           0       24.806889    1.276562    2.434383
     11          6           0       26.744010    2.090764    3.741594
     12          6           0       24.514941    4.300683    1.384075
     13          6           0       24.549420    5.646216    2.114626
     14          1           0       24.059194    6.830153    1.425191
     15          7           0       23.437843   -1.372047    1.667786
     16          6           0       23.299180   -0.716310    2.845100
     17          6           0       22.304768   -1.484383    3.624773
     18          6           0       22.018290   -2.743235    2.882267
     19          6           0       22.990868   -2.665115    1.822377
     20          6           0       21.698495   -0.987769    4.901314
     21          6           0       21.032595   -3.847317    3.100304
     22          8           0       21.106480   -4.958817    2.472863
     23          6           0       20.017200   -3.624538    4.145476
     24          7           0       25.007889   -2.814141   -0.481801
     25          6           0       24.322196   -3.853792    0.005984
     26          6           0       24.566755   -5.095391   -0.799350
     27          6           0       25.378770   -4.630278   -2.093203
     28          6           0       25.538518   -3.129822   -1.744804
     29          6           0       25.339400   -6.213958   -0.086722
     30          6           0       24.781080   -5.007787   -3.471852
     31          6           0       23.489747   -4.253080   -3.695403
     32          7           0       25.958109   -0.196241   -1.404023
     33          6           0       26.563604   -0.987014   -2.391307
     34          6           0       27.464877   -0.106660   -3.157304
     35          6           0       27.332717    1.139550   -2.547927
     36          6           0       26.427476    1.037845   -1.453173
     37          6           0       28.311477   -0.508994   -4.227738
     38          6           0       27.764458    2.527874   -2.551633
     39          8           0       28.451560    3.220315   -3.303902
     40          6           0       27.261896    3.212489   -1.204577
     41          6           0       26.625911    4.525478   -1.571855
     42          8           0       25.566292    4.561099   -2.230114
     43          8           0       27.227655    5.515633   -0.895069
     44          6           0       26.624652    6.842545   -1.191458
     45          1           0       23.947559    0.642553    4.329765
     46          1           0       22.992442   -4.666933    1.194303
     47          1           0       26.815487   -2.717916   -3.390984
     48          1           0       26.625027    3.927954    1.789269
     49          1           0       24.766322    3.017859    3.703529
     50          1           0       27.623625    2.321437    3.140771
     51          1           0       26.656351    1.014379    3.890601
     52          1           0       26.796824    2.528010    4.738992
     53          1           0       23.600278    3.884001    1.805772
     54          1           0       24.429978    4.475182    0.310922
     55          1           0       25.529826    5.837337    2.551874
     56          1           0       23.877695    5.587160    2.971071
     57          1           0       22.225374   -0.113395    5.281333
     58          1           0       21.868941   -1.756386    5.654896
     59          1           0       20.629122   -0.800800    4.802241
     60          1           0       20.515018   -3.452179    5.099949
     61          1           0       19.344997   -4.480595    4.099006
     62          1           0       19.469082   -2.710263    3.916094
     63          1           0       23.627601   -5.550359   -1.111473
     64          1           0       26.385487   -5.048197   -2.116402
     65          1           0       24.805289   -7.163939   -0.055633
     66          1           0       25.582126   -5.868732    0.917865
     67          1           0       26.330666   -6.414833   -0.492254
     68          1           0       24.541281   -6.070079   -3.503116
     69          1           0       25.451439   -4.794469   -4.304538
     70          1           0       22.755386   -4.868095   -3.176459
     71          1           0       23.264634   -4.191561   -4.760649
     72          1           0       23.506653   -3.280588   -3.203002
     73          1           0       28.215864    0.257362   -4.996845
     74          1           0       28.028882   -1.490076   -4.608817
     75          1           0       29.279472   -0.518498   -3.726987
     76          1           0       28.140310    3.345345   -0.573815
     77          1           0       27.429894    7.491180   -1.536552
     78          1           0       26.081540    7.143229   -0.295342
     79          1           0       25.946813    6.884214   -2.044767
     80         12           0      -25.508945   -0.457860   -0.170957
     81          6           0      -23.797897    2.571659   -0.697546
     82          6           0      -25.994402    0.545245    3.122780
     83          6           0      -26.824238   -3.460397    0.360408
     84          6           0      -24.184929   -1.679004   -3.276803
     85          7           0      -24.945844    1.314129    1.058600
     86          6           0      -24.348953    2.483172    0.566122
     87          6           0      -24.606309    3.620153    1.537626
     88          6           0      -25.048837    2.928737    2.858543
     89          6           0      -25.356499    1.501307    2.313905
     90          6           0      -24.049972    3.013921    4.055100
     91          6           0      -25.602734    4.713161    1.016797
     92          6           0      -25.311927    6.177198    1.570649
     93          1           0      -24.161141    6.349597    2.565626
     94          7           0      -26.382994   -1.252657    1.423452
     95          6           0      -26.558715   -0.664987    2.664386
     96          6           0      -27.352360   -1.503346    3.515860
     97          6           0      -27.504228   -2.729877    2.793262
     98          6           0      -26.932919   -2.493325    1.479466
     99          6           0      -27.743973   -1.127366    4.977530
    100          6           0      -28.120101   -4.013023    3.246676
    101          8           0      -28.042440   -5.057281    2.556408
    102          6           0      -28.846056   -4.335505    4.585905
    103          7           0      -25.289555   -2.398843   -1.154048
    104          6           0      -26.032305   -3.458258   -0.781427
    105          6           0      -26.036908   -4.535794   -1.894782
    106          6           0      -25.182820   -3.989591   -3.044548
    107          6           0      -24.896137   -2.536691   -2.459745
    108          6           0      -25.705285   -5.894872   -1.358225
    109          6           0      -25.820156   -3.975993   -4.450590
    110          6           0      -27.127225   -3.155189   -4.577206
    111          7           0      -24.185806    0.225709   -1.705092
    112          6           0      -23.905502   -0.311522   -2.915296
    113          6           0      -23.255704    0.737815   -3.699104
    114          6           0      -23.190016    1.925812   -2.918530
    115          6           0      -23.734030    1.552963   -1.665357
    116          6           0      -22.846296    0.629493   -5.165580
    117          6           0      -22.772714    3.291320   -2.892403
    118          8           0      -22.334921    4.065380   -3.739478
    119          6           0      -23.111643    3.782321   -1.338224
    120          6           0      -21.854140    4.354134   -0.711043
    121          8           0      -20.967559    3.670150   -0.238446
    122          8           0      -21.911519    5.728512   -0.663497
    123          6           0      -20.677260    6.480131   -0.460452
    124          1           0      -26.198489    1.012567    4.088204
    125          1           0      -27.357075   -4.392522    0.558184
    126          1           0      -23.934031   -2.076853   -4.262006
    127          1           0      -23.674053    4.153924    1.721680
    128          1           0      -25.988078    3.392423    3.158698
    129          1           0      -23.897689    1.964476    4.304999
    130          1           0      -24.528815    3.465908    4.924564
    131          1           0      -23.071422    3.472059    3.911592
    132          1           0      -26.619543    4.519340    1.356903
    133          1           0      -25.609233    4.685437   -0.072074
    134          1           0      -26.174233    6.473768    2.167990
    135          1           0      -25.161420    6.824317    0.706882
    136          1           0      -27.683772   -2.036633    5.576864
    137          1           0      -28.767987   -0.763920    5.056690
    138          1           0      -27.206189   -0.355672    5.528123
    139          1           0      -29.673729   -3.644983    4.750342
    140          1           0      -28.165425   -4.348786    5.437136
    141          1           0      -29.479429   -5.221112    4.550744
    142          1           0      -27.085882   -4.683609   -2.148272
    143          1           0      -24.223378   -4.497373   -2.939796
    144          1           0      -26.584862   -6.526553   -1.232632
    145          1           0      -25.149271   -5.800095   -0.425366
    146          1           0      -25.013617   -6.464320   -1.980049
    147          1           0      -26.062969   -5.025039   -4.621072
    148          1           0      -25.091958   -3.641817   -5.190208
    149          1           0      -26.912716   -2.392407   -5.325431
    150          1           0      -27.322112   -2.722516   -3.595885
    151          1           0      -28.013566   -3.751751   -4.793664
    152          1           0      -23.102487    1.519797   -5.739181
    153          1           0      -23.410458   -0.147280   -5.680967
    154          1           0      -21.792535    0.351808   -5.202098
    155          1           0      -23.813614    4.606449   -1.467852
    156          1           0      -20.097027    5.927276    0.278787
    157          1           0      -20.814697    7.491774   -0.078471
    158          1           0      -20.223857    6.564898   -1.448077
 ---------------------------------------------------------------------

 SCF Done:  E(RPBE1PBE) =  -4067.38823880     A.U. after   16 cycles

 Excitation energies and oscillator strengths:

 Excited State   1:      Singlet-A      1.8182 eV  681.90 nm  f=0.3833  <S**2>=0.000
     309 -> 316        0.16245
     311 -> 313        0.69670
     311 <- 313       -0.11885
 This state for optimization and/or second-order correction.
 Total Energy, E(TD-HF/TD-DFT) =  -4067.32142016
 Copying the excited state density for this state as the 1-particle RhoCI density.

 Excited State   2:      Singlet-A      1.8414 eV  673.31 nm  f=0.3777  <S**2>=0.000
     310 -> 315       -0.16199
     312 -> 314        0.69324
     312 <- 314       -0.11106

 Excited State   3:      Singlet-A      1.8594 eV  666.80 nm  f=0.0000  <S**2>=0.000
     312 -> 313        0.70711

 Excited State   4:      Singlet-A      2.0495 eV  604.96 nm  f=0.0000  <S**2>=0.000
     311 -> 314        0.70711

 Excited State   5:      Singlet-A      2.1929 eV  565.38 nm  f=0.0922  <S**2>=0.000
     310 -> 314        0.65165
     312 -> 315        0.24164

 The electronic state is 1-A.
 Alpha  occ. eigenvalues --  -46.92325 -46.91163 -19.26898 -19.24923 -19.19686
 Alpha  occ. eigenvalues --  -19.19460 -19.19277 -19.18982 -19.18526 -19.18389
 Alpha  occ. eigenvalues --  -14.41929 -14.41918 -14.41081 -14.40932 -14.39885
 Alpha  occ. eigenvalues --  -14.39137 -14.39024 -14.38228 -10.36112 -10.36080
 Alpha  occ. eigenvalues --  -10.32812 -10.32552 -10.32464 -10.31545 -10.29119
 Alpha  occ. eigenvalues --  -10.29093 -10.28880 -10.28634 -10.28624 -10.28608
 Alpha  occ. eigenvalues --  -10.28539 -10.28389 -10.28222 -10.28192 -10.28109
 Alpha  occ. eigenvalues --  -10.28013 -10.27975 -10.27731 -10.27518 -10.27231
 Alpha  occ. eigenvalues --  -10.27009 -10.26980 -10.26928 -10.26809 -10.26541
 Alpha  occ. eigenvalues --  -10.26035 -10.25992 -10.25934 -10.25915 -10.25899
 Alpha  occ. eigenvalues --  -10.25881 -10.25874 -10.25565 -10.25426 -10.25349
 Alpha  occ. eigenvalues --  -10.25342 -10.25335 -10.25322 -10.25245 -10.25227
 Alpha  occ. eigenvalues --  -10.25184 -10.25129 -10.25103 -10.24963 -10.24824
 Alpha  occ. eigenvalues --  -10.24749 -10.24691 -10.24412 -10.24406 -10.24255
 Alpha  occ. eigenvalues --  -10.23860 -10.23766 -10.23682 -10.23662 -10.23586
 Alpha  occ. eigenvalues --  -10.23585 -10.23512 -10.23249 -10.23157 -10.23150
 Alpha  occ. eigenvalues --  -10.23072 -10.22887 -10.22567 -10.22384 -10.22375
 Alpha  occ. eigenvalues --  -10.22063  -3.14474  -3.13481  -1.87284  -1.86848
 Alpha  occ. eigenvalues --   -1.86711  -1.86303  -1.85868  -1.85714  -1.11395
 Alpha  occ. eigenvalues --   -1.10213  -1.04277  -1.03340  -1.03039  -1.02276
 Alpha  occ. eigenvalues --   -1.01809  -1.01423  -0.99145  -0.98888  -0.98341
 Alpha  occ. eigenvalues --   -0.98066  -0.97887  -0.97872  -0.97061  -0.96882
 Alpha  occ. eigenvalues --   -0.86591  -0.86303  -0.83805  -0.83523  -0.83426
 Alpha  occ. eigenvalues --   -0.82789  -0.82564  -0.82411  -0.82176  -0.81947
 Alpha  occ. eigenvalues --   -0.81725  -0.81410  -0.81000  -0.79733  -0.79206
 Alpha  occ. eigenvalues --   -0.78197  -0.78063  -0.77668  -0.77129  -0.76845
 Alpha  occ. eigenvalues --   -0.76456  -0.75867  -0.75341  -0.74975  -0.74915
 Alpha  occ. eigenvalues --   -0.74131  -0.73076  -0.72866  -0.71518  -0.71287
 Alpha  occ. eigenvalues --   -0.71204  -0.71061  -0.70214  -0.70153  -0.69342
 Alpha  occ. eigenvalues --   -0.69199  -0.67214  -0.67036  -0.66061  -0.65506
 Alpha  occ. eigenvalues --   -0.64255  -0.64192  -0.63543  -0.63205  -0.62848
 Alpha  occ. eigenvalues --   -0.62092  -0.61915  -0.61526  -0.59764  -0.59679
 Alpha  occ. eigenvalues --   -0.59392  -0.59302  -0.59069  -0.58751  -0.58740
 Alpha  occ. eigenvalues --   -0.58618  -0.56848  -0.56243  -0.55408  -0.54917
 Alpha  occ. eigenvalues --   -0.54279  -0.54067  -0.53595  -0.53381  -0.53091
 Alpha  occ. eigenvalues --   -0.52750  -0.52077  -0.52037  -0.51775  -0.51461
 Alpha  occ. eigenvalues --   -0.50845  -0.50491  -0.50346  -0.50292  -0.50026
 Alpha  occ. eigenvalues --   -0.49807  -0.49370  -0.49331  -0.49052  -0.48491
 Alpha  occ. eigenvalues --   -0.48432  -0.48015  -0.47926  -0.47725  -0.47705
 Alpha  occ. eigenvalues --   -0.47527  -0.47311  -0.47154  -0.47074  -0.46950
 Alpha  occ. eigenvalues --   -0.46704  -0.46508  -0.46390  -0.46158  -0.45915
 Alpha  occ. eigenvalues --   -0.45831  -0.45654  -0.45331  -0.45055  -0.44606
 Alpha  occ. eigenvalues --   -0.44469  -0.44456  -0.44147  -0.44101  -0.43873
 Alpha  occ. eigenvalues --   -0.43850  -0.43836  -0.43715  -0.43681  -0.43439
 Alpha  occ. eigenvalues --   -0.43210  -0.43193  -0.43088  -0.42983  -0.42833
 Alpha  occ. eigenvalues --   -0.42478  -0.42338  -0.42309  -0.42090  -0.41922
 Alpha  occ. eigenvalues --   -0.41537  -0.41414  -0.41218  -0.41076  -0.41043
 Alpha  occ. eigenvalues --   -0.40965  -0.40847  -0.40590  -0.40527  -0.40181
 Alpha  occ. eigenvalues --   -0.39967  -0.39914  -0.39438  -0.39281  -0.39276
 Alpha  occ. eigenvalues --   -0.39195  -0.38994  -0.38872  -0.38865  -0.38811
 Alpha  occ. eigenvalues --   -0.38806  -0.38716  -0.38255  -0.38213  -0.38212
 Alpha  occ. eigenvalues --   -0.37991  -0.37832  -0.37675  -0.37464  -0.37464
 Alpha  occ. eigenvalues --   -0.37418  -0.37287  -0.36831  -0.36802  -0.36752
 Alpha  occ. eigenvalues --   -0.36537  -0.36502  -0.36342  -0.36298  -0.35935
 Alpha  occ. eigenvalues --   -0.35750  -0.35576  -0.35565  -0.35454  -0.35433
 Alpha  occ. eigenvalues --   -0.35013  -0.34983  -0.34599  -0.34307  -0.34130
 Alpha  occ. eigenvalues --   -0.33659  -0.33390  -0.32814  -0.32698  -0.32637
 Alpha  occ. eigenvalues --   -0.32355  -0.32228  -0.31917  -0.31679  -0.31371
 Alpha  occ. eigenvalues --   -0.31230  -0.30878  -0.29482  -0.29208  -0.28913
 Alpha  occ. eigenvalues --   -0.28891  -0.28427  -0.28387  -0.27075  -0.26693
 Alpha  occ. eigenvalues --   -0.26294  -0.25974  -0.25818  -0.25267  -0.25088
 Alpha  occ. eigenvalues --   -0.24963  -0.24926  -0.24802  -0.21066  -0.20950
 Alpha  occ. eigenvalues --   -0.18993  -0.18732
 Alpha virt. eigenvalues --   -0.11637  -0.11197  -0.05317  -0.05028  -0.04281
 Alpha virt. eigenvalues --   -0.04127  -0.02322  -0.02149  -0.01279   0.00380
 Alpha virt. eigenvalues --    0.00449   0.00477   0.00590   0.01063   0.01827

 Mulliken charges:
               1
     1  Mg  11.999938
     2  C    5.999951
     3  C    6.000220
     4  C    6.000028
     5  C    5.999929
     6  N    7.000113
     7  C    5.999940
     8  C    5.999957
     9  C    6.000076
    10  C    5.999842
    11  C    5.999934
    12  C    5.999993
    13  C    5.999948
    14  H    1.000061
    15  N    7.000129
    16  C    5.999729
    17  C    5.999985
    18  C    5.999882
    19  C    5.999924
    20  C    6.000034
    21  C    5.999965
    22  O    7.999904
    23  C    6.000001
    24  N    7.000093
    25  C    6.000012
    26  C    6.000025
    27  C    5.999935
    28  C    6.000077
    29  C    6.000069
    30  C    6.000054
    31  C    6.000004
    32  N    6.999964
    33  C    6.000284
    34  C    6.000039
    35  C    6.000021
    36  C    6.000122
    37  C    5.999954
    38  C    5.999984
    39  O    8.000073
    40  C    6.000033
    41  C    5.999984
    42  O    8.000142
    43  O    7.999941
    44  C    5.999985
    45  H    0.999964
    46  H    0.999946
    47  H    0.999931
    48  H    0.999991
    49  H    1.000021
    50  H    0.999971
    51  H    1.000005
    52  H    0.999981
    53  H    1.000037
    54  H    1.000025
    55  H    0.999988
    56  H    1.000007
    57  H    0.999946
    58  H    0.999928
    59  H    0.999975
    60  H    0.999984
    61  H    0.999987
    62  H    1.000030
    63  H    0.999987
    64  H    0.999942
    65  H    0.999979
    66  H    0.999986
    67  H    0.999931
    68  H    0.999984
    69  H    0.999964
    70  H    1.000036
    71  H    1.000037
    72  H    1.000004
    73  H    1.000053
    74  H    1.000036
    75  H    1.000036
    76  H    0.999992
    77  H    0.999992
    78  H    1.000017
    79  H    1.000031
    80  Mg  11.999119
    81  C    6.020276
    82  C    6.001953
    83  C    5.981623
    84  C    6.003480
    85  N    7.011865
    86  C    5.966897
    87  C    6.008678
    88  C    5.988999
    89  C    6.023043
    90  C    6.001695
    91  C    6.002641
    92  C    6.000566
    93  H    0.995140
    94  N    6.996446
    95  C    6.031861
    96  C    6.024772
    97  C    6.011962
    98  C    6.027572
    99  C    5.998034
   100  C    6.008139
   101  O    8.031998
   102  C    5.996481
   103  N    6.991495
   104  C    6.030698
   105  C    5.995924
   106  C    6.007207
   107  C    5.979428
   108  C    5.997927
   109  C    6.004135
   110  C    6.004548
   111  N    7.001529
   112  C    5.970135
   113  C    5.961294
   114  C    6.002779
   115  C    5.964786
   116  C    6.001852
   117  C    5.987130
   118  O    7.976014
   119  C    5.995078
   120  C    5.996921
   121  O    7.994388
   122  O    7.998259
   123  C    6.001533
   124  H    1.013484
   125  H    1.003765
   126  H    0.990004
   127  H    1.001259
   128  H    1.002626
   129  H    0.995520
   130  H    1.002600
   131  H    1.012298
   132  H    0.988914
   133  H    1.007296
   134  H    0.995083
   135  H    1.003059
   136  H    1.014240
   137  H    1.019143
   138  H    1.017543
   139  H    1.007806
   140  H    1.008453
   141  H    1.013118
   142  H    0.998832
   143  H    0.996155
   144  H    0.997592
   145  H    0.996182
   146  H    1.008496
   147  H    0.991221
   148  H    1.004202
   149  H    1.004820
   150  H    0.993489
   151  H    0.992480
   152  H    0.982489
   153  H    0.980903
   154  H    0.978876
   155  H    0.991794
   156  H    0.995528
   157  H    0.994505
   158  H    0.999926
 Sum of Mulliken charges = 624.00000

 Dipole moment (field-independent basis, Debye):
    X=             -5.0622    Y=             -3.9735    Z=              8.3519  Tot=             10.5436
 Quadrupole moment (field-independent basis, Debye-Ang):
   XX=            256.6487   YY=              1.3050   ZZ=             -0.4339
   XY=            102.9074   XZ=           -212.6581   YZ=             -4.4651

 Normal termination of Gaussian 16 at Thu Oct 14 14:43:58 2021.
