 Gaussian 16, Revision A.03,
 Gaussian 16:  ES64L-G16RevA.03 25-Dec-2016

 --------------------------------------------------------
 #p PBE1PBE/Def2SVP td=(nstates=5) density=(transition=1)
 --------------------------------------------------------

 --------------------------------
 TDDFT excited states in gaussian
 --------------------------------
 Symbolic Z-matrix:
 Charge =  0 Multiplicity = 1

                         Standard orientation:
 ---------------------------------------------------------------------
 Center     Atomic      Atomic             Coordinates (Angstroms)
 Number     Number       Type             X           Y           Z
 ---------------------------------------------------------------------
      1         12           0        8.526741    0.542102   -0.231229
      2          6           0        6.215192   -1.914771   -1.058004
      3          6           0        6.232527    2.984814   -1.383749
      4          6           0       10.126280    2.885541    1.533402
      5          6           0       10.362738   -1.938012    1.473710
      6          7           0        6.245551    0.531325   -0.821269
      7          6           0        5.684311   -0.623530   -1.310813
      8          6           0        4.369774   -0.356568   -1.974363
      9          6           0        4.492358    1.200434   -2.310669
     10          6           0        5.715789    1.657067   -1.439760
     11          6           0        4.681256    1.573060   -3.866993
     12          6           0        3.149078   -0.843623   -1.036217
     13          6           0        1.938284   -1.183997   -1.746384
     14          1           0        0.695799   -0.410293   -1.256771
     15          7           0        8.357011    2.646188   -0.090116
     16          6           0        7.341300    3.471893   -0.648296
     17          6           0        7.668669    4.849265   -0.320627
     18          6           0        8.813394    4.864945    0.512885
     19          6           0        9.208015    3.420109    0.619833
     20          6           0        6.781598    5.978372   -0.692559
     21          6           0        9.420739    6.172887    1.173004
     22          8           0        8.858549    7.236776    0.917915
     23          6           0       10.800664    6.185398    1.821636
     24          7           0        9.939924    0.425817    1.337215
     25          6           0       10.513299    1.570754    1.786905
     26          6           0       11.605767    1.305473    2.998339
     27          6           0       11.832547   -0.271498    2.815773
     28          6           0       10.697551   -0.666926    1.818982
     29          6           0       12.971287    2.081725    2.874192
     30          6           0       11.722807   -1.050567    4.127807
     31          6           0       12.903675   -1.908208    4.642431
     32          7           0        8.498354   -1.518663   -0.103637
     33          6           0        9.316484   -2.368710    0.582275
     34          6           0        8.962394   -3.723689    0.260568
     35          6           0        7.668138   -3.557369   -0.361621
     36          6           0        7.444137   -2.177469   -0.505260
     37          6           0        9.636441   -4.967100    0.764394
     38          6           0        6.508125   -4.287343   -0.828884
     39          8           0        6.362704   -5.456567   -1.019038
     40          6           0        5.465550   -3.242988   -1.388916
     41          6           0        5.217067   -3.330968   -2.910872
     42          8           0        6.090426   -3.357679   -3.751167
     43          8           0        3.836109   -3.476475   -3.156516
     44          6           0        3.446337   -3.746655   -4.507459
     45          1           0        5.516143    3.682821   -1.820178
     46          1           0       10.515357    3.562067    2.296975
     47          1           0       10.972520   -2.672834    2.002539
     48          1           0        4.324763   -0.762384   -2.985531
     49          1           0        3.592282    1.695096   -1.943823
     50          1           0        3.825956    2.201897   -4.113900
     51          1           0        4.725904    0.695351   -4.511026
     52          1           0        5.600817    2.155597   -3.930209
     53          1           0        2.955941    0.025390   -0.407460
     54          1           0        3.639600   -1.617604   -0.445310
     55          1           0        1.793093   -2.253220   -1.596901
     56          1           0        2.041981   -0.935829   -2.802644
     57          1           0        6.035920    5.678502   -1.428649
     58          1           0        7.358144    6.752587   -1.199421
     59          1           0        6.242749    6.361082    0.174521
     60          1           0       10.865146    5.584631    2.729389
     61          1           0       11.052853    7.225531    2.030689
     62          1           0       11.510628    5.827972    1.075695
     63          1           0       11.027814    1.505721    3.900126
     64          1           0       12.734035   -0.545585    2.267345
     65          1           0       13.051970    2.813647    3.677332
     66          1           0       13.006211    2.603632    1.917148
     67          1           0       13.761602    1.334159    2.950375
     68          1           0       10.819575   -1.659487    4.159003
     69          1           0       11.465092   -0.445114    4.996629
     70          1           0       12.782540   -2.991721    4.629513
     71          1           0       13.001189   -1.644146    5.695733
     72          1           0       13.819092   -1.693090    4.089905
     73          1           0        9.333419   -5.781398    0.105752
     74          1           0        9.199886   -5.396839    1.665424
     75          1           0       10.711246   -4.878568    0.920479
     76          1           0        4.545971   -3.520040   -0.872677
     77          1           0        2.441072   -3.324059   -4.504259
     78          1           0        3.285199   -4.810383   -4.681557
     79          1           0        4.171570   -3.339567   -5.210890
     80         12           0       -8.594025    0.242919    0.026702
     81          6           0       -6.170822   -2.383919   -0.223558
     82          6           0       -6.477466    2.091073   -2.105919
     83          6           0      -10.291926    2.958417    0.695561
     84          6           0      -10.277700   -1.592571    2.341585
     85          7           0       -6.592516   -0.159249   -1.062169
     86          6           0       -5.923347   -1.337132   -1.052100
     87          6           0       -4.797977   -1.264494   -2.070974
     88          6           0       -4.846763    0.137431   -2.741338
     89          6           0       -6.043579    0.727049   -1.970518
     90          6           0       -3.452599    0.974881   -2.610865
     91          6           0       -4.901521   -2.394209   -3.183112
     92          6           0       -3.622638   -3.175828   -3.485561
     93          1           0       -2.203406   -2.484689   -3.390958
     94          7           0       -8.374322    2.279856   -0.583499
     95          6           0       -7.505410    2.778022   -1.437423
     96          6           0       -7.770107    4.184953   -1.546636
     97          6           0       -8.973740    4.504319   -0.868483
     98          6           0       -9.234738    3.259553   -0.194264
     99          6           0       -7.031562    5.089922   -2.531392
    100          6           0       -9.890216    5.717507   -0.843310
    101          8           0      -10.862883    5.798215   -0.115696
    102          6           0       -9.566835    6.810729   -1.824244
    103          7           0       -9.836916    0.699296    1.589977
    104          6           0      -10.590922    1.872088    1.518356
    105          6           0      -11.859528    1.836100    2.413256
    106          6           0      -11.870194    0.301950    2.770503
    107          6           0      -10.569610   -0.257194    2.193818
    108          6           0      -11.720243    2.801570    3.599186
    109          6           0      -13.076975   -0.504865    2.093740
    110          6           0      -14.221448   -0.926189    2.953200
    111          7           0       -8.386384   -1.609118    0.801409
    112          6           0       -9.149211   -2.214011    1.776879
    113          6           0       -8.609681   -3.503869    2.199288
    114          6           0       -7.405597   -3.629244    1.418492
    115          6           0       -7.259377   -2.420010    0.698594
    116          6           0       -9.336494   -4.472310    3.060567
    117          6           0       -6.316248   -4.518260    1.044986
    118          8           0       -6.120592   -5.678071    1.451660
    119          6           0       -5.412568   -3.715745   -0.053528
    120          6           0       -4.104489   -3.581736    0.567854
    121          8           0       -3.921583   -3.060157    1.646022
    122          8           0       -3.139308   -4.093722   -0.204977
    123          6           0       -1.707217   -4.135556    0.227595
    124          1           0       -5.899792    2.681914   -2.819698
    125          1           0      -11.138152    3.648853    0.664546
    126          1           0      -10.897385   -2.176856    3.024605
    127          1           0       -3.862330   -1.349670   -1.518311
    128          1           0       -4.966146    0.068660   -3.822729
    129          1           0       -2.610489    0.303056   -2.444444
    130          1           0       -3.615704    1.655813   -1.775102
    131          1           0       -3.292552    1.563595   -3.513991
    132          1           0       -5.320322   -2.069301   -4.134568
    133          1           0       -5.601570   -3.160146   -2.849606
    134          1           0       -3.658130   -3.637603   -4.472501
    135          1           0       -3.686015   -4.012739   -2.790093
    136          1           0       -7.557194    5.247867   -3.473274
    137          1           0       -5.997419    4.773413   -2.670609
    138          1           0       -6.929508    6.053840   -2.033361
    139          1           0       -9.267249    6.471504   -2.816305
    140          1           0       -8.780554    7.493460   -1.505197
    141          1           0      -10.489786    7.322445   -2.097153
    142          1           0      -12.701346    2.141231    1.792294
    143          1           0      -11.938984    0.213022    3.854769
    144          1           0      -10.868352    3.478232    3.533464
    145          1           0      -11.580724    2.267260    4.538290
    146          1           0      -12.632692    3.391906    3.689268
    147          1           0      -12.788771   -1.437521    1.608808
    148          1           0      -13.508453    0.022372    1.243686
    149          1           0      -15.136351   -0.430345    2.631390
    150          1           0      -13.916458   -0.592535    3.945219
    151          1           0      -14.372119   -2.003664    2.887206
    152          1           0       -9.123022   -5.500317    2.769740
    153          1           0      -10.384374   -4.173779    3.036327
    154          1           0       -8.967817   -4.321640    4.076120
    155          1           0       -5.310829   -4.277616   -0.981019
    156          1           0       -1.644162   -4.568430    1.226138
    157          1           0       -1.251016   -3.146001    0.264558
    158          1           0       -1.047722   -4.627132   -0.487078
 ---------------------------------------------------------------------

 SCF Done:  E(RPBE1PBE) =  -4067.34262712     A.U. after   16 cycles

 Excitation energies and oscillator strengths:

 Excited State   1:      Singlet-A      1.7433 eV  711.20 nm  f=0.0000  <S**2>=0.000
     312 -> 313        0.70707
 This state for optimization and/or second-order correction.
 Total Energy, E(TD-HF/TD-DFT) =  -4067.27856203
 Copying the excited state density for this state as the 1-particle RhoCI density.

 Excited State   2:      Singlet-A      1.8307 eV  677.26 nm  f=0.1445  <S**2>=0.000
     309 -> 315       -0.15746
     311 -> 313        0.64929
     312 -> 314       -0.24906
     311 <- 313       -0.10301

 Excited State   3:      Singlet-A      1.8500 eV  670.19 nm  f=0.5965  <S**2>=0.000
     310 -> 316        0.15132
     311 -> 313        0.24859
     312 -> 314        0.64908
     312 <- 314       -0.10888

 Excited State   4:      Singlet-A      1.9011 eV  652.16 nm  f=0.0001  <S**2>=0.000
     311 -> 314        0.70706

 Excited State   5:      Singlet-A      2.2069 eV  561.80 nm  f=0.1404  <S**2>=0.000
     310 -> 314        0.65872
     312 -> 316       -0.23130

 The electronic state is 1-A.
 Alpha  occ. eigenvalues --  -46.93304 -46.92020 -19.26059 -19.25730 -19.21168
 Alpha  occ. eigenvalues --  -19.19825 -19.19715 -19.19233 -19.18765 -19.18596
 Alpha  occ. eigenvalues --  -14.41842 -14.41759 -14.41362 -14.41259 -14.39857
 Alpha  occ. eigenvalues --  -14.39073 -14.38949 -14.38706 -10.37348 -10.35343
 Alpha  occ. eigenvalues --  -10.33486 -10.32882 -10.32615 -10.31445 -10.29542
 Alpha  occ. eigenvalues --  -10.29537 -10.29287 -10.29073 -10.28947 -10.28653
 Alpha  occ. eigenvalues --  -10.28610 -10.28526 -10.28514 -10.28514 -10.28241
 Alpha  occ. eigenvalues --  -10.27955 -10.27769 -10.27308 -10.27306 -10.27173
 Alpha  occ. eigenvalues --  -10.26904 -10.26672 -10.26627 -10.26452 -10.26420
 Alpha  occ. eigenvalues --  -10.26234 -10.26172 -10.26149 -10.26131 -10.26098
 Alpha  occ. eigenvalues --  -10.26044 -10.25974 -10.25884 -10.25805 -10.25794
 Alpha  occ. eigenvalues --  -10.25725 -10.25721 -10.25677 -10.25628 -10.25493
 Alpha  occ. eigenvalues --  -10.25446 -10.25417 -10.24696 -10.24616 -10.24363
 Alpha  occ. eigenvalues --  -10.24333 -10.24311 -10.24303 -10.24276 -10.24231
 Alpha  occ. eigenvalues --  -10.24217 -10.24184 -10.24090 -10.23968 -10.23897
 Alpha  occ. eigenvalues --  -10.23498 -10.23472 -10.23417 -10.23379 -10.23328
 Alpha  occ. eigenvalues --  -10.23307 -10.23276 -10.22956 -10.22803 -10.22735
 Alpha  occ. eigenvalues --  -10.22437  -3.15304  -3.14225  -1.88091  -1.87733
 Alpha  occ. eigenvalues --   -1.87492  -1.87030  -1.86605  -1.86459  -1.11175
 Alpha  occ. eigenvalues --   -1.11081  -1.05854  -1.05557  -1.04949  -1.03808
 Alpha  occ. eigenvalues --   -1.03132  -1.02045  -0.99933  -0.99337  -0.98142
 Alpha  occ. eigenvalues --   -0.97732  -0.97518  -0.97073  -0.96557  -0.96288
 Alpha  occ. eigenvalues --   -0.86833  -0.86469  -0.83607  -0.82924  -0.82849
 Alpha  occ. eigenvalues --   -0.82577  -0.82552  -0.82346  -0.81436  -0.81301
 Alpha  occ. eigenvalues --   -0.81272  -0.80921  -0.80742  -0.80191  -0.78499
 Alpha  occ. eigenvalues --   -0.78497  -0.78389  -0.77768  -0.77088  -0.76890
 Alpha  occ. eigenvalues --   -0.76485  -0.75992  -0.75621  -0.75574  -0.75008
 Alpha  occ. eigenvalues --   -0.74776  -0.72568  -0.72326  -0.71923  -0.71706
 Alpha  occ. eigenvalues --   -0.71190  -0.71159  -0.70639  -0.70545  -0.69414
 Alpha  occ. eigenvalues --   -0.69221  -0.67268  -0.66936  -0.65911  -0.65874
 Alpha  occ. eigenvalues --   -0.63678  -0.63157  -0.63081  -0.62215  -0.62100
 Alpha  occ. eigenvalues --   -0.62049  -0.61323  -0.61025  -0.60404  -0.59942
 Alpha  occ. eigenvalues --   -0.59582  -0.59472  -0.59179  -0.59053  -0.59004
 Alpha  occ. eigenvalues --   -0.58839  -0.57621  -0.56933  -0.55035  -0.54342
 Alpha  occ. eigenvalues --   -0.54208  -0.53720  -0.53687  -0.53413  -0.53237
 Alpha  occ. eigenvalues --   -0.53089  -0.52767  -0.52564  -0.52162  -0.51955
 Alpha  occ. eigenvalues --   -0.50950  -0.50673  -0.50129  -0.50113  -0.49738
 Alpha  occ. eigenvalues --   -0.49709  -0.49472  -0.48804  -0.48723  -0.48090
 Alpha  occ. eigenvalues --   -0.48027  -0.47947  -0.47560  -0.47482  -0.47428
 Alpha  occ. eigenvalues --   -0.47379  -0.47091  -0.47020  -0.46855  -0.46746
 Alpha  occ. eigenvalues --   -0.46675  -0.46454  -0.46317  -0.45896  -0.45758
 Alpha  occ. eigenvalues --   -0.45737  -0.45614  -0.45131  -0.44977  -0.44843
 Alpha  occ. eigenvalues --   -0.44734  -0.44625  -0.44519  -0.44444  -0.44290
 Alpha  occ. eigenvalues --   -0.44002  -0.43949  -0.43737  -0.43671  -0.43546
 Alpha  occ. eigenvalues --   -0.43357  -0.43320  -0.43173  -0.43039  -0.42837
 Alpha  occ. eigenvalues --   -0.42803  -0.42613  -0.42411  -0.42218  -0.42022
 Alpha  occ. eigenvalues --   -0.41796  -0.41683  -0.41436  -0.41291  -0.41271
 Alpha  occ. eigenvalues --   -0.41109  -0.40892  -0.40819  -0.40761  -0.40657
 Alpha  occ. eigenvalues --   -0.40513  -0.40186  -0.40005  -0.39881  -0.39868
 Alpha  occ. eigenvalues --   -0.39686  -0.39476  -0.39233  -0.39059  -0.38963
 Alpha  occ. eigenvalues --   -0.38796  -0.38644  -0.38568  -0.38420  -0.38346
 Alpha  occ. eigenvalues --   -0.38142  -0.38038  -0.37761  -0.37683  -0.37644
 Alpha  occ. eigenvalues --   -0.37635  -0.37467  -0.37341  -0.37238  -0.37168
 Alpha  occ. eigenvalues --   -0.36505  -0.36467  -0.36398  -0.36283  -0.36185
 Alpha  occ. eigenvalues --   -0.36142  -0.36044  -0.35905  -0.35533  -0.35433
 Alpha  occ. eigenvalues --   -0.35181  -0.34866  -0.34651  -0.34190  -0.33748
 Alpha  occ. eigenvalues --   -0.33341  -0.33336  -0.32936  -0.32907  -0.32253
 Alpha  occ. eigenvalues --   -0.31983  -0.31897  -0.31471  -0.31431  -0.31235
 Alpha  occ. eigenvalues --   -0.31176  -0.30893  -0.29944  -0.29644  -0.29564
 Alpha  occ. eigenvalues --   -0.29002  -0.28716  -0.28263  -0.27026  -0.26872
 Alpha  occ. eigenvalues --   -0.26457  -0.26281  -0.25818  -0.25700  -0.25544
 Alpha  occ. eigenvalues --   -0.25229  -0.25095  -0.25033  -0.21321  -0.20755
 Alpha  occ. eigenvalues --   -0.18923  -0.18595
 Alpha virt. eigenvalues --   -0.11390  -0.11131  -0.05280  -0.04705  -0.04039
 Alpha virt. eigenvalues --   -0.03887  -0.02443  -0.02314  -0.01563  -0.01008
 Alpha virt. eigenvalues --   -0.00405  -0.00292   0.00547   0.01084   0.01458

 Mulliken charges:
               1
     1  Mg  12.000032
     2  C    6.000050
     3  C    5.999914
     4  C    5.999972
     5  C    6.000136
     6  N    6.999956
     7  C    5.999822
     8  C    6.000085
     9  C    5.999933
    10  C    6.000201
    11  C    5.999990
    12  C    6.000030
    13  C    6.000003
    14  H    0.999992
    15  N    6.999981
    16  C    6.000247
    17  C    6.000069
    18  C    6.000099
    19  C    6.000161
    20  C    5.999973
    21  C    6.000095
    22  O    8.000124
    23  C    5.999979
    24  N    7.000097
    25  C    6.000115
    26  C    5.999957
    27  C    6.000044
    28  C    5.999805
    29  C    5.999987
    30  C    6.000002
    31  C    6.000005
    32  N    6.999984
    33  C    5.999784
    34  C    5.999897
    35  C    5.999952
    36  C    5.999868
    37  C    6.000000
    38  C    5.999899
    39  O    7.999847
    40  C    5.999985
    41  C    5.999970
    42  O    7.999964
    43  O    7.999982
    44  C    6.000015
    45  H    1.000064
    46  H    1.000074
    47  H    0.999987
    48  H    0.999982
    49  H    1.000022
    50  H    1.000019
    51  H    1.000085
    52  H    0.999974
    53  H    0.999922
    54  H    1.000048
    55  H    1.000036
    56  H    0.999984
    57  H    1.000112
    58  H    1.000098
    59  H    1.000111
    60  H    1.000069
    61  H    1.000087
    62  H    1.000051
    63  H    1.000019
    64  H    1.000004
    65  H    1.000006
    66  H    0.999982
    67  H    1.000069
    68  H    1.000033
    69  H    0.999963
    70  H    1.000025
    71  H    0.999986
    72  H    0.999986
    73  H    0.999943
    74  H    0.999891
    75  H    0.999905
    76  H    0.999944
    77  H    0.999966
    78  H    0.999987
    79  H    0.999970
    80  Mg  11.999973
    81  C    6.000041
    82  C    5.999980
    83  C    5.999953
    84  C    6.000006
    85  N    7.000019
    86  C    5.999937
    87  C    6.000001
    88  C    6.000016
    89  C    6.000026
    90  C    5.999892
    91  C    6.000008
    92  C    6.000002
    93  H    0.999986
    94  N    6.999988
    95  C    6.000062
    96  C    6.000036
    97  C    6.000008
    98  C    6.000038
    99  C    5.999995
   100  C    6.000011
   101  O    8.000039
   102  C    5.999988
   103  N    6.999991
   104  C    6.000065
   105  C    5.999984
   106  C    6.000021
   107  C    5.999944
   108  C    6.000002
   109  C    6.000019
   110  C    6.000002
   111  N    7.000000
   112  C    5.999933
   113  C    5.999927
   114  C    5.999995
   115  C    5.999933
   116  C    6.000001
   117  C    5.999971
   118  O    7.999935
   119  C    5.999986
   120  C    5.999985
   121  O    7.999986
   122  O    7.999990
   123  C    5.999992
   124  H    0.999984
   125  H    0.999998
   126  H    0.999964
   127  H    1.000010
   128  H    0.999974
   129  H    1.000177
   130  H    1.000014
   131  H    1.000004
   132  H    0.999976
   133  H    1.000017
   134  H    0.999996
   135  H    1.000021
   136  H    1.000017
   137  H    1.000011
   138  H    1.000008
   139  H    1.000004
   140  H    1.000003
   141  H    1.000012
   142  H    0.999986
   143  H    0.999981
   144  H    0.999984
   145  H    1.000011
   146  H    0.999990
   147  H    1.000006
   148  H    0.999970
   149  H    0.999980
   150  H    0.999991
   151  H    0.999998
   152  H    0.999957
   153  H    0.999960
   154  H    0.999946
   155  H    0.999973
   156  H    1.000002
   157  H    1.000000
   158  H    0.999998
 Sum of Mulliken charges = 624.00000

 Dipole moment (field-independent basis, Debye):
    X=              0.0398    Y=              0.0761    Z=             -0.0042  Tot=              0.0860
 Quadrupole moment (field-independent basis, Debye-Ang):
   XX=              0.0278   YY=              0.0793   ZZ=             -0.0091
   XY=              0.3867   XZ=              0.1093   YZ=              0.0130

 Normal termination of Gaussian 16 at Thu Oct 14 10:04:51 2021.
