 Gaussian 16, Revision A.03,
 Gaussian 16:  ES64L-G16RevA.03 25-Dec-2016

 --------------------------------------------------------
 #p PBE1PBE/Def2SVP td=(nstates=5) density=(transition=1)
 --------------------------------------------------------

 --------------------------------
 TDDFT excited states in gaussian
 --------------------------------
 Symbolic Z-matrix:
 Charge =  0 Multiplicity = 1

                         Standard orientation:
 ---------------------------------------------------------------------
 Center     Atomic      Atomic             Coordinates (Angstroms)
 Number     Number       Type             X           Y           Z
 ---------------------------------------------------------------------
      1         12           0       12.748417    0.416235    0.279258
      2          6           0        9.356294   -0.390119   -0.289225
      3          6           0       13.300902    0.497690   -2.970753
      4          6           0       16.090077    0.285567    0.978592
      5          6           0       12.188328   -0.741149    3.746527
      6          7           0       11.438945    0.023996   -1.415386
      7          6           0       10.091656   -0.039561   -1.422943
      8          6           0        9.584992    0.156815   -2.865268
      9          6           0       10.799952    0.455382   -3.683847
     10          6           0       11.958612    0.284612   -2.655255
     11          6           0       10.854686   -0.372723   -5.032375
     12          6           0        8.404690    1.154842   -3.112632
     13          6           0        8.305965    2.051178   -4.420625
     14          1           0        6.949830    2.159819   -5.133023
     15          7           0       14.440375    0.644762   -0.854808
     16          6           0       14.450116    0.666393   -2.231216
     17          6           0       15.804163    0.886114   -2.653558
     18          6           0       16.699932    0.794522   -1.517912
     19          6           0       15.759149    0.514359   -0.410865
     20          6           0       16.070775    0.994502   -4.100249
     21          6           0       18.231284    1.002481   -1.417149
     22          8           0       18.789828    0.836802   -0.383187
     23          6           0       18.980988    1.649399   -2.535897
     24          7           0       13.945019   -0.213291    2.120058
     25          6           0       15.282171   -0.015772    2.091317
     26          6           0       15.949704   -0.316402    3.471353
     27          6           0       14.717773   -0.608015    4.381746
     28          6           0       13.527127   -0.542259    3.393392
     29          6           0       16.945810   -1.445343    3.481349
     30          6           0       14.471801    0.328043    5.616365
     31          6           0       13.871518    1.676005    5.400173
     32          7           0       11.182417   -0.389431    1.577562
     33          6           0       11.121318   -0.729730    2.898525
     34          6           0        9.754284   -1.024364    3.252746
     35          6           0        8.994218   -0.917848    2.058320
     36          6           0        9.926019   -0.573088    1.058266
     37          6           0        9.239245   -1.538395    4.550698
     38          6           0        7.697306   -1.061260    1.460947
     39          8           0        6.588819   -1.330341    1.909415
     40          6           0        7.859087   -0.678343   -0.078391
     41          6           0        7.243505   -1.705552   -1.013495
     42          8           0        7.642389   -2.836030   -1.125081
     43          8           0        6.209252   -1.114897   -1.721954
     44          6           0        5.527469   -2.039898   -2.627991
     45          1           0       13.536736    0.743380   -4.008658
     46          1           0       17.170963    0.311082    1.130087
     47          1           0       11.999111   -0.981209    4.794780
     48          1           0        9.171880   -0.839893   -3.020297
     49          1           0       10.717813    1.487859   -4.024583
     50          1           0        9.913638   -0.905594   -5.167692
     51          1           0       11.768938   -0.965957   -5.016787
     52          1           0       10.859393    0.286130   -5.900900
     53          1           0        8.409040    1.852405   -2.274724
     54          1           0        7.434665    0.662361   -3.039827
     55          1           0        9.046859    1.622259   -5.095612
     56          1           0        8.640015    3.061222   -4.182999
     57          1           0       17.032889    0.507046   -4.256187
     58          1           0       16.196285    2.053650   -4.321954
     59          1           0       15.376773    0.607115   -4.846352
     60          1           0       19.299169    0.790748   -3.125704
     61          1           0       19.752066    2.297930   -2.118908
     62          1           0       18.370632    2.233186   -3.225277
     63          1           0       16.394433    0.576910    3.910346
     64          1           0       14.573342   -1.608335    4.788706
     65          1           0       17.200357   -1.761771    2.468991
     66          1           0       16.554673   -2.336387    3.973136
     67          1           0       17.825263   -1.052811    3.991216
     68          1           0       15.410918    0.489494    6.145713
     69          1           0       13.925074   -0.249319    6.362257
     70          1           0       14.047236    1.996416    4.373074
     71          1           0       14.221878    2.545093    5.957427
     72          1           0       12.823093    1.562170    5.677583
     73          1           0        9.664246   -2.490356    4.867579
     74          1           0        8.227319   -1.885039    4.339587
     75          1           0        9.294800   -0.784351    5.336318
     76          1           0        7.362253    0.285065   -0.194610
     77          1           0        5.924443   -1.497568   -3.485564
     78          1           0        4.472778   -1.846919   -2.433238
     79          1           0        5.851530   -3.074202   -2.510662
     80         12           0      -12.293486   -0.567426   -0.531204
     81          6           0      -12.290554    2.925481    0.272535
     82          6           0       -8.816048   -0.263618   -1.109305
     83          6           0      -12.092318   -3.917017   -0.538931
     84          6           0      -15.504978   -0.760106    0.718824
     85          7           0      -10.701794    1.141071   -0.445797
     86          6           0      -11.008401    2.415467   -0.058387
     87          6           0       -9.726921    3.194885    0.190944
     88          6           0       -8.711140    2.217544   -0.535954
     89          6           0       -9.395812    0.918987   -0.733412
     90          6           0       -8.101416    2.698580   -1.895398
     91          6           0       -9.560603    3.481011    1.717904
     92          6           0       -9.124334    4.922841    2.207369
     93          1           0       -7.803740    5.099484    2.978212
     94          7           0      -10.802087   -1.878524   -0.954379
     95          6           0       -9.431856   -1.586057   -1.184397
     96          6           0       -8.695721   -2.801311   -1.480064
     97          6           0       -9.671066   -3.864745   -1.300136
     98          6           0      -10.913650   -3.215952   -0.925719
     99          6           0       -7.243637   -2.789676   -1.719819
    100          6           0       -9.334856   -5.349676   -1.522161
    101          8           0       -8.123637   -5.617879   -1.772924
    102          6           0      -10.344587   -6.515625   -1.464761
    103          7           0      -13.507523   -2.213117    0.259468
    104          6           0      -13.290712   -3.482499   -0.026864
    105          6           0      -14.424033   -4.291762    0.515827
    106          6           0      -15.514942   -3.239662    0.850679
    107          6           0      -14.774414   -1.948816    0.681224
    108          6           0      -15.008960   -5.503958   -0.327811
    109          6           0      -16.184274   -3.381188    2.313860
    110          6           0      -17.690985   -3.725589    2.406915
    111          7           0      -13.694463    0.761012    0.125184
    112          6           0      -14.936642    0.554704    0.594243
    113          6           0      -15.562866    1.771110    0.963138
    114          6           0      -14.561074    2.731435    0.804240
    115          6           0      -13.404738    2.064827    0.325929
    116          6           0      -16.937546    2.054303    1.419544
    117          6           0      -14.330331    4.129015    1.003221
    118          8           0      -15.079872    4.957664    1.469135
    119          6           0      -12.715029    4.313042    0.680984
    120          6           0      -12.531233    5.272253   -0.414637
    121          8           0      -13.199502    5.312225   -1.455472
    122          8           0      -11.467567    6.075212   -0.061947
    123          6           0      -11.100007    7.121700   -1.014345
    124          1           0       -7.743066   -0.234402   -1.304992
    125          1           0      -12.058457   -5.002083   -0.423889
    126          1           0      -16.581432   -0.733883    0.901534
    127          1           0       -9.782370    4.081706   -0.440907
    128          1           0       -8.016426    2.084381    0.294179
    129          1           0       -8.340232    1.941462   -2.643656
    130          1           0       -7.015734    2.792783   -1.889669
    131          1           0       -8.522188    3.619008   -2.301350
    132          1           0       -8.774930    2.760888    1.945382
    133          1           0      -10.405338    3.206131    2.349139
    134          1           0       -9.961921    5.272943    2.810396
    135          1           0       -9.190417    5.601159    1.357254
    136          1           0       -6.799467   -2.259971   -0.876743
    137          1           0       -7.017168   -2.189393   -2.600751
    138          1           0       -6.755545   -3.738401   -1.944483
    139          1           0      -10.623998   -6.666156   -0.421860
    140          1           0       -9.903188   -7.278931   -2.104724
    141          1           0      -11.197458   -6.118676   -2.016377
    142          1           0      -14.054808   -4.773289    1.420468
    143          1           0      -16.163452   -3.308964   -0.022758
    144          1           0      -15.392608   -6.193763    0.424327
    145          1           0      -14.205171   -5.922684   -0.933162
    146          1           0      -15.828122   -5.098463   -0.921909
    147          1           0      -15.973343   -2.420651    2.783652
    148          1           0      -15.570175   -4.076259    2.886300
    149          1           0      -18.234566   -3.063705    3.079783
    150          1           0      -17.790095   -4.758085    2.742969
    151          1           0      -18.198403   -3.735907    1.442099
    152          1           0      -17.191219    3.107990    1.307778
    153          1           0      -16.806611    1.756113    2.459916
    154          1           0      -17.583344    1.255515    1.055097
    155          1           0      -12.151593    4.522949    1.589443
    156          1           0      -11.960643    7.725684   -1.302660
    157          1           0      -10.634962    6.673101   -1.893416
    158          1           0      -10.382623    7.789575   -0.537417
 ---------------------------------------------------------------------

 SCF Done:  E(RPBE1PBE) =  -4067.34500518     A.U. after   16 cycles

 Excitation energies and oscillator strengths:

 Excited State   1:      Singlet-A      1.8599 eV  666.63 nm  f=0.5553  <S**2>=0.000
     310 -> 316        0.15355
     311 -> 313       -0.35556
     312 -> 314        0.59330
 This state for optimization and/or second-order correction.
 Total Energy, E(TD-HF/TD-DFT) =  -4067.27665602
 Copying the excited state density for this state as the 1-particle RhoCI density.

 Excited State   2:      Singlet-A      1.8644 eV  665.02 nm  f=0.2035  <S**2>=0.000
     309 -> 315        0.15510
     311 -> 313        0.59424
     312 -> 314        0.35475

 Excited State   3:      Singlet-A      1.8688 eV  663.46 nm  f=0.0000  <S**2>=0.000
     312 -> 313        0.70710

 Excited State   4:      Singlet-A      1.9728 eV  628.48 nm  f=0.0000  <S**2>=0.000
     311 -> 314        0.70709

 Excited State   5:      Singlet-A      2.1921 eV  565.60 nm  f=0.1055  <S**2>=0.000
     310 -> 314        0.65381
     312 -> 316       -0.25422

 The electronic state is 1-A.
 Alpha  occ. eigenvalues --  -46.93392 -46.92220 -19.26802 -19.25445 -19.20663
 Alpha  occ. eigenvalues --  -19.20249 -19.19902 -19.19692 -19.18907 -19.18342
 Alpha  occ. eigenvalues --  -14.41753 -14.41316 -14.41246 -14.40896 -14.39529
 Alpha  occ. eigenvalues --  -14.39378 -14.39134 -14.38513 -10.36970 -10.36129
 Alpha  occ. eigenvalues --  -10.32773 -10.32518 -10.32395 -10.31973 -10.29570
 Alpha  occ. eigenvalues --  -10.29285 -10.28878 -10.28855 -10.28549 -10.28503
 Alpha  occ. eigenvalues --  -10.28423 -10.28403 -10.28208 -10.28195 -10.28043
 Alpha  occ. eigenvalues --  -10.27977 -10.27960 -10.27364 -10.27160 -10.27027
 Alpha  occ. eigenvalues --  -10.26791 -10.26686 -10.26398 -10.26356 -10.26262
 Alpha  occ. eigenvalues --  -10.26252 -10.26229 -10.26069 -10.25820 -10.25718
 Alpha  occ. eigenvalues --  -10.25588 -10.25529 -10.25493 -10.25452 -10.25366
 Alpha  occ. eigenvalues --  -10.25355 -10.25295 -10.25294 -10.25236 -10.25123
 Alpha  occ. eigenvalues --  -10.25079 -10.25020 -10.25000 -10.24842 -10.24836
 Alpha  occ. eigenvalues --  -10.24727 -10.24418 -10.24401 -10.24336 -10.24233
 Alpha  occ. eigenvalues --  -10.24086 -10.24003 -10.23977 -10.23927 -10.23833
 Alpha  occ. eigenvalues --  -10.23831 -10.23787 -10.23777 -10.23635 -10.23457
 Alpha  occ. eigenvalues --  -10.22850 -10.22677 -10.22562 -10.22440 -10.22377
 Alpha  occ. eigenvalues --  -10.22219  -3.15285  -3.14353  -1.88095  -1.87666
 Alpha  occ. eigenvalues --   -1.87497  -1.87182  -1.86715  -1.86593  -1.11185
 Alpha  occ. eigenvalues --   -1.11070  -1.07586  -1.05513  -1.03995  -1.03388
 Alpha  occ. eigenvalues --   -1.02850  -1.01903  -1.00044  -0.99335  -0.98827
 Alpha  occ. eigenvalues --   -0.98263  -0.97782  -0.97126  -0.96959  -0.96477
 Alpha  occ. eigenvalues --   -0.87416  -0.85982  -0.83602  -0.83556  -0.83149
 Alpha  occ. eigenvalues --   -0.82548  -0.82542  -0.82344  -0.82219  -0.81746
 Alpha  occ. eigenvalues --   -0.81693  -0.81419  -0.80450  -0.80265  -0.78871
 Alpha  occ. eigenvalues --   -0.78268  -0.78042  -0.77953  -0.76912  -0.76663
 Alpha  occ. eigenvalues --   -0.76239  -0.76137  -0.75628  -0.75162  -0.74762
 Alpha  occ. eigenvalues --   -0.74720  -0.72583  -0.72511  -0.71890  -0.71440
 Alpha  occ. eigenvalues --   -0.71401  -0.71118  -0.70514  -0.70197  -0.69638
 Alpha  occ. eigenvalues --   -0.69022  -0.67598  -0.66801  -0.66595  -0.65873
 Alpha  occ. eigenvalues --   -0.64103  -0.64100  -0.63773  -0.63642  -0.62774
 Alpha  occ. eigenvalues --   -0.62702  -0.61326  -0.61144  -0.60520  -0.60082
 Alpha  occ. eigenvalues --   -0.59580  -0.59486  -0.59217  -0.58776  -0.58639
 Alpha  occ. eigenvalues --   -0.58514  -0.57436  -0.56261  -0.54649  -0.54531
 Alpha  occ. eigenvalues --   -0.54482  -0.54092  -0.53983  -0.53401  -0.53385
 Alpha  occ. eigenvalues --   -0.52935  -0.52853  -0.52550  -0.52152  -0.51942
 Alpha  occ. eigenvalues --   -0.50707  -0.50610  -0.50417  -0.50356  -0.50096
 Alpha  occ. eigenvalues --   -0.49909  -0.49604  -0.49367  -0.49170  -0.49049
 Alpha  occ. eigenvalues --   -0.48629  -0.48245  -0.48161  -0.47902  -0.47747
 Alpha  occ. eigenvalues --   -0.47493  -0.47412  -0.47021  -0.46956  -0.46539
 Alpha  occ. eigenvalues --   -0.46373  -0.46253  -0.45854  -0.45809  -0.45726
 Alpha  occ. eigenvalues --   -0.45495  -0.45370  -0.45177  -0.45096  -0.44893
 Alpha  occ. eigenvalues --   -0.44848  -0.44651  -0.44508  -0.44453  -0.44155
 Alpha  occ. eigenvalues --   -0.44134  -0.43964  -0.43868  -0.43632  -0.43412
 Alpha  occ. eigenvalues --   -0.43384  -0.43234  -0.43090  -0.42928  -0.42495
 Alpha  occ. eigenvalues --   -0.42366  -0.42318  -0.42283  -0.42252  -0.42092
 Alpha  occ. eigenvalues --   -0.41905  -0.41846  -0.41680  -0.41470  -0.41299
 Alpha  occ. eigenvalues --   -0.41069  -0.40769  -0.40726  -0.40614  -0.40498
 Alpha  occ. eigenvalues --   -0.40300  -0.40283  -0.40178  -0.39989  -0.39713
 Alpha  occ. eigenvalues --   -0.39360  -0.39324  -0.39244  -0.39052  -0.38864
 Alpha  occ. eigenvalues --   -0.38507  -0.38504  -0.38390  -0.38361  -0.38288
 Alpha  occ. eigenvalues --   -0.38105  -0.38028  -0.37854  -0.37813  -0.37702
 Alpha  occ. eigenvalues --   -0.37696  -0.37577  -0.37482  -0.37204  -0.37160
 Alpha  occ. eigenvalues --   -0.36904  -0.36726  -0.36431  -0.36358  -0.36056
 Alpha  occ. eigenvalues --   -0.35839  -0.35758  -0.35626  -0.35491  -0.35209
 Alpha  occ. eigenvalues --   -0.35113  -0.35005  -0.34090  -0.33903  -0.33865
 Alpha  occ. eigenvalues --   -0.33676  -0.33149  -0.33062  -0.32849  -0.32578
 Alpha  occ. eigenvalues --   -0.32519  -0.32383  -0.31973  -0.31451  -0.30871
 Alpha  occ. eigenvalues --   -0.30794  -0.30782  -0.29864  -0.29529  -0.29203
 Alpha  occ. eigenvalues --   -0.28809  -0.28675  -0.28569  -0.26924  -0.26535
 Alpha  occ. eigenvalues --   -0.26452  -0.26052  -0.25648  -0.25594  -0.25392
 Alpha  occ. eigenvalues --   -0.25122  -0.25022  -0.24826  -0.21078  -0.20762
 Alpha  occ. eigenvalues --   -0.18876  -0.18687
 Alpha virt. eigenvalues --   -0.11282  -0.11085  -0.05152  -0.05091  -0.03857
 Alpha virt. eigenvalues --   -0.03778  -0.01971  -0.01953  -0.01659  -0.00492
 Alpha virt. eigenvalues --   -0.00131   0.00314   0.00973   0.00976   0.01714

 Mulliken charges:
               1
     1  Mg  11.999252
     2  C    5.979388
     3  C    6.006146
     4  C    6.013947
     5  C    5.999169
     6  N    6.987816
     7  C    6.028959
     8  C    5.994998
     9  C    6.009607
    10  C    5.973533
    11  C    5.999870
    12  C    5.998554
    13  C    6.002193
    14  H    0.998193
    15  N    7.005597
    16  C    5.969678
    17  C    5.982882
    18  C    5.985478
    19  C    5.976826
    20  C    6.005096
    21  C    5.988604
    22  O    7.978649
    23  C    6.003611
    24  N    7.001293
    25  C    5.976824
    26  C    6.009487
    27  C    5.997289
    28  C    6.021661
    29  C    6.000388
    30  C    5.995832
    31  C    5.994114
    32  N    6.998861
    33  C    6.024834
    34  C    6.031742
    35  C    5.998994
    36  C    6.027176
    37  C    5.998055
    38  C    6.012829
    39  O    8.024224
    40  C    6.002329
    41  C    6.003286
    42  O    8.003092
    43  O    8.001266
    44  C    5.999061
    45  H    0.992120
    46  H    0.995751
    47  H    1.009539
    48  H    0.997993
    49  H    0.996093
    50  H    0.990709
    51  H    1.002772
    52  H    0.997883
    53  H    0.998071
    54  H    0.996680
    55  H    1.005491
    56  H    1.001438
    57  H    0.985639
    58  H    0.983069
    59  H    0.984199
    60  H    0.992787
    61  H    0.988744
    62  H    0.996904
    63  H    0.998932
    64  H    0.999065
    65  H    1.006117
    66  H    0.992942
    67  H    0.999074
    68  H    1.009133
    69  H    0.998824
    70  H    1.007940
    71  H    1.006172
    72  H    0.994668
    73  H    1.018592
    74  H    1.011082
    75  H    1.016774
    76  H    1.005314
    77  H    1.004827
    78  H    1.002110
    79  H    1.001874
    80  Mg  12.000349
    81  C    5.993191
    82  C    6.009132
    83  C    6.008035
    84  C    5.990094
    85  N    7.002055
    86  C    6.013196
    87  C    5.996271
    88  C    6.004311
    89  C    5.984890
    90  C    6.001200
    91  C    5.996348
    92  C    5.999803
    93  H    1.004450
    94  N    7.001553
    95  C    5.976603
    96  C    5.989915
    97  C    5.994006
    98  C    5.983726
    99  C    6.001992
   100  C    5.993526
   101  O    7.988461
   102  C    5.999046
   103  N    6.999972
   104  C    5.983938
   105  C    6.005242
   106  C    5.994536
   107  C    6.017480
   108  C    6.000738
   109  C    5.999171
   110  C    5.999397
   111  N    6.999761
   112  C    6.017875
   113  C    6.014402
   114  C    6.002140
   115  C    6.014267
   116  C    6.000697
   117  C    6.008157
   118  O    8.013736
   119  C    6.001969
   120  C    6.002550
   121  O    8.002436
   122  O    8.001199
   123  C    5.998809
   124  H    0.995411
   125  H    0.996350
   126  H    1.003539
   127  H    0.999917
   128  H    0.998598
   129  H    1.002625
   130  H    0.998931
   131  H    0.993921
   132  H    1.005786
   133  H    0.997425
   134  H    0.998382
   135  H    1.000129
   136  H    0.989817
   137  H    0.990008
   138  H    0.993001
   139  H    0.994592
   140  H    0.994173
   141  H    0.996324
   142  H    0.999422
   143  H    1.001263
   144  H    0.997384
   145  H    1.003779
   146  H    0.996675
   147  H    0.997031
   148  H    1.004610
   149  H    0.998976
   150  H    1.002961
   151  H    1.000746
   152  H    1.006612
   153  H    1.009567
   154  H    1.009623
   155  H    1.004755
   156  H    1.001128
   157  H    1.003305
   158  H    1.002611
 Sum of Mulliken charges = 624.00000

 Dipole moment (field-independent basis, Debye):
    X=            -10.2321    Y=              1.8256    Z=              7.0314  Tot=             12.5487
 Quadrupole moment (field-independent basis, Debye-Ang):
   XX=            -83.2318   YY=             -1.9540   ZZ=              3.9176
   XY=            -65.2542   XZ=             52.6891   YZ=             -2.5356

 Normal termination of Gaussian 16 at Thu Oct 14 08:20:16 2021.
