 Gaussian 16, Revision A.03,
 Gaussian 16:  ES64L-G16RevA.03 25-Dec-2016

 --------------------------------------------------------
 #p PBE1PBE/Def2SVP td=(nstates=5) density=(transition=1)
 --------------------------------------------------------

 --------------------------------
 TDDFT excited states in gaussian
 --------------------------------
 Symbolic Z-matrix:
 Charge =  0 Multiplicity = 1

                         Standard orientation:
 ---------------------------------------------------------------------
 Center     Atomic      Atomic             Coordinates (Angstroms)
 Number     Number       Type             X           Y           Z
 ---------------------------------------------------------------------
      1         12           0      -23.723682    0.483061    0.514434
      2          6           0      -23.187597   -2.450416   -1.207080
      3          6           0      -20.351064    1.021304    0.508145
      4          6           0      -24.381185    3.688437    0.968269
      5          6           0      -27.163707   -0.208687    0.391162
      6          7           0      -22.055115   -0.418074   -0.697548
      7          6           0      -22.033515   -1.712307   -1.108041
      8          6           0      -20.656763   -2.182065   -1.474508
      9          6           0      -19.803852   -1.263099   -0.541186
     10          6           0      -20.805076   -0.186350   -0.149710
     11          6           0      -19.155686   -2.032690    0.645247
     12          6           0      -20.317697   -1.922782   -3.027489
     13          6           0      -19.401142   -3.032320   -3.724157
     14          1           0      -18.142583   -2.356811   -4.209704
     15          7           0      -22.509480    2.084728    0.906381
     16          6           0      -21.167150    2.182016    0.787037
     17          6           0      -20.721762    3.540159    1.072109
     18          6           0      -21.885453    4.318430    1.240468
     19          6           0      -22.999818    3.351956    1.030719
     20          6           0      -19.217873    3.907027    1.072113
     21          6           0      -21.855951    5.817380    1.350769
     22          8           0      -20.797372    6.389058    1.379714
     23          6           0      -23.105444    6.718142    1.382226
     24          7           0      -25.531522    1.621352    0.798649
     25          6           0      -25.518939    2.871414    0.943567
     26          6           0      -26.871183    3.482499    0.925789
     27          6           0      -27.809983    2.224483    0.752584
     28          6           0      -26.816741    1.151101    0.638282
     29          6           0      -27.116806    4.384325    2.182451
     30          6           0      -28.739913    2.342348   -0.542411
     31          6           0      -30.010970    1.422823   -0.607286
     32          7           0      -24.968360   -1.021102   -0.154630
     33          6           0      -26.334249   -1.203668   -0.036617
     34          6           0      -26.708973   -2.517581   -0.480661
     35          6           0      -25.461859   -3.086334   -0.918338
     36          6           0      -24.488606   -2.113387   -0.796852
     37          6           0      -28.071384   -3.132548   -0.479840
     38          6           0      -24.869945   -4.270393   -1.438245
     39          8           0      -25.289694   -5.386596   -1.769836
     40          6           0      -23.414923   -3.847480   -1.828217
     41          6           0      -22.513338   -4.940307   -1.359115
     42          8           0      -22.129994   -5.889773   -2.056806
     43          8           0      -22.224209   -4.764637   -0.034029
     44          6           0      -21.363924   -5.890336    0.427031
     45          1           0      -19.293075    1.228121    0.684485
     46          1           0      -24.566172    4.760229    1.059831
     47          1           0      -28.233556   -0.363558    0.231758
     48          1           0      -20.632966   -3.215236   -1.130273
     49          1           0      -18.961079   -0.866710   -1.107739
     50          1           0      -18.071078   -1.997310    0.547057
     51          1           0      -19.433439   -3.081485    0.535446
     52          1           0      -19.555815   -1.610224    1.566409
     53          1           0      -19.923982   -0.937666   -3.277305
     54          1           0      -21.234824   -1.902258   -3.615301
     55          1           0      -19.973354   -3.334009   -4.601586
     56          1           0      -19.184567   -3.963192   -3.199940
     57          1           0      -18.934439    4.683681    0.361876
     58          1           0      -18.552165    3.054261    0.934427
     59          1           0      -18.975977    4.233770    2.082913
     60          1           0      -23.730595    6.556599    2.259793
     61          1           0      -23.717960    6.649841    0.482842
     62          1           0      -22.712400    7.730843    1.287461
     63          1           0      -26.865855    4.069466    0.007439
     64          1           0      -28.425489    1.916037    1.597296
     65          1           0      -27.338722    5.385149    1.812684
     66          1           0      -26.255888    4.394343    2.851138
     67          1           0      -28.053717    4.181245    2.700925
     68          1           0      -28.157559    2.133946   -1.440174
     69          1           0      -29.042555    3.387773   -0.580553
     70          1           0      -31.011150    1.848988   -0.680586
     71          1           0      -30.092485    0.820360    0.296387
     72          1           0      -29.933585    0.733256   -1.447903
     73          1           0      -28.855211   -2.584261    0.042379
     74          1           0      -27.830725   -4.084258   -0.007812
     75          1           0      -28.203501   -3.290053   -1.550356
     76          1           0      -23.270485   -3.666874   -2.893938
     77          1           0      -21.951575   -6.807542    0.449066
     78          1           0      -21.086977   -5.806133    1.477916
     79          1           0      -20.490129   -5.924173   -0.224025
     80         12           0       23.859924    0.548432   -0.429217
     81          6           0       23.007868   -2.130874    1.830238
     82          6           0       21.928987    2.642977    1.615701
     83          6           0       24.719950    3.025617   -2.405022
     84          6           0       25.472369   -1.766411   -2.493835
     85          7           0       22.581247    0.214238    1.527872
     86          6           0       22.567949   -0.869285    2.348270
     87          6           0       21.970904   -0.546376    3.708312
     88          6           0       21.298909    0.923785    3.502937
     89          6           0       21.942246    1.283956    2.132633
     90          6           0       19.751426    0.951498    3.571646
     91          6           0       23.030657   -0.592349    4.860436
     92          6           0       22.670710   -1.569774    6.009241
     93          1           0       22.418549   -0.831360    7.447176
     94          7           0       23.407991    2.496203   -0.394718
     95          6           0       22.564158    3.242722    0.495681
     96          6           0       22.495064    4.686725    0.169179
     97          6           0       23.363898    4.765569   -0.968111
     98          6           0       23.861598    3.417148   -1.288175
     99          6           0       21.653952    5.718551    0.923392
    100          6           0       23.676032    5.945035   -1.808149
    101          8           0       24.593007    6.022236   -2.618676
    102          6           0       22.877329    7.239345   -1.558058
    103          7           0       25.065531    0.622017   -2.066635
    104          6           0       25.254312    1.774560   -2.748937
    105          6           0       25.913734    1.565455   -4.083765
    106          6           0       26.214309    0.047051   -4.129744
    107          6           0       25.603969   -0.424402   -2.790604
    108          6           0       25.144036    2.118401   -5.264845
    109          6           0       27.832226   -0.221354   -4.166708
    110          6           0       28.362789   -1.160128   -5.381400
    111          7           0       23.968165   -1.573262   -0.517949
    112          6           0       24.751795   -2.348575   -1.406239
    113          6           0       24.692518   -3.742484   -0.951656
    114          6           0       24.146357   -3.637667    0.354638
    115          6           0       23.624536   -2.352620    0.510619
    116          6           0       25.163005   -5.018982   -1.642330
    117          6           0       23.658446   -4.494745    1.471836
    118          8           0       23.645867   -5.733173    1.715934
    119          6           0       23.019307   -3.488803    2.505504
    120          6           0       21.639644   -3.970206    2.845538
    121          8           0       20.845085   -4.367108    2.040842
    122          8           0       21.486176   -3.995024    4.203947
    123          6           0       20.292587   -4.770214    4.627006
    124          1           0       21.211843    3.218833    2.204035
    125          1           0       25.038399    3.804460   -3.101469
    126          1           0       26.001837   -2.501614   -3.103029
    127          1           0       21.164411   -1.264004    3.859122
    128          1           0       21.683520    1.660900    4.208316
    129          1           0       19.324584    1.224072    2.606001
    130          1           0       19.416509    1.653248    4.336611
    131          1           0       19.273581    0.032076    3.910004
    132          1           0       23.165372    0.385229    5.324080
    133          1           0       24.006564   -0.914404    4.496160
    134          1           0       23.499979   -2.216853    6.296261
    135          1           0       21.862904   -2.267238    5.789907
    136          1           0       21.310620    5.444822    1.921538
    137          1           0       20.789965    6.105188    0.382985
    138          1           0       22.317388    6.573847    1.055454
    139          1           0       21.817147    7.073991   -1.749627
    140          1           0       23.256825    8.080024   -2.139851
    141          1           0       23.001903    7.509033   -0.509333
    142          1           0       26.825174    2.164455   -4.103967
    143          1           0       25.693367   -0.434582   -4.956716
    144          1           0       25.593324    3.013345   -5.696204
    145          1           0       24.134619    2.462066   -5.039147
    146          1           0       25.060244    1.326227   -6.009136
    147          1           0       28.226673   -0.675148   -3.258126
    148          1           0       28.405399    0.700000   -4.266636
    149          1           0       27.584699   -1.114257   -6.143607
    150          1           0       28.537651   -2.186204   -5.055226
    151          1           0       29.227380   -0.718422   -5.876174
    152          1           0       25.499952   -5.772103   -0.930293
    153          1           0       26.073692   -4.773411   -2.189871
    154          1           0       24.351232   -5.244748   -2.333968
    155          1           0       23.602256   -3.600067    3.419423
    156          1           0       19.434583   -4.359739    4.094960
    157          1           0       20.171735   -4.494077    5.674386
    158          1           0       20.266068   -5.845659    4.451677
 ---------------------------------------------------------------------

 SCF Done:  E(RPBE1PBE) =  -4067.35636374     A.U. after   17 cycles

 Excitation energies and oscillator strengths:

 Excited State   1:      Singlet-A      1.7986 eV  689.33 nm  f=0.3425  <S**2>=0.000
     309 -> 315        0.16144
     312 -> 314        0.69477
     312 <- 314       -0.10915
 This state for optimization and/or second-order correction.
 Total Energy, E(TD-HF/TD-DFT) =  -4067.29026553
 Copying the excited state density for this state as the 1-particle RhoCI density.

 Excited State   2:      Singlet-A      1.8271 eV  678.60 nm  f=0.3591  <S**2>=0.000
     310 -> 316        0.18278
     311 -> 313        0.69140
     311 <- 313       -0.10667

 Excited State   3:      Singlet-A      1.9267 eV  643.51 nm  f=0.0000  <S**2>=0.000
     312 -> 313        0.70711

 Excited State   4:      Singlet-A      1.9912 eV  622.67 nm  f=0.0000  <S**2>=0.000
     311 -> 314        0.70711

 Excited State   5:      Singlet-A      2.1728 eV  570.63 nm  f=0.1317  <S**2>=0.000
     310 -> 313        0.65737
     311 -> 316       -0.25560

 The electronic state is 1-A.
 Alpha  occ. eigenvalues --  -46.92588 -46.91971 -19.26300 -19.26297 -19.19962
 Alpha  occ. eigenvalues --  -19.19444 -19.19419 -19.19061 -19.19040 -19.18467
 Alpha  occ. eigenvalues --  -14.41958 -14.41594 -14.41511 -14.41469 -14.40310
 Alpha  occ. eigenvalues --  -14.39744 -14.39016 -14.38449 -10.35846 -10.35835
 Alpha  occ. eigenvalues --  -10.32616 -10.32433 -10.32116 -10.31486 -10.29769
 Alpha  occ. eigenvalues --  -10.29452 -10.29150 -10.29094 -10.29087 -10.29044
 Alpha  occ. eigenvalues --  -10.29016 -10.29014 -10.28694 -10.28485 -10.28311
 Alpha  occ. eigenvalues --  -10.28194 -10.28113 -10.28090 -10.27944 -10.27885
 Alpha  occ. eigenvalues --  -10.26876 -10.26850 -10.26801 -10.26629 -10.26520
 Alpha  occ. eigenvalues --  -10.26450 -10.26428 -10.26400 -10.26359 -10.26159
 Alpha  occ. eigenvalues --  -10.26149 -10.26098 -10.25928 -10.25920 -10.25800
 Alpha  occ. eigenvalues --  -10.25679 -10.25662 -10.25614 -10.25467 -10.25421
 Alpha  occ. eigenvalues --  -10.25356 -10.25341 -10.25227 -10.25140 -10.25084
 Alpha  occ. eigenvalues --  -10.25006 -10.24971 -10.24942 -10.24627 -10.24623
 Alpha  occ. eigenvalues --  -10.24554 -10.24428 -10.24351 -10.24003 -10.23918
 Alpha  occ. eigenvalues --  -10.23916 -10.23837 -10.23770 -10.23768 -10.23685
 Alpha  occ. eigenvalues --  -10.23622 -10.23436 -10.23221 -10.23089 -10.22996
 Alpha  occ. eigenvalues --  -10.22557  -3.14740  -3.14190  -1.87567  -1.87128
 Alpha  occ. eigenvalues --   -1.87029  -1.86955  -1.86564  -1.86434  -1.11729
 Alpha  occ. eigenvalues --   -1.10818  -1.06419  -1.04568  -1.03513  -1.03123
 Alpha  occ. eigenvalues --   -1.01897  -1.01681  -1.01376  -0.99075  -0.98661
 Alpha  occ. eigenvalues --   -0.98539  -0.97857  -0.97699  -0.97255  -0.96632
 Alpha  occ. eigenvalues --   -0.87074  -0.85949  -0.84102  -0.82940  -0.82901
 Alpha  occ. eigenvalues --   -0.82772  -0.82530  -0.82335  -0.81718  -0.81644
 Alpha  occ. eigenvalues --   -0.81244  -0.81204  -0.80804  -0.80086  -0.78518
 Alpha  occ. eigenvalues --   -0.78247  -0.78201  -0.77487  -0.76542  -0.76081
 Alpha  occ. eigenvalues --   -0.75875  -0.75497  -0.75178  -0.75009  -0.74707
 Alpha  occ. eigenvalues --   -0.73978  -0.73265  -0.72829  -0.71966  -0.71479
 Alpha  occ. eigenvalues --   -0.71116  -0.71107  -0.70357  -0.70330  -0.69791
 Alpha  occ. eigenvalues --   -0.69593  -0.67221  -0.67044  -0.66629  -0.65855
 Alpha  occ. eigenvalues --   -0.64905  -0.63650  -0.63494  -0.63163  -0.62591
 Alpha  occ. eigenvalues --   -0.62041  -0.61970  -0.61524  -0.61351  -0.60381
 Alpha  occ. eigenvalues --   -0.60024  -0.59798  -0.59442  -0.59059  -0.58998
 Alpha  occ. eigenvalues --   -0.58567  -0.57077  -0.56957  -0.55289  -0.54938
 Alpha  occ. eigenvalues --   -0.54224  -0.53868  -0.53741  -0.53394  -0.53325
 Alpha  occ. eigenvalues --   -0.52959  -0.52586  -0.52479  -0.51739  -0.51445
 Alpha  occ. eigenvalues --   -0.51291  -0.50784  -0.50698  -0.50305  -0.49880
 Alpha  occ. eigenvalues --   -0.49545  -0.49483  -0.49072  -0.48832  -0.48399
 Alpha  occ. eigenvalues --   -0.48282  -0.47968  -0.47550  -0.47282  -0.47157
 Alpha  occ. eigenvalues --   -0.46903  -0.46807  -0.46664  -0.46464  -0.46296
 Alpha  occ. eigenvalues --   -0.46282  -0.46053  -0.46003  -0.45931  -0.45791
 Alpha  occ. eigenvalues --   -0.45463  -0.45375  -0.45091  -0.44810  -0.44770
 Alpha  occ. eigenvalues --   -0.44709  -0.44541  -0.44514  -0.44365  -0.44143
 Alpha  occ. eigenvalues --   -0.43907  -0.43885  -0.43729  -0.43648  -0.43321
 Alpha  occ. eigenvalues --   -0.43280  -0.42974  -0.42957  -0.42803  -0.42644
 Alpha  occ. eigenvalues --   -0.42436  -0.42375  -0.42275  -0.42073  -0.42026
 Alpha  occ. eigenvalues --   -0.41704  -0.41590  -0.41583  -0.41438  -0.41218
 Alpha  occ. eigenvalues --   -0.41051  -0.41030  -0.40933  -0.40728  -0.40667
 Alpha  occ. eigenvalues --   -0.40538  -0.40335  -0.40069  -0.39790  -0.39746
 Alpha  occ. eigenvalues --   -0.39649  -0.39520  -0.39484  -0.39249  -0.39222
 Alpha  occ. eigenvalues --   -0.39128  -0.38925  -0.38903  -0.38752  -0.38715
 Alpha  occ. eigenvalues --   -0.38464  -0.38328  -0.38109  -0.38043  -0.37696
 Alpha  occ. eigenvalues --   -0.37570  -0.37467  -0.37456  -0.37100  -0.37050
 Alpha  occ. eigenvalues --   -0.36910  -0.36809  -0.36772  -0.36399  -0.36251
 Alpha  occ. eigenvalues --   -0.36153  -0.36130  -0.35756  -0.35685  -0.35599
 Alpha  occ. eigenvalues --   -0.35370  -0.35140  -0.34983  -0.34609  -0.34468
 Alpha  occ. eigenvalues --   -0.33633  -0.33571  -0.33251  -0.33250  -0.32680
 Alpha  occ. eigenvalues --   -0.32515  -0.32254  -0.31921  -0.31814  -0.31509
 Alpha  occ. eigenvalues --   -0.31455  -0.30647  -0.30206  -0.29758  -0.29369
 Alpha  occ. eigenvalues --   -0.29092  -0.28587  -0.28389  -0.27140  -0.26852
 Alpha  occ. eigenvalues --   -0.26295  -0.26112  -0.26000  -0.25697  -0.25569
 Alpha  occ. eigenvalues --   -0.25349  -0.25016  -0.24754  -0.21046  -0.20848
 Alpha  occ. eigenvalues --   -0.18925  -0.18759
 Alpha virt. eigenvalues --   -0.11402  -0.11328  -0.05340  -0.05320  -0.04074
 Alpha virt. eigenvalues --   -0.04000  -0.02380  -0.02281  -0.00811  -0.00009
 Alpha virt. eigenvalues --    0.00236   0.00694   0.01006   0.01188   0.01283

 Mulliken charges:
               1
     1  Mg  12.000677
     2  C    6.012684
     3  C    5.992334
     4  C    5.984626
     5  C    6.003352
     6  N    7.008602
     7  C    5.966138
     8  C    6.010214
     9  C    5.986088
    10  C    6.032184
    11  C    5.997020
    12  C    5.998895
    13  C    6.002202
    14  H    0.991151
    15  N    6.995181
    16  C    6.035571
    17  C    6.022145
    18  C    6.013578
    19  C    6.029489
    20  C    5.996208
    21  C    6.008932
    22  O    8.019204
    23  C    5.998282
    24  N    7.000438
    25  C    6.029073
    26  C    5.991863
    27  C    6.010171
    28  C    5.965624
    29  C    5.997351
    30  C    6.006353
    31  C    6.001347
    32  N    6.999598
    33  C    5.973095
    34  C    5.968356
    35  C    6.000036
    36  C    5.975647
    37  C    5.999171
    38  C    5.984050
    39  O    7.971369
    40  C    6.001358
    41  C    5.995993
    42  O    7.993229
    43  O    8.000872
    44  C    6.000820
    45  H    1.010305
    46  H    1.006309
    47  H    0.991699
    48  H    1.002877
    49  H    1.005178
    50  H    1.003442
    51  H    1.015023
    52  H    0.999582
    53  H    0.989379
    54  H    1.005010
    55  H    1.002087
    56  H    1.000463
    57  H    1.017341
    58  H    1.017234
    59  H    1.016974
    60  H    1.010606
    61  H    1.011042
    62  H    1.010773
    63  H    0.997967
    64  H    0.998344
    65  H    0.999970
    66  H    0.994114
    67  H    1.008751
    68  H    0.997177
    69  H    0.988112
    70  H    0.994241
    71  H    1.001521
    72  H    1.003517
    73  H    0.982795
    74  H    0.984984
    75  H    0.982980
    76  H    0.991714
    77  H    1.000076
    78  H    0.993711
    79  H    0.994134
    80  Mg  12.000038
    81  C    5.999752
    82  C    5.999903
    83  C    6.000312
    84  C    6.000046
    85  N    6.999820
    86  C    6.000360
    87  C    5.999907
    88  C    6.000122
    89  C    5.999730
    90  C    6.000039
    91  C    5.999985
    92  C    5.999982
    93  H    1.000046
    94  N    6.999988
    95  C    5.999728
    96  C    5.999704
    97  C    5.999896
    98  C    5.999716
    99  C    6.000073
   100  C    5.999829
   101  O    7.999683
   102  C    6.000052
   103  N    7.000091
   104  C    5.999660
   105  C    6.000079
   106  C    5.999898
   107  C    6.000246
   108  C    5.999998
   109  C    5.999928
   110  C    5.999996
   111  N    6.999999
   112  C    6.000355
   113  C    6.000363
   114  C    6.000022
   115  C    6.000254
   116  C    5.999984
   117  C    6.000178
   118  O    8.000361
   119  C    6.000013
   120  C    6.000064
   121  O    8.000005
   122  O    8.000021
   123  C    5.999988
   124  H    0.999810
   125  H    0.999989
   126  H    1.000171
   127  H    0.999958
   128  H    0.999983
   129  H    0.999978
   130  H    0.999919
   131  H    0.999838
   132  H    1.000085
   133  H    0.999968
   134  H    0.999995
   135  H    0.999973
   136  H    0.999814
   137  H    0.999736
   138  H    0.999823
   139  H    0.999880
   140  H    0.999841
   141  H    0.999937
   142  H    1.000037
   143  H    1.000045
   144  H    1.000040
   145  H    1.000040
   146  H    0.999923
   147  H    1.000005
   148  H    1.000146
   149  H    1.000042
   150  H    0.999992
   151  H    1.000093
   152  H    1.000185
   153  H    1.000193
   154  H    1.000195
   155  H    1.000066
   156  H    1.000021
   157  H    1.000044
   158  H    1.000026
 Sum of Mulliken charges = 624.00000

 Dipole moment (field-independent basis, Debye):
    X=              6.1103    Y=              7.5951    Z=              2.3247  Tot=             10.0212
 Quadrupole moment (field-independent basis, Debye-Ang):
   XX=           -287.3086   YY=              7.6945   ZZ=             -0.2182
   XY=           -180.8560   XZ=            -53.0632   YZ=              2.0961

 Normal termination of Gaussian 16 at Fri Oct 15 08:37:07 2021.
