 Gaussian 16, Revision A.03,
 Gaussian 16:  ES64L-G16RevA.03 25-Dec-2016

 --------------------------------------------------------
 #p PBE1PBE/Def2SVP td=(nstates=5) density=(transition=1)
 --------------------------------------------------------

 --------------------------------
 TDDFT excited states in gaussian
 --------------------------------
 Symbolic Z-matrix:
 Charge =  0 Multiplicity = 1

                         Standard orientation:
 ---------------------------------------------------------------------
 Center     Atomic      Atomic             Coordinates (Angstroms)
 Number     Number       Type             X           Y           Z
 ---------------------------------------------------------------------
      1         12           0      -20.105713   -0.587525    0.001211
      2          6           0      -19.502250    2.471643   -1.469600
      3          6           0      -19.454427    1.023518    3.133025
      4          6           0      -20.315724   -3.480781    1.497249
      5          6           0      -20.378654   -2.081525   -3.106630
      6          7           0      -19.322608    1.526053    0.696918
      7          6           0      -19.390718    2.596610   -0.076496
      8          6           0      -19.437902    3.896830    0.774853
      9          6           0      -18.855999    3.351420    2.125728
     10          6           0      -19.212042    1.858748    2.037513
     11          6           0      -17.309360    3.590860    2.251460
     12          6           0      -20.925300    4.308493    0.845496
     13          6           0      -21.232459    5.655368    1.514084
     14          1           0      -20.151741    6.389077    2.282541
     15          7           0      -20.036996   -1.211450    1.983108
     16          6           0      -19.790260   -0.369179    3.121371
     17          6           0      -20.038550   -1.198251    4.292884
     18          6           0      -20.401244   -2.495904    3.814032
     19          6           0      -20.229921   -2.468356    2.362165
     20          6           0      -19.966733   -0.693301    5.782196
     21          6           0      -20.911023   -3.706288    4.664118
     22          8           0      -21.056416   -4.762102    4.111542
     23          6           0      -21.168594   -3.552554    6.127940
     24          7           0      -20.411987   -2.519595   -0.713028
     25          6           0      -20.470806   -3.594083    0.105672
     26          6           0      -20.609121   -4.917968   -0.645119
     27          6           0      -20.767180   -4.439601   -2.107043
     28          6           0      -20.497023   -2.886297   -1.968150
     29          6           0      -19.425008   -5.935658   -0.455020
     30          6           0      -22.018069   -4.851985   -2.840238
     31          6           0      -23.415185   -4.712769   -2.188890
     32          7           0      -19.968622   -0.019416   -1.930244
     33          6           0      -20.108611   -0.709775   -3.100074
     34          6           0      -20.056500    0.258365   -4.175174
     35          6           0      -19.847634    1.565888   -3.615994
     36          6           0      -19.789296    1.310209   -2.218593
     37          6           0      -20.190685   -0.091538   -5.624379
     38          6           0      -19.621758    2.947961   -3.875910
     39          8           0      -19.533039    3.612395   -4.931365
     40          6           0      -19.115339    3.514102   -2.439557
     41          6           0      -19.692894    4.923736   -2.301877
     42          8           0      -20.822673    5.212012   -2.414848
     43          8           0      -18.655581    5.781794   -2.070921
     44          6           0      -18.964588    7.098204   -1.551676
     45          1           0      -19.189764    1.505935    4.075772
     46          1           0      -20.342953   -4.478574    1.940145
     47          1           0      -20.437138   -2.493283   -4.115584
     48          1           0      -18.762335    4.663411    0.395578
     49          1           0      -19.447668    3.868588    2.881471
     50          1           0      -17.126469    4.413475    2.941707
     51          1           0      -16.924598    3.808454    1.254926
     52          1           0      -16.771869    2.745877    2.681911
     53          1           0      -21.435580    3.569505    1.462700
     54          1           0      -21.424984    4.206584   -0.117360
     55          1           0      -22.203223    5.676648    2.009834
     56          1           0      -21.502557    6.307653    0.683407
     57          1           0      -19.348641   -1.336645    6.409134
     58          1           0      -21.001685   -0.628171    6.117568
     59          1           0      -19.608198    0.336608    5.799465
     60          1           0      -21.942576   -4.301655    6.296448
     61          1           0      -21.640115   -2.601957    6.374571
     62          1           0      -20.340121   -3.480205    6.832514
     63          1           0      -21.529042   -5.360795   -0.264002
     64          1           0      -19.930766   -4.730355   -2.742593
     65          1           0      -19.320345   -6.441878   -1.414280
     66          1           0      -19.817570   -6.604207    0.311448
     67          1           0      -18.546590   -5.428415   -0.056161
     68          1           0      -21.898084   -5.934612   -2.817933
     69          1           0      -22.146455   -4.493776   -3.862211
     70          1           0      -23.999819   -5.616878   -2.024155
     71          1           0      -24.104971   -4.175762   -2.839939
     72          1           0      -23.309003   -4.236508   -1.214100
     73          1           0      -20.046003    0.843785   -6.164311
     74          1           0      -21.208058   -0.423876   -5.835114
     75          1           0      -19.571018   -0.921188   -5.963390
     76          1           0      -18.027311    3.471296   -2.493331
     77          1           0      -18.402906    7.574152   -2.355599
     78          1           0      -18.667275    7.242514   -0.512767
     79          1           0      -20.011812    7.386271   -1.647165
     80         12           0       19.674939   -0.825436    0.041331
     81          6           0       21.512564    2.149995    0.332904
     82          6           0       17.688450    0.071874    2.565257
     83          6           0       18.153700   -3.658023   -0.327314
     84          6           0       22.467817   -2.057128   -1.900691
     85          7           0       19.718563    0.888403    1.346374
     86          6           0       20.395621    2.036310    1.217093
     87          6           0       20.063675    3.013500    2.315157
     88          6           0       19.130533    2.156223    3.261246
     89          6           0       18.806246    0.984347    2.355078
     90          6           0       19.686797    1.712228    4.653005
     91          6           0       19.239620    4.268944    1.725051
     92          6           0       19.787763    5.653248    2.203579
     93          1           0       19.141900    6.877076    1.354171
     94          7           0       18.031779   -1.542043    0.793451
     95          6           0       17.282726   -1.013403    1.830862
     96          6           0       16.040353   -1.731543    1.907306
     97          6           0       16.083508   -2.883567    1.019836
     98          6           0       17.420787   -2.696596    0.337138
     99          6           0       14.993392   -1.310232    2.978151
    100          6           0       15.147875   -4.038574    0.681510
    101          8           0       15.328840   -4.903093   -0.194915
    102          6           0       13.874430   -3.984933    1.448830
    103          7           0       20.367319   -2.601931   -0.851338
    104          6           0       19.463442   -3.635229   -0.828052
    105          6           0       20.063855   -4.901130   -1.440565
    106          6           0       21.278851   -4.319950   -2.210251
    107          6           0       21.441250   -2.930549   -1.590657
    108          6           0       20.323928   -5.976562   -0.312312
    109          6           0       21.139642   -4.259094   -3.790594
    110          6           0       22.446030   -4.246506   -4.600404
    111          7           0       21.596803   -0.127058   -0.699583
    112          6           0       22.556612   -0.741788   -1.445153
    113          6           0       23.609322    0.181131   -1.806152
    114          6           0       23.171805    1.355355   -1.166466
    115          6           0       21.987201    1.110233   -0.457355
    116          6           0       24.891193    0.012148   -2.653761
    117          6           0       23.509152    2.738710   -0.978060
    118          8           0       24.316922    3.470147   -1.488057
    119          6           0       22.497384    3.262890    0.167894
    120          6           0       22.114557    4.565807   -0.382494
    121          8           0       21.239758    4.835264   -1.243986
    122          8           0       22.923729    5.450004    0.226022
    123          6           0       22.812142    6.861226   -0.145534
    124          1           0       16.978521    0.397906    3.328443
    125          1           0       17.609094   -4.585901   -0.515195
    126          1           0       23.235487   -2.451682   -2.569618
    127          1           0       20.923287    3.438305    2.834271
    128          1           0       18.155750    2.587084    3.490626
    129          1           0       19.839432    0.633511    4.619215
    130          1           0       18.896437    1.955591    5.362865
    131          1           0       20.631524    2.132126    4.996592
    132          1           0       18.161220    4.249034    1.886770
    133          1           0       19.258631    4.158946    0.640725
    134          1           0       20.870921    5.695289    2.090988
    135          1           0       19.537460    5.922134    3.229527
    136          1           0       14.334772   -0.568873    2.527805
    137          1           0       15.406119   -0.687924    3.773136
    138          1           0       14.533493   -2.106665    3.562739
    139          1           0       13.274536   -3.092946    1.271811
    140          1           0       14.226936   -4.084486    2.476166
    141          1           0       13.225538   -4.845130    1.281799
    142          1           0       19.294671   -5.286062   -2.110237
    143          1           0       22.149927   -4.950619   -2.032770
    144          1           0       21.392138   -6.064085   -0.114298
    145          1           0       20.001238   -7.003208   -0.483479
    146          1           0       19.953577   -5.739902    0.685370
    147          1           0       20.720436   -3.265829   -3.953467
    148          1           0       20.505735   -5.004750   -4.270932
    149          1           0       22.592905   -3.303507   -5.128578
    150          1           0       22.611104   -5.015488   -5.355346
    151          1           0       23.242619   -4.252571   -3.857745
    152          1           0       25.137830   -1.048497   -2.605728
    153          1           0       25.705830    0.621208   -2.259724
    154          1           0       24.619668    0.282644   -3.674103
    155          1           0       23.049699    3.434609    1.091948
    156          1           0       22.385341    7.406499    0.696079
    157          1           0       22.305335    6.997922   -1.100222
    158          1           0       23.819151    7.267526   -0.239341
 ---------------------------------------------------------------------

 SCF Done:  E(RPBE1PBE) =  -4067.36483818     A.U. after   16 cycles

 Excitation energies and oscillator strengths:

 Excited State   1:      Singlet-A      1.8754 eV  661.10 nm  f=0.3619  <S**2>=0.000
     309 -> 315       -0.18967
     311 -> 313        0.68779
 This state for optimization and/or second-order correction.
 Total Energy, E(TD-HF/TD-DFT) =  -4067.29591728
 Copying the excited state density for this state as the 1-particle RhoCI density.

 Excited State   2:      Singlet-A      1.8859 eV  657.44 nm  f=0.3738  <S**2>=0.000
     310 -> 316       -0.19012
     312 -> 314        0.68784
     312 <- 314       -0.10010

 Excited State   3:      Singlet-A      2.0126 eV  616.05 nm  f=0.0000  <S**2>=0.000
     312 -> 313        0.70710

 Excited State   4:      Singlet-A      2.0443 eV  606.47 nm  f=0.0000  <S**2>=0.000
     311 -> 314        0.70711

 Excited State   5:      Singlet-A      2.2137 eV  560.06 nm  f=0.0895  <S**2>=0.000
     310 -> 314        0.64980
     312 -> 316        0.26393

 The electronic state is 1-A.
 Alpha  occ. eigenvalues --  -46.91668 -46.90991 -19.25518 -19.25028 -19.20402
 Alpha  occ. eigenvalues --  -19.19818 -19.19358 -19.19295 -19.19201 -19.18686
 Alpha  occ. eigenvalues --  -14.42069 -14.41289 -14.41256 -14.41179 -14.39123
 Alpha  occ. eigenvalues --  -14.39020 -14.38928 -14.38096 -10.35872 -10.35559
 Alpha  occ. eigenvalues --  -10.33033 -10.32468 -10.32160 -10.31844 -10.29447
 Alpha  occ. eigenvalues --  -10.28988 -10.28669 -10.28491 -10.28384 -10.28377
 Alpha  occ. eigenvalues --  -10.28294 -10.28255 -10.28229 -10.28225 -10.28163
 Alpha  occ. eigenvalues --  -10.28074 -10.27726 -10.27609 -10.27229 -10.27028
 Alpha  occ. eigenvalues --  -10.26964 -10.26940 -10.26702 -10.26575 -10.26285
 Alpha  occ. eigenvalues --  -10.26266 -10.26222 -10.26184 -10.26173 -10.25879
 Alpha  occ. eigenvalues --  -10.25671 -10.25637 -10.25630 -10.25608 -10.25582
 Alpha  occ. eigenvalues --  -10.25548 -10.25511 -10.25409 -10.25326 -10.25286
 Alpha  occ. eigenvalues --  -10.25257 -10.25202 -10.25121 -10.25058 -10.24934
 Alpha  occ. eigenvalues --  -10.24451 -10.24336 -10.24324 -10.24193 -10.24134
 Alpha  occ. eigenvalues --  -10.24107 -10.24085 -10.23983 -10.23944 -10.23821
 Alpha  occ. eigenvalues --  -10.23764 -10.23550 -10.23500 -10.23388 -10.23379
 Alpha  occ. eigenvalues --  -10.23263 -10.23158 -10.22839 -10.22691 -10.22644
 Alpha  occ. eigenvalues --  -10.22236  -3.13883  -3.13405  -1.86724  -1.86274
 Alpha  occ. eigenvalues --   -1.86232  -1.86097  -1.85792  -1.85644  -1.12349
 Alpha  occ. eigenvalues --   -1.10710  -1.06336  -1.05567  -1.04616  -1.04030
 Alpha  occ. eigenvalues --   -1.02678  -1.00317  -0.99881  -0.99852  -0.98991
 Alpha  occ. eigenvalues --   -0.98662  -0.98276  -0.97690  -0.97040  -0.96824
 Alpha  occ. eigenvalues --   -0.87342  -0.87107  -0.83664  -0.83429  -0.83058
 Alpha  occ. eigenvalues --   -0.82774  -0.82536  -0.82357  -0.81797  -0.81657
 Alpha  occ. eigenvalues --   -0.81176  -0.80710  -0.80624  -0.79955  -0.78818
 Alpha  occ. eigenvalues --   -0.78363  -0.78122  -0.78006  -0.76722  -0.76695
 Alpha  occ. eigenvalues --   -0.76464  -0.75968  -0.75737  -0.75634  -0.74629
 Alpha  occ. eigenvalues --   -0.74612  -0.72465  -0.72338  -0.71673  -0.71639
 Alpha  occ. eigenvalues --   -0.71213  -0.71080  -0.70241  -0.70185  -0.69902
 Alpha  occ. eigenvalues --   -0.69740  -0.67251  -0.67102  -0.66602  -0.66458
 Alpha  occ. eigenvalues --   -0.64639  -0.63599  -0.63300  -0.63208  -0.62507
 Alpha  occ. eigenvalues --   -0.62309  -0.61625  -0.60690  -0.60484  -0.60009
 Alpha  occ. eigenvalues --   -0.59666  -0.59437  -0.59425  -0.59016  -0.58826
 Alpha  occ. eigenvalues --   -0.58636  -0.56892  -0.56357  -0.55086  -0.54782
 Alpha  occ. eigenvalues --   -0.54380  -0.54202  -0.53765  -0.53724  -0.53381
 Alpha  occ. eigenvalues --   -0.53269  -0.52733  -0.52631  -0.52381  -0.51564
 Alpha  occ. eigenvalues --   -0.50912  -0.50765  -0.50591  -0.50398  -0.50249
 Alpha  occ. eigenvalues --   -0.50049  -0.49858  -0.48883  -0.48793  -0.48494
 Alpha  occ. eigenvalues --   -0.48283  -0.48077  -0.47939  -0.47672  -0.47670
 Alpha  occ. eigenvalues --   -0.47461  -0.47099  -0.47002  -0.46772  -0.46745
 Alpha  occ. eigenvalues --   -0.46605  -0.46265  -0.46230  -0.45957  -0.45594
 Alpha  occ. eigenvalues --   -0.45368  -0.45266  -0.45228  -0.45040  -0.44775
 Alpha  occ. eigenvalues --   -0.44766  -0.44634  -0.44576  -0.44274  -0.44122
 Alpha  occ. eigenvalues --   -0.44030  -0.43942  -0.43910  -0.43724  -0.43520
 Alpha  occ. eigenvalues --   -0.43355  -0.43082  -0.42921  -0.42798  -0.42712
 Alpha  occ. eigenvalues --   -0.42642  -0.42638  -0.42312  -0.42124  -0.41969
 Alpha  occ. eigenvalues --   -0.41597  -0.41545  -0.41426  -0.41259  -0.41204
 Alpha  occ. eigenvalues --   -0.41104  -0.40687  -0.40650  -0.40605  -0.40481
 Alpha  occ. eigenvalues --   -0.40275  -0.40241  -0.39947  -0.39940  -0.39699
 Alpha  occ. eigenvalues --   -0.39652  -0.39527  -0.38917  -0.38704  -0.38583
 Alpha  occ. eigenvalues --   -0.38395  -0.38285  -0.38197  -0.38169  -0.37937
 Alpha  occ. eigenvalues --   -0.37791  -0.37720  -0.37710  -0.37659  -0.37597
 Alpha  occ. eigenvalues --   -0.37429  -0.37227  -0.37045  -0.36952  -0.36868
 Alpha  occ. eigenvalues --   -0.36827  -0.36688  -0.36679  -0.36405  -0.36312
 Alpha  occ. eigenvalues --   -0.36233  -0.36017  -0.35837  -0.35696  -0.35522
 Alpha  occ. eigenvalues --   -0.35202  -0.35105  -0.34519  -0.34454  -0.34421
 Alpha  occ. eigenvalues --   -0.33681  -0.33334  -0.32832  -0.32810  -0.32542
 Alpha  occ. eigenvalues --   -0.32441  -0.32174  -0.32019  -0.31296  -0.30886
 Alpha  occ. eigenvalues --   -0.30476  -0.30359  -0.30138  -0.29459  -0.29183
 Alpha  occ. eigenvalues --   -0.29134  -0.28835  -0.27871  -0.26984  -0.26965
 Alpha  occ. eigenvalues --   -0.26408  -0.26042  -0.25973  -0.25630  -0.25573
 Alpha  occ. eigenvalues --   -0.25246  -0.25212  -0.24995  -0.21112  -0.20759
 Alpha  occ. eigenvalues --   -0.18792  -0.18738
 Alpha virt. eigenvalues --   -0.11009  -0.10949  -0.05745  -0.05353  -0.04470
 Alpha virt. eigenvalues --   -0.04016  -0.01951  -0.01814   0.00169   0.00268
 Alpha virt. eigenvalues --    0.00840   0.00954   0.01283   0.01471   0.01490

 Mulliken charges:
               1
     1  Mg  12.000044
     2  C    5.999930
     3  C    6.000557
     4  C    6.000291
     5  C    5.999719
     6  N    7.000147
     7  C    6.000519
     8  C    5.999885
     9  C    6.000229
    10  C    5.999112
    11  C    6.000070
    12  C    5.999838
    13  C    6.000016
    14  H    1.000113
    15  N    7.000137
    16  C    5.998776
    17  C    5.999761
    18  C    5.999524
    19  C    5.999394
    20  C    6.000010
    21  C    5.999636
    22  O    7.999375
    23  C    6.000105
    24  N    6.999948
    25  C    5.999194
    26  C    6.000272
    27  C    5.999875
    28  C    6.000694
    29  C    5.999984
    30  C    5.999836
    31  C    5.999937
    32  N    7.000029
    33  C    6.000678
    34  C    6.000800
    35  C    6.000054
    36  C    6.000459
    37  C    5.999946
    38  C    6.000490
    39  O    8.000839
    40  C    5.999936
    41  C    6.000176
    42  O    8.000153
    43  O    8.000003
    44  C    5.999966
    45  H    0.999776
    46  H    0.999811
    47  H    1.000137
    48  H    0.999951
    49  H    0.999986
    50  H    0.999889
    51  H    0.999630
    52  H    0.999999
    53  H    1.000319
    54  H    0.999841
    55  H    1.000145
    56  H    0.999952
    57  H    0.999603
    58  H    0.999708
    59  H    0.999604
    60  H    0.999712
    61  H    0.999883
    62  H    0.999706
    63  H    1.000044
    64  H    0.999888
    65  H    0.999731
    66  H    1.000058
    67  H    0.999914
    68  H    1.000184
    69  H    0.999903
    70  H    1.000128
    71  H    0.999968
    72  H    1.000219
    73  H    1.000306
    74  H    1.000612
    75  H    1.000473
    76  H    1.000122
    77  H    1.000054
    78  H    1.000154
    79  H    1.000135
    80  Mg  11.997766
    81  C    6.015513
    82  C    5.987002
    83  C    5.990736
    84  C    6.015974
    85  N    7.004431
    86  C    5.965554
    87  C    6.012434
    88  C    5.992338
    89  C    6.035538
    90  C    5.998333
    91  C    6.002170
    92  C    6.001316
    93  H    0.996898
    94  N    6.995198
    95  C    6.032383
    96  C    6.021489
    97  C    6.020080
    98  C    6.019835
    99  C    5.997040
   100  C    6.014090
   101  O    8.031781
   102  C    5.994439
   103  N    7.005175
   104  C    6.024169
   105  C    5.994596
   106  C    6.007638
   107  C    5.966602
   108  C    5.995328
   109  C    6.002315
   110  C    6.000770
   111  N    7.001265
   112  C    5.964916
   113  C    5.969790
   114  C    5.999435
   115  C    5.971337
   116  C    5.998271
   117  C    5.983934
   118  O    7.972088
   119  C    5.997757
   120  C    5.997293
   121  O    7.992177
   122  O    7.999663
   123  C    6.002480
   124  H    1.007835
   125  H    1.005520
   126  H    0.991874
   127  H    0.998572
   128  H    0.997778
   129  H    0.999468
   130  H    1.001195
   131  H    1.012725
   132  H    0.987897
   133  H    1.002929
   134  H    1.004518
   135  H    0.994637
   136  H    1.018072
   137  H    1.017188
   138  H    1.015045
   139  H    1.008520
   140  H    1.005904
   141  H    1.014750
   142  H    0.997616
   143  H    0.996369
   144  H    1.011645
   145  H    1.001898
   146  H    0.994690
   147  H    0.998770
   148  H    0.988781
   149  H    1.003064
   150  H    0.994829
   151  H    1.002605
   152  H    0.985071
   153  H    0.986928
   154  H    0.983234
   155  H    0.992528
   156  H    0.993650
   157  H    0.997322
   158  H    0.997233
 Sum of Mulliken charges = 624.00000

 Dipole moment (field-independent basis, Debye):
    X=             -8.5426    Y=             -3.9892    Z=              3.5893  Tot=             10.0882
 Quadrupole moment (field-independent basis, Debye-Ang):
   XX=           -334.2821   YY=              1.6093   ZZ=              0.9146
   XY=            -74.5276   XZ=             80.7684   YZ=             -2.9786

 Normal termination of Gaussian 16 at Thu Oct 14 07:26:38 2021.
