 Gaussian 16, Revision A.03,
 Gaussian 16:  ES64L-G16RevA.03 25-Dec-2016

 --------------------------------------------------------
 #p PBE1PBE/Def2SVP td=(nstates=5) density=(transition=1)
 --------------------------------------------------------

 --------------------------------
 TDDFT excited states in gaussian
 --------------------------------
 Symbolic Z-matrix:
 Charge =  0 Multiplicity = 1

                         Standard orientation:
 ---------------------------------------------------------------------
 Center     Atomic      Atomic             Coordinates (Angstroms)
 Number     Number       Type             X           Y           Z
 ---------------------------------------------------------------------
      1         12           0       24.532270   -0.773332    0.303585
      2          6           0       24.951717    2.404171   -1.194243
      3          6           0       24.714076    0.734024    3.403020
      4          6           0       24.423575   -3.854731    1.708856
      5          6           0       24.567840   -2.281524   -2.860826
      6          7           0       24.906366    1.321513    0.914887
      7          6           0       24.828168    2.486168    0.154950
      8          6           0       24.876698    3.777842    1.069628
      9          6           0       25.077458    3.161118    2.479543
     10          6           0       24.947464    1.634317    2.281095
     11          6           0       26.399513    3.509295    3.260617
     12          6           0       23.706904    4.828135    0.879448
     13          6           0       24.142721    6.201474    0.466689
     14          1           0       23.326109    7.404118    1.085786
     15          7           0       24.576132   -1.398556    2.246821
     16          6           0       24.583540   -0.650859    3.406839
     17          6           0       24.602266   -1.541825    4.556416
     18          6           0       24.516402   -2.893570    4.117999
     19          6           0       24.477578   -2.769729    2.614380
     20          6           0       24.541177   -1.062556    6.020737
     21          6           0       24.433262   -4.185624    4.924339
     22          8           0       24.274294   -5.282414    4.429207
     23          6           0       24.435423   -4.249754    6.506700
     24          7           0       24.596737   -2.810047   -0.484557
     25          6           0       24.536965   -3.882537    0.293951
     26          6           0       24.523021   -5.214439   -0.537886
     27          6           0       24.372432   -4.686781   -2.019483
     28          6           0       24.493190   -3.148788   -1.797488
     29          6           0       25.745089   -6.120021   -0.209374
     30          6           0       23.091077   -5.168235   -2.670839
     31          6           0       23.257687   -5.607766   -4.124380
     32          7           0       24.849944   -0.187305   -1.669983
     33          6           0       24.740955   -0.878637   -2.861342
     34          6           0       25.049895    0.038114   -3.915207
     35          6           0       25.098847    1.336816   -3.350671
     36          6           0       24.977030    1.172086   -1.942694
     37          6           0       25.191080   -0.300136   -5.350838
     38          6           0       25.184604    2.774290   -3.662137
     39          8           0       25.416964    3.390511   -4.698080
     40          6           0       25.039474    3.543051   -2.136489
     41          6           0       26.180366    4.373089   -1.905630
     42          8           0       27.090765    4.100682   -1.153474
     43          8           0       26.042966    5.582775   -2.548088
     44          6           0       27.231056    6.456758   -2.382880
     45          1           0       24.642253    1.178830    4.397918
     46          1           0       24.436275   -4.871427    2.105824
     47          1           0       24.480035   -2.821878   -3.806376
     48          1           0       25.855270    4.210188    0.863677
     49          1           0       24.265568    3.452885    3.145800
     50          1           0       26.114045    3.657457    4.302553
     51          1           0       26.833179    4.406855    2.820367
     52          1           0       27.159736    2.728575    3.228534
     53          1           0       23.162039    4.838437    1.823539
     54          1           0       23.073531    4.448493    0.077511
     55          1           0       24.053323    6.305279   -0.615467
     56          1           0       25.191773    6.231718    0.759741
     57          1           0       23.569430   -1.394862    6.384224
     58          1           0       24.475137    0.025616    6.034416
     59          1           0       25.307726   -1.463236    6.685193
     60          1           0       23.611147   -3.633582    6.867485
     61          1           0       25.430079   -4.119273    6.934030
     62          1           0       24.339872   -5.311285    6.733029
     63          1           0       23.639719   -5.827847   -0.361230
     64          1           0       25.273403   -5.009744   -2.541437
     65          1           0       26.221032   -6.405826   -1.147831
     66          1           0       25.493535   -6.976204    0.417054
     67          1           0       26.472479   -5.554827    0.371038
     68          1           0       22.299721   -4.420874   -2.623561
     69          1           0       22.606747   -5.995045   -2.148995
     70          1           0       24.240024   -5.338218   -4.512407
     71          1           0       22.508087   -5.058951   -4.695162
     72          1           0       23.008532   -6.658497   -4.273496
     73          1           0       25.067764   -1.345322   -5.634359
     74          1           0       26.077366    0.231263   -5.699647
     75          1           0       24.256963    0.069036   -5.774881
     76          1           0       24.135040    4.152062   -2.132363
     77          1           0       28.113900    5.960703   -2.786742
     78          1           0       27.278560    6.700946   -1.321678
     79          1           0       27.152968    7.389197   -2.940590
     80         12           0      -25.366929   -0.524093   -0.189930
     81          6           0      -23.382909    2.427597   -0.342470
     82          6           0      -27.515187    1.131614    1.923410
     83          6           0      -27.045561   -3.369434   -0.118448
     84          6           0      -22.790720   -2.274465   -1.983996
     85          7           0      -25.418469    1.589873    0.781330
     86          6           0      -24.533614    2.598091    0.445413
     87          6           0      -25.037113    3.883224    1.187701
     88          6           0      -26.384803    3.451494    1.977847
     89          6           0      -26.432859    1.980621    1.551804
     90          6           0      -26.402236    3.731502    3.495007
     91          6           0      -25.156230    5.210676    0.330688
     92          6           0      -24.343221    6.374652    0.817953
     93          1           0      -23.960731    6.580919    2.259811
     94          7           0      -27.195618   -1.029669    0.711610
     95          6           0      -27.897308   -0.209757    1.538151
     96          6           0      -29.141221   -0.886690    1.800821
     97          6           0      -28.991181   -2.205113    1.319293
     98          6           0      -27.679587   -2.305282    0.600248
     99          6           0      -30.232185   -0.195379    2.635895
    100          6           0      -29.895429   -3.371525    1.580051
    101          8           0      -29.600107   -4.528890    1.198551
    102          6           0      -31.142362   -3.165812    2.357406
    103          7           0      -24.882621   -2.564638   -0.924627
    104          6           0      -25.768668   -3.493800   -0.828647
    105          6           0      -25.429969   -4.908922   -1.542707
    106          6           0      -24.053459   -4.538852   -2.115787
    107          6           0      -23.880524   -3.103185   -1.684123
    108          6           0      -25.425651   -6.054884   -0.465723
    109          6           0      -23.860899   -4.709726   -3.663689
    110          6           0      -24.581706   -3.682185   -4.568299
    111          7           0      -23.487897   -0.079469   -0.862646
    112          6           0      -22.572820   -0.915545   -1.544722
    113          6           0      -21.423942   -0.091477   -1.944368
    114          6           0      -21.705428    1.223148   -1.501210
    115          6           0      -23.000297    1.191011   -0.881536
    116          6           0      -20.182461   -0.595906   -2.739278
    117          6           0      -21.188373    2.487738   -1.501374
    118          8           0      -20.131136    2.938028   -1.893391
    119          6           0      -22.248777    3.388221   -0.808299
    120          6           0      -21.605720    4.106624    0.267572
    121          8           0      -21.484128    3.685839    1.423569
    122          8           0      -20.941505    5.227442   -0.244713
    123          6           0      -20.088214    5.935427    0.741562
    124          1           0      -28.120678    1.446323    2.776381
    125          1           0      -27.528272   -4.333887    0.053130
    126          1           0      -21.980213   -2.756761   -2.534293
    127          1           0      -24.155256    4.057271    1.802896
    128          1           0      -27.215068    4.050698    1.606712
    129          1           0      -27.265891    4.340818    3.764401
    130          1           0      -25.509581    4.189922    3.920251
    131          1           0      -26.495146    2.740891    3.940163
    132          1           0      -26.200543    5.514907    0.257606
    133          1           0      -24.758442    4.953224   -0.650966
    134          1           0      -24.995064    7.247123    0.760859
    135          1           0      -23.454307    6.444225    0.191980
    136          1           0      -30.078916    0.882093    2.700632
    137          1           0      -30.249352   -0.618924    3.639274
    138          1           0      -31.157971   -0.414868    2.105034
    139          1           0      -31.725366   -2.414187    1.825142
    140          1           0      -30.931519   -2.762281    3.348507
    141          1           0      -31.659514   -4.111969    2.511749
    142          1           0      -26.137506   -5.129466   -2.342371
    143          1           0      -23.273906   -5.037462   -1.539323
    144          1           0      -25.129685   -5.613959    0.486124
    145          1           0      -24.658032   -6.777802   -0.744105
    146          1           0      -26.351666   -6.606390   -0.301096
    147          1           0      -24.038305   -5.747240   -3.945105
    148          1           0      -22.792770   -4.639653   -3.866947
    149          1           0      -25.531086   -3.289472   -4.205759
    150          1           0      -24.664389   -4.111516   -5.567409
    151          1           0      -23.872708   -2.861754   -4.678182
    152          1           0      -19.938477    0.031491   -3.596629
    153          1           0      -20.269606   -1.632568   -3.062648
    154          1           0      -19.282357   -0.375195   -2.164967
    155          1           0      -22.522676    4.062935   -1.618708
    156          1           0      -19.222039    5.328629    1.004217
    157          1           0      -20.578370    6.150517    1.690387
    158          1           0      -19.915448    6.932360    0.335765
 ---------------------------------------------------------------------

 SCF Done:  E(RPBE1PBE) =  -4067.37437803     A.U. after   16 cycles

 Excitation energies and oscillator strengths:

 Excited State   1:      Singlet-A      1.8677 eV  663.83 nm  f=0.3583  <S**2>=0.000
     310 -> 316        0.18705
     312 -> 314        0.68768
 This state for optimization and/or second-order correction.
 Total Energy, E(TD-HF/TD-DFT) =  -4067.30574102
 Copying the excited state density for this state as the 1-particle RhoCI density.

 Excited State   2:      Singlet-A      1.8743 eV  661.48 nm  f=0.3670  <S**2>=0.000
     309 -> 315       -0.17476
     311 -> 313        0.69050

 Excited State   3:      Singlet-A      2.0427 eV  606.95 nm  f=0.0000  <S**2>=0.000
     312 -> 313        0.70711

 Excited State   4:      Singlet-A      2.0508 eV  604.57 nm  f=0.0000  <S**2>=0.000
     311 -> 314        0.70711

 Excited State   5:      Singlet-A      2.2069 eV  561.81 nm  f=0.1031  <S**2>=0.000
     310 -> 314        0.65389
     312 -> 316       -0.25871

 The electronic state is 1-A.
 Alpha  occ. eigenvalues --  -46.93208 -46.91654 -19.25014 -19.25007 -19.19969
 Alpha  occ. eigenvalues --  -19.19749 -19.19607 -19.19501 -19.18701 -19.18141
 Alpha  occ. eigenvalues --  -14.42067 -14.41796 -14.41438 -14.41229 -14.39873
 Alpha  occ. eigenvalues --  -14.39539 -14.39304 -14.38651 -10.35689 -10.35329
 Alpha  occ. eigenvalues --  -10.33452 -10.33240 -10.31891 -10.30693 -10.29947
 Alpha  occ. eigenvalues --  -10.29439 -10.29311 -10.29176 -10.29025 -10.28810
 Alpha  occ. eigenvalues --  -10.28704 -10.28521 -10.28317 -10.28235 -10.28182
 Alpha  occ. eigenvalues --  -10.28175 -10.28091 -10.28078 -10.27836 -10.27358
 Alpha  occ. eigenvalues --  -10.26776 -10.26763 -10.26734 -10.26624 -10.26580
 Alpha  occ. eigenvalues --  -10.26190 -10.26174 -10.26151 -10.26133 -10.26002
 Alpha  occ. eigenvalues --  -10.25982 -10.25728 -10.25670 -10.25513 -10.25481
 Alpha  occ. eigenvalues --  -10.25452 -10.25367 -10.25336 -10.25316 -10.25312
 Alpha  occ. eigenvalues --  -10.25274 -10.25139 -10.25113 -10.25090 -10.25063
 Alpha  occ. eigenvalues --  -10.25020 -10.24942 -10.24892 -10.24566 -10.24377
 Alpha  occ. eigenvalues --  -10.24227 -10.24097 -10.24018 -10.23766 -10.23746
 Alpha  occ. eigenvalues --  -10.23683 -10.23664 -10.23626 -10.23418 -10.23392
 Alpha  occ. eigenvalues --  -10.23344 -10.23221 -10.23095 -10.22893 -10.22782
 Alpha  occ. eigenvalues --  -10.22022  -3.15131  -3.13763  -1.87986  -1.87540
 Alpha  occ. eigenvalues --   -1.87310  -1.86612  -1.86130  -1.85994  -1.10658
 Alpha  occ. eigenvalues --   -1.09174  -1.05933  -1.04331  -1.04325  -1.02873
 Alpha  occ. eigenvalues --   -1.02297  -1.01210  -1.00749  -0.98693  -0.98195
 Alpha  occ. eigenvalues --   -0.97603  -0.96994  -0.96633  -0.96608  -0.95639
 Alpha  occ. eigenvalues --   -0.86878  -0.86365  -0.84072  -0.83441  -0.82657
 Alpha  occ. eigenvalues --   -0.82391  -0.82203  -0.82053  -0.81408  -0.81246
 Alpha  occ. eigenvalues --   -0.81182  -0.81120  -0.80246  -0.79943  -0.78604
 Alpha  occ. eigenvalues --   -0.78566  -0.77974  -0.77706  -0.76851  -0.76786
 Alpha  occ. eigenvalues --   -0.76224  -0.75336  -0.75044  -0.75000  -0.74405
 Alpha  occ. eigenvalues --   -0.74160  -0.72478  -0.72448  -0.71895  -0.71296
 Alpha  occ. eigenvalues --   -0.70796  -0.70794  -0.70111  -0.70094  -0.69329
 Alpha  occ. eigenvalues --   -0.69073  -0.67085  -0.66792  -0.66002  -0.65736
 Alpha  occ. eigenvalues --   -0.64798  -0.63551  -0.63316  -0.63244  -0.62276
 Alpha  occ. eigenvalues --   -0.61979  -0.61517  -0.61233  -0.60048  -0.59803
 Alpha  occ. eigenvalues --   -0.59439  -0.59337  -0.59130  -0.59047  -0.58957
 Alpha  occ. eigenvalues --   -0.58793  -0.56104  -0.55786  -0.54606  -0.54401
 Alpha  occ. eigenvalues --   -0.54132  -0.53799  -0.53293  -0.53274  -0.52722
 Alpha  occ. eigenvalues --   -0.52603  -0.52466  -0.52391  -0.52139  -0.51781
 Alpha  occ. eigenvalues --   -0.50843  -0.50571  -0.50486  -0.50273  -0.49879
 Alpha  occ. eigenvalues --   -0.49447  -0.49370  -0.48867  -0.48302  -0.48178
 Alpha  occ. eigenvalues --   -0.47731  -0.47657  -0.47635  -0.47568  -0.47320
 Alpha  occ. eigenvalues --   -0.47213  -0.47212  -0.47155  -0.46766  -0.46608
 Alpha  occ. eigenvalues --   -0.46291  -0.46121  -0.46043  -0.45834  -0.45632
 Alpha  occ. eigenvalues --   -0.45518  -0.45361  -0.45210  -0.44850  -0.44839
 Alpha  occ. eigenvalues --   -0.44472  -0.44239  -0.44119  -0.44102  -0.43977
 Alpha  occ. eigenvalues --   -0.43851  -0.43775  -0.43535  -0.43358  -0.43251
 Alpha  occ. eigenvalues --   -0.43223  -0.42908  -0.42726  -0.42673  -0.42665
 Alpha  occ. eigenvalues --   -0.42503  -0.42387  -0.42197  -0.42024  -0.41936
 Alpha  occ. eigenvalues --   -0.41452  -0.41444  -0.41336  -0.41240  -0.41153
 Alpha  occ. eigenvalues --   -0.40904  -0.40898  -0.40835  -0.40616  -0.40294
 Alpha  occ. eigenvalues --   -0.40277  -0.39936  -0.39806  -0.39658  -0.39486
 Alpha  occ. eigenvalues --   -0.39371  -0.39181  -0.39126  -0.38886  -0.38678
 Alpha  occ. eigenvalues --   -0.38666  -0.38486  -0.38456  -0.38166  -0.38072
 Alpha  occ. eigenvalues --   -0.38000  -0.37938  -0.37655  -0.37529  -0.37401
 Alpha  occ. eigenvalues --   -0.37389  -0.37215  -0.37194  -0.36898  -0.36769
 Alpha  occ. eigenvalues --   -0.36695  -0.36520  -0.36320  -0.36204  -0.36076
 Alpha  occ. eigenvalues --   -0.36073  -0.35973  -0.35513  -0.35428  -0.35188
 Alpha  occ. eigenvalues --   -0.35038  -0.34905  -0.34673  -0.34595  -0.34352
 Alpha  occ. eigenvalues --   -0.34071  -0.33635  -0.32636  -0.32235  -0.31945
 Alpha  occ. eigenvalues --   -0.31924  -0.31716  -0.31507  -0.31237  -0.31085
 Alpha  occ. eigenvalues --   -0.30986  -0.30580  -0.29302  -0.29144  -0.28970
 Alpha  occ. eigenvalues --   -0.28702  -0.28682  -0.28468  -0.27124  -0.26868
 Alpha  occ. eigenvalues --   -0.26186  -0.25913  -0.25764  -0.25632  -0.25572
 Alpha  occ. eigenvalues --   -0.25515  -0.25195  -0.24663  -0.20927  -0.20722
 Alpha  occ. eigenvalues --   -0.18870  -0.18850
 Alpha virt. eigenvalues --   -0.11076  -0.11071  -0.05316  -0.05277  -0.04115
 Alpha virt. eigenvalues --   -0.04046  -0.02341  -0.02082  -0.00181   0.00132
 Alpha virt. eigenvalues --    0.00241   0.00355   0.01135   0.01467   0.01485

 Mulliken charges:
               1
     1  Mg  11.999902
     2  C    6.000316
     3  C    5.999813
     4  C    5.999704
     5  C    6.000153
     6  N    7.000218
     7  C    5.999590
     8  C    6.000187
     9  C    5.999840
    10  C    6.000570
    11  C    5.999933
    12  C    6.000022
    13  C    6.000063
    14  H    0.999881
    15  N    6.999863
    16  C    6.000550
    17  C    6.000387
    18  C    6.000165
    19  C    6.000387
    20  C    6.000043
    21  C    6.000080
    22  O    8.000551
    23  C    5.999972
    24  N    7.000026
    25  C    6.000550
    26  C    5.999863
    27  C    6.000153
    28  C    5.999504
    29  C    5.999952
    30  C    6.000059
    31  C    6.000007
    32  N    6.999886
    33  C    5.999381
    34  C    5.999663
    35  C    6.000024
    36  C    5.999484
    37  C    6.000025
    38  C    5.999657
    39  O    7.999648
    40  C    5.999798
    41  C    6.000001
    42  O    7.999865
    43  O    7.999972
    44  C    6.000035
    45  H    1.000198
    46  H    1.000104
    47  H    0.999825
    48  H    0.999977
    49  H    1.000011
    50  H    1.000006
    51  H    1.000240
    52  H    1.000032
    53  H    0.999854
    54  H    1.000042
    55  H    1.000064
    56  H    0.999994
    57  H    1.000232
    58  H    1.000251
    59  H    1.000292
    60  H    1.000062
    61  H    1.000177
    62  H    1.000214
    63  H    0.999984
    64  H    0.999990
    65  H    1.000174
    66  H    0.999985
    67  H    0.999975
    68  H    0.999957
    69  H    0.999830
    70  H    1.000078
    71  H    0.999997
    72  H    0.999926
    73  H    0.999679
    74  H    0.999752
    75  H    0.999639
    76  H    0.999869
    77  H    1.000005
    78  H    0.999907
    79  H    0.999935
    80  Mg  11.999514
    81  C    5.990523
    82  C    6.016084
    83  C    6.000612
    84  C    5.984278
    85  N    6.997011
    86  C    6.022012
    87  C    5.993424
    88  C    6.015599
    89  C    5.965972
    90  C    5.999342
    91  C    5.998665
    92  C    5.997977
    93  H    1.004624
    94  N    7.012696
    95  C    5.960937
    96  C    5.982219
    97  C    5.984962
    98  C    5.973932
    99  C    6.001008
   100  C    5.987636
   101  O    7.971411
   102  C    6.004092
   103  N    6.990426
   104  C    5.973984
   105  C    6.006706
   106  C    5.992191
   107  C    6.038552
   108  C    6.004272
   109  C    5.995896
   110  C    5.996879
   111  N    6.998895
   112  C    6.042365
   113  C    6.026038
   114  C    6.001646
   115  C    6.025701
   116  C    5.999023
   117  C    6.014724
   118  O    8.028007
   119  C    6.001019
   120  C    6.004818
   121  O    8.008552
   122  O    7.999792
   123  C    5.997258
   124  H    0.995471
   125  H    0.993034
   126  H    1.007553
   127  H    0.997344
   128  H    0.996283
   129  H    0.998027
   130  H    0.990003
   131  H    1.003360
   132  H    1.007831
   133  H    0.994761
   134  H    1.003818
   135  H    0.995244
   136  H    0.984096
   137  H    0.983602
   138  H    0.986514
   139  H    0.993010
   140  H    0.993057
   141  H    0.986261
   142  H    0.999660
   143  H    1.001740
   144  H    1.000387
   145  H    0.989564
   146  H    1.004051
   147  H    1.008873
   148  H    0.996993
   149  H    1.010690
   150  H    1.004573
   151  H    0.992056
   152  H    1.017286
   153  H    1.017136
   154  H    1.016889
   155  H    1.007462
   156  H    1.001057
   157  H    1.006070
   158  H    1.004966
 Sum of Mulliken charges = 624.00000

 Dipole moment (field-independent basis, Debye):
    X=              8.8635    Y=              2.7397    Z=             -3.8874  Tot=             10.0588
 Quadrupole moment (field-independent basis, Debye-Ang):
   XX=           -447.8199   YY=             -0.6810   ZZ=              0.9404
   XY=            -76.2473   XZ=            106.4356   YZ=              2.8253

 Normal termination of Gaussian 16 at Fri Oct 15 13:03:26 2021.
