 Gaussian 16, Revision A.03,
 Gaussian 16:  ES64L-G16RevA.03 25-Dec-2016

 --------------------------------------------------------
 #p PBE1PBE/Def2SVP td=(nstates=5) density=(transition=1)
 --------------------------------------------------------

 --------------------------------
 TDDFT excited states in gaussian
 --------------------------------
 Symbolic Z-matrix:
 Charge =  0 Multiplicity = 1

                         Standard orientation:
 ---------------------------------------------------------------------
 Center     Atomic      Atomic             Coordinates (Angstroms)
 Number     Number       Type             X           Y           Z
 ---------------------------------------------------------------------
      1         12           0       -0.626746    0.045627    0.099593
      2          6           0        2.765606    0.189990    0.228469
      3          6           0       -0.695134   -3.403405    0.048896
      4          6           0       -4.033136    0.155316   -0.228797
      5          6           0       -0.669542    3.641691   -0.297116
      6          7           0        0.875374   -1.402301   -0.074740
      7          6           0        2.245796   -1.138583    0.260344
      8          6           0        2.968405   -2.392302    0.553204
      9          6           0        1.908402   -3.483519    0.075872
     10          6           0        0.584286   -2.757153   -0.005982
     11          6           0        2.281569   -4.152369   -1.340311
     12          6           0        3.544109   -2.492303    1.999282
     13          6           0        4.946155   -3.001999    2.093873
     14          1           0        5.323037   -4.184291    1.116617
     15          7           0       -2.161626   -1.426750    0.005704
     16          6           0       -1.922641   -2.768732   -0.012608
     17          6           0       -3.182885   -3.426840   -0.066605
     18          6           0       -4.226078   -2.420396   -0.060342
     19          6           0       -3.504050   -1.104785   -0.019083
     20          6           0       -3.304639   -4.959521   -0.211786
     21          6           0       -5.720879   -2.495647   -0.044422
     22          8           0       -6.537971   -1.573655   -0.146173
     23          6           0       -6.315550   -3.937187    0.180865
     24          7           0       -2.180996    1.691898   -0.332212
     25          6           0       -3.470392    1.462727   -0.311050
     26          6           0       -4.289962    2.749666   -0.242275
     27          6           0       -3.194540    3.853719   -0.264930
     28          6           0       -1.916007    3.019818   -0.319455
     29          6           0       -5.351896    2.905766   -1.445938
     30          6           0       -3.307289    4.714119    1.070068
     31          6           0       -2.985070    4.091666    2.451097
     32          7           0        0.760807    1.604383   -0.176413
     33          6           0        0.581734    2.972062   -0.263596
     34          6           0        1.927857    3.573820   -0.176260
     35          6           0        2.844309    2.586503    0.028342
     36          6           0        2.056979    1.378350    0.016905
     37          6           0        2.218579    5.010816   -0.441416
     38          6           0        4.253533    2.250475    0.230027
     39          8           0        5.248679    2.954034    0.276093
     40          6           0        4.227840    0.664044    0.356252
     41          6           0        5.009873    0.125212   -0.775007
     42          8           0        4.839938    0.329847   -1.989592
     43          8           0        5.980035   -0.649734   -0.172431
     44          6           0        6.783283   -1.450949   -1.105220
     45          1           0       -0.762300   -4.492623    0.084275
     46          1           0       -5.125017    0.119261   -0.212630
     47          1           0       -0.667232    4.732381   -0.337033
     48          1           0        3.826033   -2.371518   -0.120407
     49          1           0        1.849094   -4.250747    0.847247
     50          1           0        3.308403   -3.965626   -1.654700
     51          1           0        1.696216   -3.617133   -2.087833
     52          1           0        1.968477   -5.188514   -1.218835
     53          1           0        2.921078   -3.157805    2.596878
     54          1           0        3.505205   -1.458391    2.341939
     55          1           0        5.176011   -3.440015    3.064369
     56          1           0        5.803639   -2.335144    2.002683
     57          1           0       -3.118242   -5.538574    0.692603
     58          1           0       -2.608458   -5.170005   -1.023484
     59          1           0       -4.320871   -5.286645   -0.430657
     60          1           0       -6.180886   -4.520705   -0.729923
     61          1           0       -7.313977   -3.825747    0.603348
     62          1           0       -5.850518   -4.477381    1.005764
     63          1           0       -4.807359    2.778148    0.716381
     64          1           0       -3.282749    4.539520   -1.107594
     65          1           0       -6.331402    2.720944   -1.003451
     66          1           0       -5.163927    2.153374   -2.212569
     67          1           0       -5.458867    3.864901   -1.951005
     68          1           0       -4.259054    5.226523    1.209430
     69          1           0       -2.518795    5.449359    0.906183
     70          1           0       -2.108679    4.658898    2.764910
     71          1           0       -2.813259    3.017295    2.398758
     72          1           0       -3.779636    4.213777    3.187167
     73          1           0        3.063870    5.206104    0.217749
     74          1           0        1.371105    5.662101   -0.226789
     75          1           0        2.689114    5.068595   -1.422055
     76          1           0        4.801407    0.554274    1.276237
     77          1           0        7.539093   -1.877038   -0.444810
     78          1           0        7.272812   -0.735324   -1.765790
     79          1           0        6.225490   -2.134718   -1.745416
 ---------------------------------------------------------------------

 SCF Done:  E(RPBE1PBE) =  -2033.68397928     A.U. after   16 cycles

 Excitation energies and oscillator strengths:

 Excited State   1:      Singlet-A      1.8382 eV  674.49 nm  f=0.3740  <S**2>=0.000
     155 ->158         0.17963
     156 ->157         0.69186
     156 <-157        -0.10366
 This state for optimization and/or second-order correction.
 Total Energy, E(TD-HF/TD-DFT) =  -2033.61642669
 Copying the excited state density for this state as the 1-particle RhoCI density.

 Excited State   2:      Singlet-A      2.2557 eV  549.64 nm  f=0.0514  <S**2>=0.000
     155 ->157         0.62868
     156 ->158        -0.31573

 Excited State   3:      Singlet-A      3.0018 eV  413.03 nm  f=0.0003  <S**2>=0.000
     153 ->157         0.62082
     153 ->159        -0.17314
     154 ->157        -0.25300

 Excited State   4:      Singlet-A      3.1254 eV  396.69 nm  f=0.0349  <S**2>=0.000
     153 ->157         0.23250
     154 ->157         0.60239
     156 ->158         0.25523

 Excited State   5:      Singlet-A      3.2058 eV  386.75 nm  f=0.0363  <S**2>=0.000
     151 ->157         0.22801
     151 ->159         0.10198
     152 ->157         0.59127
     152 ->159         0.12516
     156 ->158         0.20233

 The electronic state is 1-A.
 Alpha  occ. eigenvalues --  -46.92658 -19.26373 -19.20571 -19.19956 -19.19566
 Alpha  occ. eigenvalues --  -14.41988 -14.41594 -14.39241 -14.39100 -10.36620
 Alpha  occ. eigenvalues --  -10.32729 -10.32682 -10.29654 -10.29605 -10.29102
 Alpha  occ. eigenvalues --  -10.28527 -10.28127 -10.27938 -10.27625 -10.27355
 Alpha  occ. eigenvalues --  -10.26748 -10.26667 -10.26603 -10.26323 -10.26172
 Alpha  occ. eigenvalues --  -10.25895 -10.25765 -10.25591 -10.25440 -10.25409
 Alpha  occ. eigenvalues --  -10.25393 -10.25196 -10.25100 -10.24985 -10.24748
 Alpha  occ. eigenvalues --  -10.24239 -10.24096 -10.23742 -10.23354 -10.23141
 Alpha  occ. eigenvalues --  -10.23022 -10.22960 -10.22678  -3.14647  -1.87490
 Alpha  occ. eigenvalues --   -1.87010  -1.86869  -1.10789  -1.05110  -1.04172
 Alpha  occ. eigenvalues --   -1.02344  -0.99786  -0.98612  -0.97455  -0.96336
 Alpha  occ. eigenvalues --   -0.86843  -0.83421  -0.83117  -0.82319  -0.81733
 Alpha  occ. eigenvalues --   -0.81272  -0.80419  -0.78966  -0.77698  -0.76704
 Alpha  occ. eigenvalues --   -0.75898  -0.75502  -0.74151  -0.72362  -0.71696
 Alpha  occ. eigenvalues --   -0.71493  -0.70171  -0.69329  -0.66959  -0.66671
 Alpha  occ. eigenvalues --   -0.64204  -0.63670  -0.62863  -0.61853  -0.59833
 Alpha  occ. eigenvalues --   -0.59495  -0.59243  -0.58961  -0.57144  -0.54848
 Alpha  occ. eigenvalues --   -0.54018  -0.53519  -0.53402  -0.52525  -0.52133
 Alpha  occ. eigenvalues --   -0.50576  -0.50114  -0.49548  -0.49470  -0.49051
 Alpha  occ. eigenvalues --   -0.48144  -0.47948  -0.47694  -0.47000  -0.46936
 Alpha  occ. eigenvalues --   -0.46498  -0.46334  -0.46235  -0.45670  -0.45423
 Alpha  occ. eigenvalues --   -0.44554  -0.44304  -0.43983  -0.43496  -0.43280
 Alpha  occ. eigenvalues --   -0.43222  -0.43135  -0.42778  -0.42361  -0.42106
 Alpha  occ. eigenvalues --   -0.42022  -0.41624  -0.41359  -0.40899  -0.40622
 Alpha  occ. eigenvalues --   -0.40332  -0.39964  -0.39519  -0.39321  -0.38768
 Alpha  occ. eigenvalues --   -0.38271  -0.38034  -0.37759  -0.37703  -0.37671
 Alpha  occ. eigenvalues --   -0.37113  -0.37083  -0.36906  -0.36876  -0.36522
 Alpha  occ. eigenvalues --   -0.36447  -0.35685  -0.35387  -0.34750  -0.34497
 Alpha  occ. eigenvalues --   -0.32878  -0.32542  -0.32168  -0.31755  -0.31497
 Alpha  occ. eigenvalues --   -0.31397  -0.29651  -0.29400  -0.29036  -0.26894
 Alpha  occ. eigenvalues --   -0.26354  -0.25966  -0.25673  -0.25454  -0.21316
 Alpha  occ. eigenvalues --   -0.18681
 Alpha virt. eigenvalues --   -0.11083  -0.05810  -0.04469  -0.02292  -0.00886
 Alpha virt. eigenvalues --    0.00052   0.00786   0.01025   0.03334   0.04324
 Alpha virt. eigenvalues --    0.04757   0.05159   0.05853   0.06259   0.06691

 Mulliken charges:
               1
     1  Mg  12.003015
     2  C    6.019677
     3  C    5.980536
     4  C    5.996869
     5  C    6.016354
     6  N    7.002213
     7  C    5.964939
     8  C    6.012044
     9  C    5.989504
    10  C    6.034547
    11  C    5.999120
    12  C    6.002471
    13  C    6.004195
    14  H    0.991501
    15  N    6.992495
    16  C    6.036229
    17  C    6.021272
    18  C    6.016389
    19  C    6.024100
    20  C    5.999993
    21  C    6.012380
    22  O    8.030239
    23  C    5.995760
    24  N    7.003480
    25  C    6.025313
    26  C    5.990852
    27  C    6.010621
    28  C    5.967348
    29  C    5.999013
    30  C    6.002135
    31  C    6.004247
    32  N    7.002177
    33  C    5.957764
    34  C    5.973483
    35  C    5.997304
    36  C    5.969163
    37  C    6.001144
    38  C    5.982401
    39  O    7.973534
    40  C    5.997775
    41  C    5.997154
    42  O    7.995651
    43  O    7.998048
    44  C    6.001522
    45  H    1.007347
    46  H    1.006815
    47  H    0.991893
    48  H    0.998737
    49  H    1.000821
    50  H    1.013590
    51  H    1.000281
    52  H    0.998976
    53  H    0.988004
    54  H    1.004996
    55  H    0.996391
    56  H    1.003168
    57  H    1.019452
    58  H    1.014301
    59  H    1.012498
    60  H    1.008604
    61  H    1.013756
    62  H    1.007695
    63  H    1.000181
    64  H    0.997709
    65  H    0.997865
    66  H    0.996938
    67  H    1.008960
    68  H    0.990760
    69  H    1.004434
    70  H    1.005416
    71  H    0.991602
    72  H    0.993475
    73  H    0.985695
    74  H    0.982447
    75  H    0.980802
    76  H    0.992789
    77  H    0.995677
    78  H    0.998658
    79  H    0.993295
 Sum of Mulliken charges = 312.00000

 Dipole moment (field-independent basis, Debye):
    X=             -7.6769    Y=             -6.9536    Z=             -0.1655  Tot=             10.3593
 Quadrupole moment (field-independent basis, Debye-Ang):
   XX=              9.4973   YY=             -1.1886   ZZ=             -0.5140
   XY=              6.4152   XZ=              0.5601   YZ=              1.0679

 Normal termination of Gaussian 16 at Wed Oct 13 18:44:00 2021.
