 Gaussian 16, Revision A.03,
 Gaussian 16:  ES64L-G16RevA.03 25-Dec-2016

 --------------------------------------------------------
 #p PBE1PBE/Def2SVP td=(nstates=5) density=(transition=1)
 --------------------------------------------------------

 --------------------------------
 TDDFT excited states in gaussian
 --------------------------------
 Symbolic Z-matrix:
 Charge =  0 Multiplicity = 1

                         Standard orientation:
 ---------------------------------------------------------------------
 Center     Atomic      Atomic             Coordinates (Angstroms)
 Number     Number       Type             X           Y           Z
 ---------------------------------------------------------------------
      1         12           0      -30.622420    0.343691    0.378836
      2          6           0      -27.755001   -1.430799   -0.317855
      3          6           0      -28.819477    3.230985    0.100959
      4          6           0      -33.477405    1.898515   -0.207934
      5          6           0      -32.328369   -2.718079    0.585689
      6          7           0      -28.608742    0.782954   -0.525159
      7          6           0      -27.562761   -0.082547   -0.496115
      8          6           0      -26.243976    0.592731   -0.731112
      9          6           0      -26.568487    2.014943   -0.169818
     10          6           0      -28.089076    1.999789   -0.118120
     11          6           0      -25.859201    2.313222    1.182200
     12          6           0      -25.858198    0.649219   -2.293778
     13          6           0      -24.299399    0.509636   -2.621126
     14          1           0      -23.860820    1.764139   -3.335205
     15          7           0      -31.083985    2.330433    0.197014
     16          6           0      -30.255010    3.381497    0.013656
     17          6           0      -31.015300    4.611560   -0.168257
     18          6           0      -32.374252    4.239961   -0.226497
     19          6           0      -32.349884    2.757419   -0.080368
     20          6           0      -30.303979    5.976836   -0.330479
     21          6           0      -33.467153    5.199432   -0.607115
     22          8           0      -33.200339    6.357748   -0.795153
     23          6           0      -34.939534    4.805540   -0.831924
     24          7           0      -32.687434   -0.271416    0.332655
     25          6           0      -33.618726    0.531841    0.065657
     26          6           0      -34.936618   -0.127627   -0.109185
     27          6           0      -34.595056   -1.645692    0.160564
     28          6           0      -33.145179   -1.570531    0.370207
     29          6           0      -36.036213    0.524538    0.795465
     30          6           0      -34.990148   -2.579388   -1.075474
     31          6           0      -35.134629   -4.118917   -0.802905
     32          7           0      -30.188297   -1.670909    0.267912
     33          6           0      -30.970442   -2.792035    0.478237
     34          6           0      -30.160119   -3.978251    0.493427
     35          6           0      -28.837591   -3.478082    0.226811
     36          6           0      -28.938272   -2.119162   -0.000798
     37          6           0      -30.599774   -5.386770    0.732441
     38          6           0      -27.475962   -3.868714    0.100183
     39          8           0      -26.863865   -4.942914    0.159207
     40          6           0      -26.748285   -2.596544   -0.447622
     41          6           0      -25.476651   -2.468065    0.322847
     42          8           0      -24.380224   -2.915496   -0.041655
     43          8           0      -25.717715   -1.835577    1.511190
     44          6           0      -24.447253   -1.760313    2.285869
     45          1           0      -28.322011    4.201008    0.170204
     46          1           0      -34.395678    2.430982   -0.462085
     47          1           0      -32.875067   -3.661606    0.516034
     48          1           0      -25.557647    0.061991   -0.072497
     49          1           0      -26.179281    2.765209   -0.858289
     50          1           0      -25.157637    3.135789    1.046343
     51          1           0      -25.254182    1.439088    1.425130
     52          1           0      -26.635241    2.479027    1.928788
     53          1           0      -26.259833    1.489632   -2.859700
     54          1           0      -26.335330   -0.170606   -2.829781
     55          1           0      -24.252806   -0.311085   -3.337067
     56          1           0      -23.602931    0.229091   -1.830900
     57          1           0      -30.521330    6.500370   -1.261411
     58          1           0      -29.221621    5.932011   -0.204679
     59          1           0      -30.613762    6.592733    0.513143
     60          1           0      -35.428393    4.435212    0.068579
     61          1           0      -35.083380    4.091074   -1.642837
     62          1           0      -35.396896    5.698034   -1.260063
     63          1           0      -35.149789    0.021264   -1.167633
     64          1           0      -34.963643   -2.105624    1.077151
     65          1           0      -36.822029    0.879242    0.128908
     66          1           0      -35.636164    1.338929    1.399744
     67          1           0      -36.615834   -0.190768    1.378762
     68          1           0      -34.256236   -2.471209   -1.874360
     69          1           0      -35.936245   -2.182270   -1.440382
     70          1           0      -36.076987   -4.636285   -0.980786
     71          1           0      -34.956393   -4.338485    0.248881
     72          1           0      -34.392978   -4.673671   -1.377648
     73          1           0      -31.625618   -5.528002    1.072167
     74          1           0      -29.860665   -5.673750    1.479327
     75          1           0      -30.327780   -5.830163   -0.225520
     76          1           0      -26.542836   -2.623170   -1.518287
     77          1           0      -24.169060   -2.759329    2.620027
     78          1           0      -24.567501   -1.256039    3.244721
     79          1           0      -23.706675   -1.267647    1.655505
     80         12           0       30.604588   -0.176470   -0.564784
     81          6           0       28.021223   -0.893937    1.764525
     82          6           0       32.308451    1.310597    2.155051
     83          6           0       32.887204    0.865902   -2.649840
     84          6           0       28.592195   -1.439796   -3.104640
     85          7           0       30.197055    0.184333    1.747637
     86          6           0       29.104183   -0.314857    2.412869
     87          6           0       29.181466   -0.123573    3.918115
     88          6           0       30.530603    0.712544    3.988722
     89          6           0       31.081527    0.713783    2.554443
     90          6           0       30.300966    2.065948    4.654889
     91          6           0       29.263100   -1.486804    4.639546
     92          6           0       28.537771   -1.648726    6.029582
     93          1           0       28.196435   -0.367840    6.826847
     94          7           0       32.406332    0.872681   -0.287692
     95          6           0       32.872820    1.458243    0.889599
     96          6           0       34.161075    2.106435    0.597093
     97          6           0       34.385971    1.891019   -0.801735
     98          6           0       33.204191    1.141499   -1.269319
     99          6           0       34.907665    2.851124    1.569990
    100          6           0       35.566550    2.344238   -1.654720
    101          8           0       35.574336    2.165475   -2.883025
    102          6           0       36.805432    2.847194   -1.024225
    103          7           0       30.675381   -0.181404   -2.607892
    104          6           0       31.783107    0.220229   -3.236803
    105          6           0       31.628206    0.089308   -4.786881
    106          6           0       30.358505   -0.813521   -4.895017
    107          6           0       29.811561   -0.820988   -3.501998
    108          6           0       31.568256    1.461660   -5.549453
    109          6           0       30.898363   -2.236467   -5.306103
    110          6           0       31.215716   -3.309796   -4.208551
    111          7           0       28.757954   -1.091947   -0.688702
    112          6           0       28.061443   -1.542868   -1.824593
    113          6           0       26.729370   -2.030982   -1.389049
    114          6           0       26.680529   -1.735684   -0.031686
    115          6           0       27.883449   -1.213122    0.393883
    116          6           0       25.714999   -2.370533   -2.371994
    117          6           0       25.746132   -1.712239    1.090988
    118          8           0       24.564174   -2.037302    1.094250
    119          6           0       26.573978   -1.130779    2.331309
    120          6           0       25.931667    0.087536    2.881648
    121          8           0       26.201903    1.247253    2.583065
    122          8           0       24.962217   -0.293679    3.828497
    123          6           0       24.128966    0.683100    4.492513
    124          1           0       33.001416    1.565065    2.960216
    125          1           0       33.622147    1.168758   -3.399071
    126          1           0       28.076414   -1.846336   -3.976744
    127          1           0       28.336397    0.440243    4.314017
    128          1           0       31.164908    0.191524    4.705345
    129          1           0       30.939486    2.269825    5.513723
    130          1           0       29.282325    2.273814    4.982489
    131          1           0       30.603373    2.820661    3.927684
    132          1           0       30.300868   -1.785102    4.787910
    133          1           0       28.832614   -2.137031    3.877185
    134          1           0       29.175892   -2.188864    6.728180
    135          1           0       27.744389   -2.374287    5.850182
    136          1           0       35.918121    2.442113    1.555503
    137          1           0       34.353845    2.937610    2.504321
    138          1           0       34.822655    3.852960    1.147859
    139          1           0       36.702499    3.844780   -0.596157
    140          1           0       37.586605    2.930035   -1.779634
    141          1           0       37.017618    2.212688   -0.164197
    142          1           0       32.579376   -0.401721   -4.992599
    143          1           0       29.681210   -0.470320   -5.677461
    144          1           0       32.555627    1.718179   -5.933606
    145          1           0       31.127569    2.181863   -4.860861
    146          1           0       30.877843    1.309988   -6.379000
    147          1           0       31.678140   -2.120368   -6.059080
    148          1           0       30.012445   -2.719785   -5.719066
    149          1           0       32.165716   -3.729324   -4.538334
    150          1           0       30.483212   -4.117375   -4.176631
    151          1           0       31.367856   -2.933066   -3.197681
    152          1           0       25.660830   -1.566464   -3.104807
    153          1           0       24.766225   -2.404956   -1.835551
    154          1           0       25.846019   -3.390083   -2.733544
    155          1           0       26.513017   -1.932643    3.067759
    156          1           0       23.154868    0.812704    4.021509
    157          1           0       24.695786    1.576317    4.755585
    158          1           0       24.033221    0.226521    5.478051
 ---------------------------------------------------------------------

 SCF Done:  E(RPBE1PBE) =  -4067.36432055     A.U. after   16 cycles

 Excitation energies and oscillator strengths:

 Excited State   1:      Singlet-A      1.7987 eV  689.31 nm  f=0.3469  <S**2>=0.000
     309 -> 315        0.16145
     311 -> 313        0.69480
     311 <- 313       -0.10915
 This state for optimization and/or second-order correction.
 Total Energy, E(TD-HF/TD-DFT) =  -4067.29822108
 Copying the excited state density for this state as the 1-particle RhoCI density.

 Excited State   2:      Singlet-A      1.8782 eV  660.13 nm  f=0.0000  <S**2>=0.000
     312 -> 313        0.70711

 Excited State   3:      Singlet-A      1.8853 eV  657.63 nm  f=0.3636  <S**2>=0.000
     310 -> 316        0.18508
     312 -> 314        0.68869
     312 <- 314       -0.10057

 Excited State   4:      Singlet-A      2.1383 eV  579.81 nm  f=0.0000  <S**2>=0.000
     311 -> 314        0.70711

 Excited State   5:      Singlet-A      2.1989 eV  563.84 nm  f=0.1028  <S**2>=0.000
     309 -> 313        0.65393
     311 -> 315       -0.25094

 The electronic state is 1-A.
 Alpha  occ. eigenvalues --  -46.92570 -46.91899 -19.26283 -19.24637 -19.20066
 Alpha  occ. eigenvalues --  -19.19640 -19.19427 -19.19401 -19.18800 -19.18450
 Alpha  occ. eigenvalues --  -14.41494 -14.41451 -14.41426 -14.40967 -14.39726
 Alpha  occ. eigenvalues --  -14.39191 -14.38703 -14.38432 -10.36440 -10.35818
 Alpha  occ. eigenvalues --  -10.32621 -10.32597 -10.32242 -10.31469 -10.29751
 Alpha  occ. eigenvalues --  -10.28999 -10.28997 -10.28673 -10.28536 -10.28386
 Alpha  occ. eigenvalues --  -10.28294 -10.28176 -10.28096 -10.28095 -10.28014
 Alpha  occ. eigenvalues --  -10.27867 -10.27849 -10.27758 -10.27123 -10.26736
 Alpha  occ. eigenvalues --  -10.26611 -10.26523 -10.26503 -10.26341 -10.26340
 Alpha  occ. eigenvalues --  -10.26156 -10.26142 -10.26132 -10.26082 -10.25911
 Alpha  occ. eigenvalues --  -10.25788 -10.25644 -10.25463 -10.25403 -10.25340
 Alpha  occ. eigenvalues --  -10.25323 -10.25209 -10.25122 -10.25110 -10.25096
 Alpha  occ. eigenvalues --  -10.25067 -10.25007 -10.24999 -10.24964 -10.24760
 Alpha  occ. eigenvalues --  -10.24652 -10.24610 -10.24606 -10.24421 -10.24411
 Alpha  occ. eigenvalues --  -10.24334 -10.24241 -10.24114 -10.23902 -10.23822
 Alpha  occ. eigenvalues --  -10.23751 -10.23750 -10.23638 -10.23604 -10.23240
 Alpha  occ. eigenvalues --  -10.23122 -10.22759 -10.22717 -10.22681 -10.22554
 Alpha  occ. eigenvalues --  -10.22539  -3.14723  -3.14024  -1.87549  -1.87111
 Alpha  occ. eigenvalues --   -1.86937  -1.86872  -1.86411  -1.86233  -1.10801
 Alpha  occ. eigenvalues --   -1.09374  -1.06401  -1.04492  -1.03756  -1.03106
 Alpha  occ. eigenvalues --   -1.02040  -1.01664  -1.01359  -0.99267  -0.99058
 Alpha  occ. eigenvalues --   -0.98582  -0.98522  -0.97754  -0.97681  -0.96172
 Alpha  occ. eigenvalues --   -0.87057  -0.86364  -0.84085  -0.83944  -0.82923
 Alpha  occ. eigenvalues --   -0.82904  -0.82721  -0.82512  -0.81626  -0.81579
 Alpha  occ. eigenvalues --   -0.81187  -0.81105  -0.80786  -0.80621  -0.78500
 Alpha  occ. eigenvalues --   -0.78323  -0.78185  -0.77604  -0.76670  -0.76525
 Alpha  occ. eigenvalues --   -0.76241  -0.75857  -0.75178  -0.75161  -0.74803
 Alpha  occ. eigenvalues --   -0.74689  -0.73076  -0.72812  -0.71948  -0.71454
 Alpha  occ. eigenvalues --   -0.71187  -0.71089  -0.70340  -0.70076  -0.69774
 Alpha  occ. eigenvalues --   -0.69120  -0.67204  -0.66619  -0.66612  -0.65750
 Alpha  occ. eigenvalues --   -0.64889  -0.63640  -0.63632  -0.63193  -0.62573
 Alpha  occ. eigenvalues --   -0.62345  -0.62023  -0.61334  -0.61029  -0.59780
 Alpha  occ. eigenvalues --   -0.59425  -0.59333  -0.59180  -0.59042  -0.58989
 Alpha  occ. eigenvalues --   -0.58759  -0.57059  -0.56107  -0.54920  -0.54753
 Alpha  occ. eigenvalues --   -0.54207  -0.53915  -0.53723  -0.53564  -0.53377
 Alpha  occ. eigenvalues --   -0.52569  -0.52565  -0.52442  -0.51740  -0.51428
 Alpha  occ. eigenvalues --   -0.51273  -0.50811  -0.50767  -0.50288  -0.50059
 Alpha  occ. eigenvalues --   -0.49776  -0.49528  -0.48815  -0.48797  -0.48414
 Alpha  occ. eigenvalues --   -0.48264  -0.48178  -0.47796  -0.47695  -0.47532
 Alpha  occ. eigenvalues --   -0.47341  -0.47140  -0.46884  -0.46789  -0.46447
 Alpha  occ. eigenvalues --   -0.46313  -0.46279  -0.46152  -0.45960  -0.45915
 Alpha  occ. eigenvalues --   -0.45774  -0.45359  -0.45317  -0.45138  -0.44792
 Alpha  occ. eigenvalues --   -0.44753  -0.44496  -0.44449  -0.44300  -0.44125
 Alpha  occ. eigenvalues --   -0.44071  -0.43868  -0.43650  -0.43632  -0.43443
 Alpha  occ. eigenvalues --   -0.43304  -0.43102  -0.42966  -0.42958  -0.42674
 Alpha  occ. eigenvalues --   -0.42419  -0.42358  -0.42216  -0.42048  -0.42009
 Alpha  occ. eigenvalues --   -0.41622  -0.41573  -0.41421  -0.41263  -0.41033
 Alpha  occ. eigenvalues --   -0.41012  -0.40894  -0.40738  -0.40650  -0.40520
 Alpha  occ. eigenvalues --   -0.40187  -0.40051  -0.39772  -0.39714  -0.39467
 Alpha  occ. eigenvalues --   -0.39386  -0.39205  -0.39111  -0.39050  -0.38957
 Alpha  occ. eigenvalues --   -0.38908  -0.38793  -0.38744  -0.38697  -0.38466
 Alpha  occ. eigenvalues --   -0.38310  -0.38215  -0.38143  -0.38026  -0.37739
 Alpha  occ. eigenvalues --   -0.37552  -0.37497  -0.37449  -0.37033  -0.36894
 Alpha  occ. eigenvalues --   -0.36796  -0.36792  -0.36642  -0.36234  -0.36113
 Alpha  occ. eigenvalues --   -0.36041  -0.35900  -0.35739  -0.35400  -0.35194
 Alpha  occ. eigenvalues --   -0.34965  -0.34800  -0.34593  -0.34207  -0.33615
 Alpha  occ. eigenvalues --   -0.33438  -0.33233  -0.32698  -0.32662  -0.32407
 Alpha  occ. eigenvalues --   -0.32133  -0.31904  -0.31796  -0.31694  -0.31491
 Alpha  occ. eigenvalues --   -0.31023  -0.30721  -0.30189  -0.29274  -0.29074
 Alpha  occ. eigenvalues --   -0.29058  -0.28676  -0.28372  -0.26834  -0.26594
 Alpha  occ. eigenvalues --   -0.26277  -0.26094  -0.25839  -0.25763  -0.25659
 Alpha  occ. eigenvalues --   -0.25332  -0.25099  -0.24737  -0.21029  -0.20759
 Alpha  occ. eigenvalues --   -0.18742  -0.18431
 Alpha virt. eigenvalues --   -0.11310  -0.10668  -0.05323  -0.05153  -0.03983
 Alpha virt. eigenvalues --   -0.03969  -0.02263  -0.02175  -0.00797   0.00253
 Alpha virt. eigenvalues --    0.00270   0.00549   0.01094   0.01205   0.01631

 Mulliken charges:
               1
     1  Mg  12.000657
     2  C    6.012766
     3  C    5.992517
     4  C    5.984685
     5  C    6.003215
     6  N    7.008424
     7  C    5.966211
     8  C    6.010254
     9  C    5.986142
    10  C    6.031839
    11  C    5.996965
    12  C    5.998935
    13  C    6.002193
    14  H    0.991132
    15  N    6.995157
    16  C    6.035569
    17  C    6.022395
    18  C    6.013530
    19  C    6.029584
    20  C    5.996168
    21  C    6.008735
    22  O    8.019289
    23  C    5.998227
    24  N    7.000410
    25  C    6.029107
    26  C    5.991828
    27  C    6.010119
    28  C    5.965744
    29  C    5.997377
    30  C    6.006388
    31  C    6.001376
    32  N    6.999567
    33  C    5.973242
    34  C    5.968203
    35  C    5.999989
    36  C    5.975748
    37  C    5.999207
    38  C    5.984128
    39  O    7.971242
    40  C    6.001411
    41  C    5.996008
    42  O    7.993233
    43  O    8.000868
    44  C    6.000837
    45  H    1.010295
    46  H    1.006271
    47  H    0.991736
    48  H    1.002883
    49  H    1.005185
    50  H    1.003455
    51  H    1.015058
    52  H    0.999593
    53  H    0.989348
    54  H    1.005003
    55  H    1.002092
    56  H    1.000463
    57  H    1.017303
    58  H    1.017200
    59  H    1.016939
    60  H    1.010637
    61  H    1.011071
    62  H    1.010813
    63  H    0.997972
    64  H    0.998369
    65  H    0.999961
    66  H    0.994096
    67  H    1.008766
    68  H    0.997166
    69  H    0.988111
    70  H    0.994235
    71  H    1.001515
    72  H    1.003505
    73  H    0.982808
    74  H    0.984982
    75  H    0.982985
    76  H    0.991684
    77  H    1.000064
    78  H    0.993693
    79  H    0.994122
    80  Mg  11.999998
    81  C    6.000097
    82  C    6.000031
    83  C    5.999931
    84  C    5.999970
    85  N    6.999990
    86  C    5.999979
    87  C    6.000002
    88  C    6.000005
    89  C    5.999976
    90  C    6.000010
    91  C    5.999992
    92  C    6.000000
    93  H    0.999994
    94  N    6.999986
    95  C    5.999942
    96  C    5.999969
    97  C    5.999957
    98  C    6.000060
    99  C    6.000010
   100  C    5.999950
   101  O    7.999963
   102  C    6.000014
   103  N    6.999999
   104  C    6.000027
   105  C    5.999983
   106  C    5.999995
   107  C    6.000054
   108  C    6.000002
   109  C    5.999990
   110  C    5.999990
   111  N    7.000019
   112  C    6.000026
   113  C    6.000036
   114  C    5.999982
   115  C    5.999990
   116  C    5.999995
   117  C    6.000089
   118  O    8.000013
   119  C    5.999980
   120  C    6.000003
   121  O    7.999999
   122  O    8.000002
   123  C    5.999984
   124  H    0.999977
   125  H    1.000000
   126  H    1.000021
   127  H    0.999992
   128  H    0.999997
   129  H    0.999989
   130  H    0.999979
   131  H    0.999997
   132  H    1.000016
   133  H    0.999992
   134  H    1.000008
   135  H    1.000004
   136  H    0.999975
   137  H    0.999978
   138  H    0.999969
   139  H    0.999981
   140  H    0.999971
   141  H    0.999999
   142  H    1.000007
   143  H    0.999996
   144  H    0.999998
   145  H    0.999994
   146  H    0.999983
   147  H    1.000009
   148  H    1.000004
   149  H    1.000014
   150  H    1.000004
   151  H    1.000007
   152  H    1.000024
   153  H    1.000034
   154  H    1.000047
   155  H    1.000020
   156  H    1.000013
   157  H    1.000001
   158  H    1.000018
 Sum of Mulliken charges = 624.00000

 Dipole moment (field-independent basis, Debye):
    X=             -2.1948    Y=              9.8329    Z=             -0.4554  Tot=             10.0852
 Quadrupole moment (field-independent basis, Debye-Ang):
   XX=            129.5867   YY=              7.0454   ZZ=             -0.7884
   XY=           -302.2229   XZ=             15.0244   YZ=              0.7177

 Normal termination of Gaussian 16 at Fri Oct 15 07:40:29 2021.
