 Gaussian 16, Revision A.03,
 Gaussian 16:  ES64L-G16RevA.03 25-Dec-2016

 --------------------------------------------------------
 #p PBE1PBE/Def2SVP td=(nstates=5) density=(transition=1)
 --------------------------------------------------------

 --------------------------------
 TDDFT excited states in gaussian
 --------------------------------
 Symbolic Z-matrix:
 Charge =  0 Multiplicity = 1

                         Standard orientation:
 ---------------------------------------------------------------------
 Center     Atomic      Atomic             Coordinates (Angstroms)
 Number     Number       Type             X           Y           Z
 ---------------------------------------------------------------------
      1         12           0        8.656630    0.535910    0.111748
      2          6           0        7.076648   -1.644604   -2.146396
      3          6           0        7.603284    3.179865   -1.817530
      4          6           0        9.490947    2.500644    2.639451
      5          6           0        9.454875   -2.263921    2.146839
      6          7           0        7.276958    0.740258   -1.601275
      7          6           0        6.731970   -0.300015   -2.397469
      8          6           0        6.233794    0.177009   -3.699120
      9          6           0        6.507309    1.740410   -3.610983
     10          6           0        7.208903    1.913094   -2.273064
     11          6           0        7.235051    2.287897   -4.862650
     12          6           0        4.762273   -0.007505   -3.912442
     13          6           0        3.855519    0.196499   -2.689601
     14          1           0        2.420210    0.838337   -2.827877
     15          7           0        8.606924    2.593395    0.397581
     16          6           0        8.258348    3.474363   -0.559525
     17          6           0        8.532910    4.804260   -0.075839
     18          6           0        9.152070    4.646605    1.188611
     19          6           0        9.143807    3.201899    1.469339
     20          6           0        8.187907    6.088907   -0.780055
     21          6           0        9.696995    5.776816    2.061358
     22          8           0        9.616558    6.936862    1.707399
     23          6           0       10.267043    5.666753    3.444492
     24          7           0        9.124949    0.183713    2.185797
     25          6           0        9.491487    1.190658    3.038482
     26          6           0       10.172443    0.628361    4.329456
     27          6           0        9.842322   -0.892071    4.234889
     28          6           0        9.470489   -1.011635    2.773161
     29          6           0       11.700759    0.852723    4.427571
     30          6           0        8.536340   -1.378844    5.023477
     31          6           0        8.669354   -2.608229    5.847228
     32          7           0        8.460378   -1.475368    0.028770
     33          6           0        8.986671   -2.431527    0.805941
     34          6           0        9.003422   -3.749976    0.066828
     35          6           0        8.290481   -3.426393   -1.131276
     36          6           0        7.857479   -2.073448   -1.037876
     37          6           0        9.569087   -5.103845    0.470966
     38          6           0        7.703360   -4.025722   -2.294807
     39          8           0        7.700180   -5.185570   -2.675972
     40          6           0        6.910666   -2.863497   -3.018377
     41          6           0        5.439685   -3.214441   -2.933687
     42          8           0        4.754851   -3.241348   -1.965046
     43          8           0        4.973745   -3.397857   -4.218204
     44          6           0        3.511621   -3.459598   -4.311508
     45          1           0        7.440592    3.992162   -2.528714
     46          1           0        9.934479    3.129112    3.413524
     47          1           0        9.855055   -3.071153    2.763818
     48          1           0        6.780789   -0.356195   -4.476667
     49          1           0        5.636030    2.369075   -3.427541
     50          1           0        6.614833    3.156327   -5.085304
     51          1           0        7.195012    1.505382   -5.620474
     52          1           0        8.244774    2.639481   -4.649704
     53          1           0        4.505611   -0.910544   -4.466924
     54          1           0        4.312921    0.690256   -4.619405
     55          1           0        4.456312    0.782977   -1.993654
     56          1           0        3.804410   -0.811231   -2.276953
     57          1           0        7.723204    6.798544   -0.094732
     58          1           0        7.575305    5.877162   -1.656318
     59          1           0        9.153752    6.479985   -1.100798
     60          1           0        9.565139    5.355207    4.217367
     61          1           0       10.452004    6.715844    3.675847
     62          1           0       11.261924    5.220616    3.464895
     63          1           0        9.709598    1.117021    5.186732
     64          1           0       10.690824   -1.535276    4.469627
     65          1           0       12.198109   -0.113499    4.344896
     66          1           0       11.960681    1.515109    5.253112
     67          1           0       12.022080    1.421690    3.555878
     68          1           0        7.689342   -1.490021    4.346864
     69          1           0        8.303020   -0.538888    5.678022
     70          1           0        8.392470   -2.454747    6.890037
     71          1           0        9.664548   -3.051900    5.810117
     72          1           0        7.994938   -3.395116    5.510565
     73          1           0        8.733008   -5.802989    0.453701
     74          1           0       10.130950   -4.965948    1.395582
     75          1           0       10.212028   -5.406890   -0.355306
     76          1           0        7.233722   -2.721677   -4.049455
     77          1           0        3.010114   -2.874389   -3.540837
     78          1           0        3.295855   -4.520473   -4.184281
     79          1           0        3.273779   -3.243430   -5.352694
     80         12           0       -8.682815    0.167577   -0.069433
     81          6           0       -6.133242   -2.193960   -0.248383
     82          6           0       -6.735742    2.414411   -1.654385
     83          6           0      -11.038553    2.509570    0.555907
     84          6           0      -10.412230   -2.015508    1.963558
     85          7           0       -6.610560    0.082574   -0.850388
     86          6           0       -5.850026   -1.049949   -0.993686
     87          6           0       -4.618746   -0.750981   -1.761331
     88          6           0       -4.720001    0.716854   -2.192116
     89          6           0       -6.112926    1.155528   -1.565004
     90          6           0       -3.569514    1.659104   -1.873600
     91          6           0       -4.418734   -1.796425   -2.999532
     92          6           0       -3.156980   -2.690914   -2.988190
     93          1           0       -2.401425   -2.979509   -4.262062
     94          7           0       -8.920445    2.141913   -0.590746
     95          6           0       -7.983549    2.925907   -1.247116
     96          6           0       -8.471896    4.251608   -1.364909
     97          6           0       -9.736577    4.314148   -0.719408
     98          6           0       -9.956553    2.948071   -0.233536
     99          6           0       -7.643868    5.280468   -2.229928
    100          6           0      -10.573665    5.579459   -0.540127
    101          8           0      -11.639566    5.651939    0.089965
    102          6           0      -10.168629    6.816943   -1.212514
    103          7           0      -10.377551    0.372781    1.289065
    104          6           0      -11.244535    1.364106    1.281243
    105          6           0      -12.351570    1.139943    2.335922
    106          6           0      -12.334063   -0.439406    2.322616
    107          6           0      -10.936286   -0.743158    1.792703
    108          6           0      -12.185550    1.682822    3.803569
    109          6           0      -13.468990   -1.172656    1.459070
    110          6           0      -13.536143   -0.888856    0.014419
    111          7           0       -8.392122   -1.771285    0.809101
    112          6           0       -9.219558   -2.561857    1.630528
    113          6           0       -8.563739   -3.799129    1.911301
    114          6           0       -7.343956   -3.696323    1.272715
    115          6           0       -7.333751   -2.475367    0.521869
    116          6           0       -8.969842   -4.786226    2.892834
    117          6           0       -6.226976   -4.425821    0.893759
    118          8           0       -5.848570   -5.563660    1.190690
    119          6           0       -5.320366   -3.487428   -0.026264
    120          6           0       -4.115557   -3.170824    0.796690
    121          8           0       -3.992515   -2.627912    1.874580
    122          8           0       -3.086285   -3.658057    0.101514
    123          6           0       -1.728127   -3.443659    0.700121
    124          1           0       -6.113036    2.966458   -2.361409
    125          1           0      -11.838996    3.250217    0.598136
    126          1           0      -11.000742   -2.720771    2.553721
    127          1           0       -3.807773   -0.886621   -1.046849
    128          1           0       -4.865705    0.757855   -3.271329
    129          1           0       -3.986996    2.043429   -0.943699
    130          1           0       -3.335321    2.397296   -2.640831
    131          1           0       -2.585741    1.252260   -1.641154
    132          1           0       -4.459146   -1.239501   -3.935175
    133          1           0       -5.183757   -2.571929   -3.045001
    134          1           0       -3.496206   -3.680886   -2.681890
    135          1           0       -2.454792   -2.398208   -2.208709
    136          1           0       -7.476463    6.175897   -1.631660
    137          1           0       -8.422127    5.483578   -2.965665
    138          1           0       -6.641172    4.999006   -2.551765
    139          1           0       -9.161327    7.109965   -0.919834
    140          1           0      -10.739204    7.609851   -0.729522
    141          1           0      -10.338862    6.839506   -2.289209
    142          1           0      -13.311557    1.372280    1.874680
    143          1           0      -12.496343   -0.703095    3.367445
    144          1           0      -11.188085    1.592026    4.231911
    145          1           0      -12.927232    1.099095    4.349982
    146          1           0      -12.441633    2.741430    3.854294
    147          1           0      -14.480574   -0.952148    1.800796
    148          1           0      -13.266929   -2.239935    1.369045
    149          1           0      -12.764465   -1.536902   -0.398725
    150          1           0      -13.319658    0.118564   -0.342329
    151          1           0      -14.446939   -1.147986   -0.524398
    152          1           0       -8.585224   -4.384950    3.831220
    153          1           0       -8.568677   -5.788371    2.744370
    154          1           0      -10.042955   -4.980461    2.894466
    155          1           0       -5.102888   -3.918881   -1.003386
    156          1           0       -1.284491   -2.660871    0.084465
    157          1           0       -1.168741   -4.378785    0.685362
    158          1           0       -1.684176   -3.063619    1.721165
 ---------------------------------------------------------------------

 SCF Done:  E(RPBE1PBE) =  -4067.34521197     A.U. after   17 cycles

 Excitation energies and oscillator strengths:

 Excited State   1:      Singlet-A      1.8156 eV  682.88 nm  f=0.0000  <S**2>=0.000
     312 -> 313        0.70709
 This state for optimization and/or second-order correction.
 Total Energy, E(TD-HF/TD-DFT) =  -4067.27849004
 Copying the excited state density for this state as the 1-particle RhoCI density.

 Excited State   2:      Singlet-A      1.8287 eV  677.98 nm  f=0.2570  <S**2>=0.000
     309 -> 315       -0.16411
     311 -> 313       -0.10610
     312 -> 314        0.68730
     312 <- 314       -0.11328

 Excited State   3:      Singlet-A      1.8596 eV  666.71 nm  f=0.4291  <S**2>=0.000
     310 -> 316       -0.16202
     311 -> 313        0.68432
     312 -> 314        0.10560
     311 <- 313       -0.10639

 Excited State   4:      Singlet-A      1.8816 eV  658.91 nm  f=0.0000  <S**2>=0.000
     311 -> 314        0.70708

 Excited State   5:      Singlet-A      2.1766 eV  569.63 nm  f=0.1496  <S**2>=0.000
     310 -> 313        0.66014
     311 -> 316        0.23434

 The electronic state is 1-A.
 Alpha  occ. eigenvalues --  -46.92674 -46.92076 -19.25491 -19.25420 -19.20760
 Alpha  occ. eigenvalues --  -19.19468 -19.19146 -19.18858 -19.18518 -19.18387
 Alpha  occ. eigenvalues --  -14.42009 -14.41578 -14.41516 -14.41164 -14.39362
 Alpha  occ. eigenvalues --  -14.39328 -14.39231 -14.38550 -10.36401 -10.35450
 Alpha  occ. eigenvalues --  -10.32249 -10.32166 -10.31819 -10.31192 -10.29151
 Alpha  occ. eigenvalues --  -10.29126 -10.28848 -10.28835 -10.28715 -10.28642
 Alpha  occ. eigenvalues --  -10.28619 -10.28537 -10.28459 -10.28313 -10.28173
 Alpha  occ. eigenvalues --  -10.27956 -10.27777 -10.27701 -10.27456 -10.27189
 Alpha  occ. eigenvalues --  -10.26738 -10.26596 -10.26559 -10.26405 -10.26381
 Alpha  occ. eigenvalues --  -10.26311 -10.26298 -10.26272 -10.26248 -10.26105
 Alpha  occ. eigenvalues --  -10.26090 -10.26007 -10.25802 -10.25779 -10.25742
 Alpha  occ. eigenvalues --  -10.25613 -10.25578 -10.25460 -10.25438 -10.25294
 Alpha  occ. eigenvalues --  -10.25210 -10.25183 -10.25093 -10.24978 -10.24854
 Alpha  occ. eigenvalues --  -10.24822 -10.24551 -10.24226 -10.24159 -10.24120
 Alpha  occ. eigenvalues --  -10.24114 -10.24109 -10.23970 -10.23923 -10.23920
 Alpha  occ. eigenvalues --  -10.23822 -10.23684 -10.23340 -10.23319 -10.23028
 Alpha  occ. eigenvalues --  -10.23006 -10.22858 -10.22846 -10.22832 -10.22273
 Alpha  occ. eigenvalues --  -10.22082  -3.14668  -3.14298  -1.87511  -1.87099
 Alpha  occ. eigenvalues --   -1.87020  -1.86907  -1.86677  -1.86539  -1.12159
 Alpha  occ. eigenvalues --   -1.11598  -1.05210  -1.04812  -1.03944  -1.03810
 Alpha  occ. eigenvalues --   -1.03209  -1.02004  -0.99977  -0.99323  -0.98865
 Alpha  occ. eigenvalues --   -0.98792  -0.98025  -0.98001  -0.97379  -0.97258
 Alpha  occ. eigenvalues --   -0.87661  -0.86480  -0.84322  -0.83823  -0.83464
 Alpha  occ. eigenvalues --   -0.82986  -0.82792  -0.82635  -0.82211  -0.81963
 Alpha  occ. eigenvalues --   -0.81887  -0.81108  -0.80740  -0.80214  -0.79124
 Alpha  occ. eigenvalues --   -0.78878  -0.78546  -0.78487  -0.77295  -0.77138
 Alpha  occ. eigenvalues --   -0.76197  -0.76016  -0.75733  -0.75270  -0.74990
 Alpha  occ. eigenvalues --   -0.74920  -0.73026  -0.72383  -0.71924  -0.71909
 Alpha  occ. eigenvalues --   -0.71634  -0.71278  -0.70484  -0.70212  -0.69618
 Alpha  occ. eigenvalues --   -0.69612  -0.67860  -0.67282  -0.66212  -0.66067
 Alpha  occ. eigenvalues --   -0.64094  -0.63722  -0.63421  -0.63414  -0.63099
 Alpha  occ. eigenvalues --   -0.62114  -0.61640  -0.61528  -0.60377  -0.60216
 Alpha  occ. eigenvalues --   -0.59839  -0.59740  -0.59267  -0.59208  -0.59034
 Alpha  occ. eigenvalues --   -0.58391  -0.56804  -0.56491  -0.54960  -0.54618
 Alpha  occ. eigenvalues --   -0.54418  -0.54181  -0.53815  -0.53630  -0.53545
 Alpha  occ. eigenvalues --   -0.53201  -0.52828  -0.52756  -0.52268  -0.52123
 Alpha  occ. eigenvalues --   -0.51227  -0.50982  -0.50674  -0.50131  -0.50109
 Alpha  occ. eigenvalues --   -0.50046  -0.49804  -0.49548  -0.49319  -0.49275
 Alpha  occ. eigenvalues --   -0.49072  -0.48799  -0.47840  -0.47751  -0.47736
 Alpha  occ. eigenvalues --   -0.47678  -0.47391  -0.47190  -0.47038  -0.46851
 Alpha  occ. eigenvalues --   -0.46703  -0.46674  -0.46424  -0.46347  -0.46070
 Alpha  occ. eigenvalues --   -0.45853  -0.45763  -0.45669  -0.45612  -0.44945
 Alpha  occ. eigenvalues --   -0.44723  -0.44358  -0.44342  -0.44221  -0.44131
 Alpha  occ. eigenvalues --   -0.44071  -0.44043  -0.43781  -0.43674  -0.43533
 Alpha  occ. eigenvalues --   -0.43492  -0.43285  -0.43196  -0.43093  -0.42917
 Alpha  occ. eigenvalues --   -0.42665  -0.42345  -0.42016  -0.41914  -0.41899
 Alpha  occ. eigenvalues --   -0.41710  -0.41704  -0.41562  -0.41441  -0.41317
 Alpha  occ. eigenvalues --   -0.41207  -0.40927  -0.40805  -0.40724  -0.40692
 Alpha  occ. eigenvalues --   -0.40427  -0.40352  -0.40101  -0.40022  -0.39563
 Alpha  occ. eigenvalues --   -0.39328  -0.39262  -0.39061  -0.38971  -0.38955
 Alpha  occ. eigenvalues --   -0.38850  -0.38779  -0.38533  -0.38485  -0.38160
 Alpha  occ. eigenvalues --   -0.38111  -0.37963  -0.37803  -0.37672  -0.37507
 Alpha  occ. eigenvalues --   -0.37294  -0.37182  -0.37136  -0.37112  -0.36975
 Alpha  occ. eigenvalues --   -0.36896  -0.36804  -0.36648  -0.36380  -0.36174
 Alpha  occ. eigenvalues --   -0.35882  -0.35770  -0.35740  -0.35528  -0.35432
 Alpha  occ. eigenvalues --   -0.35020  -0.34870  -0.34329  -0.34116  -0.33829
 Alpha  occ. eigenvalues --   -0.33643  -0.33019  -0.32998  -0.32974  -0.32631
 Alpha  occ. eigenvalues --   -0.32420  -0.32204  -0.31962  -0.31587  -0.31223
 Alpha  occ. eigenvalues --   -0.31118  -0.30918  -0.30068  -0.29624  -0.29542
 Alpha  occ. eigenvalues --   -0.29115  -0.28859  -0.28779  -0.27115  -0.27045
 Alpha  occ. eigenvalues --   -0.26196  -0.26117  -0.25746  -0.25668  -0.25609
 Alpha  occ. eigenvalues --   -0.25354  -0.25224  -0.25152  -0.21338  -0.20908
 Alpha  occ. eigenvalues --   -0.19019  -0.18814
 Alpha virt. eigenvalues --   -0.11377  -0.11346  -0.05437  -0.05107  -0.04105
 Alpha virt. eigenvalues --   -0.03854  -0.02067  -0.02008  -0.01431  -0.00555
 Alpha virt. eigenvalues --    0.00562   0.00862   0.01082   0.01273   0.02035

 Mulliken charges:
               1
     1  Mg  12.000001
     2  C    6.000015
     3  C    5.999999
     4  C    5.999988
     5  C    6.000001
     6  N    7.000006
     7  C    5.999982
     8  C    6.000005
     9  C    5.999996
    10  C    6.000017
    11  C    5.999999
    12  C    5.999999
    13  C    6.000004
    14  H    0.999988
    15  N    6.999996
    16  C    6.000022
    17  C    6.000013
    18  C    6.000004
    19  C    6.000025
    20  C    5.999998
    21  C    6.000006
    22  O    8.000011
    23  C    5.999998
    24  N    6.999997
    25  C    6.000020
    26  C    5.999996
    27  C    6.000003
    28  C    5.999991
    29  C    6.000000
    30  C    6.000004
    31  C    6.000000
    32  N    7.000001
    33  C    5.999984
    34  C    5.999981
    35  C    6.000004
    36  C    5.999979
    37  C    6.000000
    38  C    5.999993
    39  O    7.999988
    40  C    5.999999
    41  C    5.999998
    42  O    7.999998
    43  O    7.999999
    44  C    6.000001
    45  H    1.000007
    46  H    1.000004
    47  H    0.999994
    48  H    0.999997
    49  H    0.999997
    50  H    1.000000
    51  H    1.000006
    52  H    0.999999
    53  H    1.000002
    54  H    0.999996
    55  H    0.999994
    56  H    1.000003
    57  H    1.000009
    58  H    1.000009
    59  H    1.000009
    60  H    1.000006
    61  H    1.000006
    62  H    1.000006
    63  H    1.000000
    64  H    1.000000
    65  H    1.000006
    66  H    1.000000
    67  H    0.999997
    68  H    1.000000
    69  H    0.999992
    70  H    0.999997
    71  H    1.000000
    72  H    1.000002
    73  H    0.999990
    74  H    0.999991
    75  H    0.999990
    76  H    0.999995
    77  H    0.999997
    78  H    0.999999
    79  H    0.999997
    80  Mg  12.000000
    81  C    6.000004
    82  C    6.000002
    83  C    5.999994
    84  C    5.999996
    85  N    7.000002
    86  C    5.999995
    87  C    6.000002
    88  C    5.999999
    89  C    6.000004
    90  C    6.000001
    91  C    6.000000
    92  C    6.000000
    93  H    1.000001
    94  N    6.999999
    95  C    6.000004
    96  C    6.000002
    97  C    6.000002
    98  C    6.000006
    99  C    6.000000
   100  C    6.000002
   101  O    8.000004
   102  C    5.999999
   103  N    6.999996
   104  C    6.000006
   105  C    5.999999
   106  C    6.000001
   107  C    5.999997
   108  C    6.000000
   109  C    6.000001
   110  C    6.000000
   111  N    7.000001
   112  C    5.999996
   113  C    5.999995
   114  C    5.999999
   115  C    5.999996
   116  C    6.000000
   117  C    5.999998
   118  O    7.999995
   119  C    6.000000
   120  C    5.999999
   121  O    7.999999
   122  O    8.000000
   123  C    6.000000
   124  H    1.000002
   125  H    1.000000
   126  H    0.999998
   127  H    1.000001
   128  H    1.000001
   129  H    0.999999
   130  H    1.000000
   131  H    0.999999
   132  H    0.999999
   133  H    1.000001
   134  H    1.000001
   135  H    1.000000
   136  H    1.000002
   137  H    1.000002
   138  H    1.000002
   139  H    1.000001
   140  H    1.000002
   141  H    1.000001
   142  H    1.000000
   143  H    0.999999
   144  H    1.000000
   145  H    1.000001
   146  H    0.999999
   147  H    0.999998
   148  H    1.000000
   149  H    1.000001
   150  H    0.999998
   151  H    0.999999
   152  H    0.999997
   153  H    0.999998
   154  H    0.999998
   155  H    0.999999
   156  H    0.999999
   157  H    1.000001
   158  H    1.000000
 Sum of Mulliken charges = 624.00000

 Dipole moment (field-independent basis, Debye):
    X=              0.0015    Y=              0.0068    Z=              0.0001  Tot=              0.0070
 Quadrupole moment (field-independent basis, Debye-Ang):
   XX=              0.0063   YY=              0.0076   ZZ=             -0.0012
   XY=              0.0366   XZ=              0.0103   YZ=              0.0012

 Normal termination of Gaussian 16 at Wed Oct 13 22:46:21 2021.
