 Gaussian 16, Revision A.03,
 Gaussian 16:  ES64L-G16RevA.03 25-Dec-2016

 --------------------------------------------------------
 #p PBE1PBE/Def2SVP td=(nstates=5) density=(transition=1)
 --------------------------------------------------------

 --------------------------------
 TDDFT excited states in gaussian
 --------------------------------
 Symbolic Z-matrix:
 Charge =  0 Multiplicity = 1

                         Standard orientation:
 ---------------------------------------------------------------------
 Center     Atomic      Atomic             Coordinates (Angstroms)
 Number     Number       Type             X           Y           Z
 ---------------------------------------------------------------------
      1         12           0        9.834839   -0.308809    0.864195
      2          6           0        9.181277    2.042226   -1.737955
      3          6           0        6.672285    0.125291    1.770727
      4          6           0       10.017317   -3.171828    2.650623
      5          6           0       12.752624   -1.164691   -0.994350
      6          7           0        8.224700    0.980989    0.204256
      7          6           0        8.174892    1.943782   -0.827035
      8          6           0        6.794357    2.666053   -0.926029
      9          6           0        6.038217    2.037708    0.278727
     10          6           0        7.060651    1.039555    0.862062
     11          6           0        5.588425    3.189798    1.192560
     12          6           0        5.983030    2.523531   -2.285543
     13          6           0        5.787036    3.794679   -3.103646
     14          1           0        4.340112    4.197110   -3.454831
     15          7           0        8.608332   -1.325421    2.100470
     16          6           0        7.283401   -0.964685    2.344788
     17          6           0        6.727227   -1.778977    3.348406
     18          6           0        7.698245   -2.671916    3.762640
     19          6           0        8.816882   -2.459357    2.866627
     20          6           0        5.285944   -1.722729    3.978026
     21          6           0        7.488562   -3.650061    4.894699
     22          8           0        6.525591   -3.662917    5.602283
     23          6           0        8.730221   -4.622106    5.206304
     24          7           0       11.143266   -1.982035    0.797466
     25          6           0       11.014371   -3.018403    1.681428
     26          6           0       12.091367   -4.106295    1.276612
     27          6           0       13.029025   -3.462386    0.241720
     28          6           0       12.263781   -2.111905   -0.032507
     29          6           0       12.759857   -4.795484    2.432088
     30          6           0       13.037720   -4.303633   -1.028586
     31          6           0       14.231403   -4.171183   -1.936639
     32          7           0       10.933389    0.459759   -0.857631
     33          6           0       12.092911    0.023093   -1.452650
     34          6           0       12.445812    0.879093   -2.526349
     35          6           0       11.372671    1.786938   -2.688840
     36          6           0       10.430408    1.383521   -1.701028
     37          6           0       13.608636    0.759847   -3.427668
     38          6           0       10.767449    2.899617   -3.433192
     39          8           0       11.253291    3.564396   -4.358150
     40          6           0        9.325479    3.144160   -2.843639
     41          6           0        9.305729    4.406614   -2.154084
     42          8           0        9.846498    4.540078   -1.030816
     43          8           0        8.684578    5.292689   -2.957128
     44          6           0        8.350744    6.636732   -2.411122
     45          1           0        5.647821    0.269912    2.121026
     46          1           0       10.071518   -4.053322    3.293053
     47          1           0       13.695058   -1.303420   -1.527618
     48          1           0        6.924921    3.733493   -0.748467
     49          1           0        5.165731    1.453266   -0.011752
     50          1           0        5.208901    2.734966    2.107084
     51          1           0        4.810601    3.839893    0.792199
     52          1           0        6.411587    3.853467    1.459602
     53          1           0        4.972429    2.277945   -1.959170
     54          1           0        6.399985    1.715982   -2.887400
     55          1           0        6.366815    3.681213   -4.020301
     56          1           0        6.182481    4.643559   -2.544745
     57          1           0        4.885003   -2.731841    3.880771
     58          1           0        4.637162   -1.023615    3.450597
     59          1           0        5.226025   -1.337578    4.995917
     60          1           0        8.455301   -5.166806    6.109038
     61          1           0        9.559928   -3.925073    5.326292
     62          1           0        8.781399   -5.217686    4.294890
     63          1           0       11.492826   -4.873261    0.783807
     64          1           0       14.062858   -3.301133    0.546993
     65          1           0       13.762258   -5.088600    2.121231
     66          1           0       12.136345   -5.659128    2.664145
     67          1           0       12.756834   -4.225455    3.360419
     68          1           0       12.151840   -4.154739   -1.646639
     69          1           0       12.929557   -5.367545   -0.817752
     70          1           0       15.054854   -3.623665   -1.478466
     71          1           0       13.909962   -3.636961   -2.830953
     72          1           0       14.515977   -5.141359   -2.343801
     73          1           0       14.453551    0.278453   -2.934228
     74          1           0       13.863604    1.781810   -3.709223
     75          1           0       13.273294    0.125621   -4.248600
     76          1           0        8.512211    3.017845   -3.558316
     77          1           0        8.467862    7.240456   -3.312248
     78          1           0        8.983344    6.948183   -1.580430
     79          1           0        7.282056    6.735296   -2.217657
     80         12           0       -9.833362   -0.634781   -0.126867
     81          6           0       -8.215475    1.944645    1.546295
     82          6           0       -6.767444   -1.655920   -1.280367
     83          6           0      -11.444069   -3.041866   -2.004756
     84          6           0      -12.936739    0.772523    0.607387
     85          7           0       -7.739382    0.023872    0.199685
     86          6           0       -7.294381    1.012582    0.993824
     87          6           0       -5.757717    1.072828    1.157108
     88          6           0       -5.295429    0.044103    0.038234
     89          6           0       -6.694292   -0.574919   -0.442677
     90          6           0       -4.489352    0.816534   -1.066102
     91          6           0       -5.424662    0.616282    2.669355
     92          6           0       -4.551022    1.590176    3.513680
     93          1           0       -3.704747    2.598665    2.655479
     94          7           0       -9.252104   -2.102131   -1.514553
     95          6           0       -7.902879   -2.413140   -1.782066
     96          6           0       -7.852612   -3.641236   -2.546381
     97          6           0       -9.172740   -4.028394   -2.809235
     98          6           0      -10.054067   -3.083356   -2.028377
     99          6           0       -6.545241   -4.125232   -3.189582
    100          6           0       -9.666029   -5.213902   -3.680515
    101          8           0      -10.859098   -5.513847   -3.873453
    102          6           0       -8.611458   -6.146541   -4.300755
    103          7           0      -11.908560   -0.983802   -0.662331
    104          6           0      -12.284330   -2.127263   -1.431044
    105          6           0      -13.793056   -2.085724   -1.751727
    106          6           0      -14.291057   -1.017347   -0.670273
    107          6           0      -12.961492   -0.393077   -0.171323
    108          6           0      -13.990072   -1.754224   -3.221770
    109          6           0      -15.061695   -1.717660    0.527111
    110          6           0      -14.513931   -2.912329    1.379936
    111          7           0      -10.484661    1.030388    0.785333
    112          6           0      -11.778259    1.510554    1.011547
    113          6           0      -11.700402    2.723773    1.758660
    114          6           0      -10.357306    2.914380    2.028895
    115          6           0       -9.624217    1.921160    1.333599
    116          6           0      -12.839700    3.650133    2.131786
    117          6           0       -9.444397    3.761064    2.688708
    118          8           0       -9.684183    4.788185    3.239171
    119          6           0       -8.006132    3.223072    2.297034
    120          6           0       -7.382676    4.291362    1.441905
    121          8           0       -7.248511    4.205434    0.239112
    122          8           0       -7.063817    5.312650    2.245845
    123          6           0       -6.880745    6.553040    1.532723
    124          1           0       -5.791952   -2.038124   -1.587468
    125          1           0      -11.923408   -3.643567   -2.778911
    126          1           0      -13.900834    1.232524    0.836341
    127          1           0       -5.315658    2.059584    1.020615
    128          1           0       -4.692807   -0.788461    0.401984
    129          1           0       -4.732703    0.542724   -2.092976
    130          1           0       -3.484705    0.503554   -0.783213
    131          1           0       -4.576123    1.877322   -0.832148
    132          1           0       -5.030644   -0.398470    2.617504
    133          1           0       -6.382933    0.504334    3.177181
    134          1           0       -3.919297    0.884140    4.051605
    135          1           0       -5.098656    2.184065    4.244856
    136          1           0       -6.732026   -4.216744   -4.259852
    137          1           0       -6.320695   -5.132256   -2.835477
    138          1           0       -5.738852   -3.429788   -2.958857
    139          1           0       -8.140494   -5.591561   -5.113161
    140          1           0       -9.175786   -6.945152   -4.781978
    141          1           0       -8.030071   -6.617230   -3.508327
    142          1           0      -14.166378   -3.061434   -1.439363
    143          1           0      -15.032822   -0.357011   -1.118088
    144          1           0      -13.164281   -2.087698   -3.850445
    145          1           0      -14.105690   -0.679493   -3.360207
    146          1           0      -14.857994   -2.277267   -3.622790
    147          1           0      -16.052264   -1.992294    0.164412
    148          1           0      -15.121906   -0.917909    1.265310
    149          1           0      -14.791302   -3.841506    0.881943
    150          1           0      -15.015711   -2.830156    2.344787
    151          1           0      -13.457077   -2.869074    1.645099
    152          1           0      -13.591958    3.153299    2.744721
    153          1           0      -13.277678    3.920277    1.171118
    154          1           0      -12.579107    4.477863    2.792865
    155          1           0       -7.295902    3.037513    3.102991
    156          1           0       -7.145792    7.438362    2.110221
    157          1           0       -7.229661    6.681532    0.508199
    158          1           0       -5.838727    6.764509    1.291789
 ---------------------------------------------------------------------

 SCF Done:  E(RPBE1PBE) =  -4067.37909984     A.U. after   16 cycles

 Excitation energies and oscillator strengths:

 Excited State   1:      Singlet-A      1.8029 eV  687.71 nm  f=0.0000  <S**2>=0.000
     312 -> 313        0.70707
 This state for optimization and/or second-order correction.
 Total Energy, E(TD-HF/TD-DFT) =  -4067.31284565
 Copying the excited state density for this state as the 1-particle RhoCI density.

 Excited State   2:      Singlet-A      1.8556 eV  668.18 nm  f=0.3823  <S**2>=0.000
     310 -> 316        0.16968
     312 -> 314        0.69262
     312 <- 314       -0.10768

 Excited State   3:      Singlet-A      1.8686 eV  663.53 nm  f=0.3641  <S**2>=0.000
     309 -> 315        0.16674
     311 -> 313        0.69359
     311 <- 313       -0.10950

 Excited State   4:      Singlet-A      1.9745 eV  627.93 nm  f=0.0000  <S**2>=0.000
     311 -> 314        0.70709

 Excited State   5:      Singlet-A      2.2281 eV  556.45 nm  f=0.1251  <S**2>=0.000
     310 -> 314        0.65625
     312 -> 316       -0.24644

 The electronic state is 1-A.
 Alpha  occ. eigenvalues --  -46.92046 -46.91525 -19.27245 -19.26776 -19.20257
 Alpha  occ. eigenvalues --  -19.20023 -19.19845 -19.19404 -19.19238 -19.19038
 Alpha  occ. eigenvalues --  -14.42074 -14.41878 -14.41768 -14.40985 -14.39367
 Alpha  occ. eigenvalues --  -14.39204 -14.38699 -14.38347 -10.36599 -10.36287
 Alpha  occ. eigenvalues --  -10.32797 -10.32623 -10.32481 -10.31799 -10.30145
 Alpha  occ. eigenvalues --  -10.29583 -10.29346 -10.29248 -10.28609 -10.28592
 Alpha  occ. eigenvalues --  -10.28549 -10.28296 -10.28256 -10.28081 -10.27785
 Alpha  occ. eigenvalues --  -10.27726 -10.27674 -10.27614 -10.27470 -10.27147
 Alpha  occ. eigenvalues --  -10.26787 -10.26622 -10.26430 -10.26415 -10.26352
 Alpha  occ. eigenvalues --  -10.26287 -10.26034 -10.25983 -10.25758 -10.25742
 Alpha  occ. eigenvalues --  -10.25741 -10.25704 -10.25680 -10.25633 -10.25586
 Alpha  occ. eigenvalues --  -10.25488 -10.25389 -10.25332 -10.25174 -10.25142
 Alpha  occ. eigenvalues --  -10.25135 -10.24960 -10.24843 -10.24775 -10.24770
 Alpha  occ. eigenvalues --  -10.24649 -10.24460 -10.24334 -10.24308 -10.24186
 Alpha  occ. eigenvalues --  -10.23961 -10.23703 -10.23697 -10.23556 -10.23554
 Alpha  occ. eigenvalues --  -10.23526 -10.23446 -10.23354 -10.23232 -10.23123
 Alpha  occ. eigenvalues --  -10.23038 -10.22968 -10.22934 -10.22820 -10.22733
 Alpha  occ. eigenvalues --  -10.22191  -3.14217  -3.13705  -1.87033  -1.86571
 Alpha  occ. eigenvalues --   -1.86547  -1.86467  -1.86057  -1.85951  -1.12920
 Alpha  occ. eigenvalues --   -1.11508  -1.06723  -1.06638  -1.03860  -1.03642
 Alpha  occ. eigenvalues --   -1.03243  -1.02288  -0.98786  -0.98739  -0.97976
 Alpha  occ. eigenvalues --   -0.97944  -0.97589  -0.97339  -0.96482  -0.96038
 Alpha  occ. eigenvalues --   -0.87071  -0.86731  -0.84065  -0.83680  -0.83081
 Alpha  occ. eigenvalues --   -0.82984  -0.82424  -0.82074  -0.81749  -0.81373
 Alpha  occ. eigenvalues --   -0.81124  -0.80944  -0.80860  -0.80419  -0.79153
 Alpha  occ. eigenvalues --   -0.78667  -0.78250  -0.77689  -0.77636  -0.76592
 Alpha  occ. eigenvalues --   -0.76258  -0.75604  -0.75546  -0.75233  -0.74623
 Alpha  occ. eigenvalues --   -0.74244  -0.72185  -0.72103  -0.71758  -0.71427
 Alpha  occ. eigenvalues --   -0.71079  -0.71025  -0.70670  -0.70163  -0.69552
 Alpha  occ. eigenvalues --   -0.69404  -0.67399  -0.67367  -0.66274  -0.65696
 Alpha  occ. eigenvalues --   -0.63655  -0.63273  -0.63127  -0.63122  -0.62386
 Alpha  occ. eigenvalues --   -0.62325  -0.61728  -0.60918  -0.60334  -0.60183
 Alpha  occ. eigenvalues --   -0.60093  -0.59625  -0.59249  -0.59130  -0.59077
 Alpha  occ. eigenvalues --   -0.58432  -0.56968  -0.56946  -0.54758  -0.54499
 Alpha  occ. eigenvalues --   -0.54329  -0.54013  -0.53977  -0.53593  -0.53129
 Alpha  occ. eigenvalues --   -0.52923  -0.52813  -0.52648  -0.51928  -0.51878
 Alpha  occ. eigenvalues --   -0.51042  -0.50754  -0.50662  -0.50355  -0.49686
 Alpha  occ. eigenvalues --   -0.49571  -0.49372  -0.49088  -0.48985  -0.48541
 Alpha  occ. eigenvalues --   -0.48539  -0.47867  -0.47854  -0.47822  -0.47544
 Alpha  occ. eigenvalues --   -0.47050  -0.47043  -0.46859  -0.46856  -0.46557
 Alpha  occ. eigenvalues --   -0.46433  -0.46355  -0.46263  -0.46212  -0.45937
 Alpha  occ. eigenvalues --   -0.45633  -0.45272  -0.45142  -0.45141  -0.44922
 Alpha  occ. eigenvalues --   -0.44578  -0.44485  -0.44470  -0.44469  -0.44116
 Alpha  occ. eigenvalues --   -0.43870  -0.43857  -0.43678  -0.43577  -0.43325
 Alpha  occ. eigenvalues --   -0.43165  -0.43047  -0.43012  -0.42800  -0.42651
 Alpha  occ. eigenvalues --   -0.42507  -0.42301  -0.42230  -0.42120  -0.41768
 Alpha  occ. eigenvalues --   -0.41740  -0.41405  -0.41227  -0.41111  -0.41084
 Alpha  occ. eigenvalues --   -0.40988  -0.40890  -0.40462  -0.40417  -0.40322
 Alpha  occ. eigenvalues --   -0.40145  -0.39998  -0.39795  -0.39722  -0.39686
 Alpha  occ. eigenvalues --   -0.39603  -0.39547  -0.39285  -0.39199  -0.39010
 Alpha  occ. eigenvalues --   -0.38990  -0.38524  -0.38501  -0.38433  -0.38418
 Alpha  occ. eigenvalues --   -0.38221  -0.38213  -0.38002  -0.37938  -0.37818
 Alpha  occ. eigenvalues --   -0.37765  -0.37532  -0.37484  -0.37303  -0.37261
 Alpha  occ. eigenvalues --   -0.36911  -0.36910  -0.36688  -0.36680  -0.36630
 Alpha  occ. eigenvalues --   -0.36271  -0.35740  -0.35723  -0.35638  -0.35285
 Alpha  occ. eigenvalues --   -0.35228  -0.35190  -0.34534  -0.34186  -0.34163
 Alpha  occ. eigenvalues --   -0.33493  -0.33266  -0.32738  -0.32719  -0.32537
 Alpha  occ. eigenvalues --   -0.32299  -0.32126  -0.32007  -0.31866  -0.31597
 Alpha  occ. eigenvalues --   -0.31260  -0.31165  -0.29667  -0.29519  -0.29244
 Alpha  occ. eigenvalues --   -0.29198  -0.28685  -0.28308  -0.27496  -0.27183
 Alpha  occ. eigenvalues --   -0.26260  -0.26190  -0.25868  -0.25632  -0.25630
 Alpha  occ. eigenvalues --   -0.25513  -0.25204  -0.24848  -0.21274  -0.20729
 Alpha  occ. eigenvalues --   -0.18977  -0.18655
 Alpha virt. eigenvalues --   -0.11340  -0.11051  -0.05353  -0.04965  -0.03814
 Alpha virt. eigenvalues --   -0.03680  -0.01959  -0.01789  -0.00612  -0.00383
 Alpha virt. eigenvalues --   -0.00085   0.00455   0.00459   0.01286   0.01549

 Mulliken charges:
               1
     1  Mg  12.000000
     2  C    6.000000
     3  C    6.000000
     4  C    6.000000
     5  C    6.000000
     6  N    7.000000
     7  C    6.000000
     8  C    6.000000
     9  C    6.000000
    10  C    6.000000
    11  C    6.000000
    12  C    6.000000
    13  C    6.000000
    14  H    1.000000
    15  N    7.000000
    16  C    6.000000
    17  C    6.000000
    18  C    6.000000
    19  C    6.000000
    20  C    6.000000
    21  C    6.000000
    22  O    8.000000
    23  C    6.000000
    24  N    7.000000
    25  C    6.000000
    26  C    6.000000
    27  C    6.000000
    28  C    6.000000
    29  C    6.000000
    30  C    6.000000
    31  C    6.000000
    32  N    7.000000
    33  C    6.000000
    34  C    6.000000
    35  C    6.000000
    36  C    6.000000
    37  C    6.000000
    38  C    6.000000
    39  O    8.000000
    40  C    6.000000
    41  C    6.000000
    42  O    8.000000
    43  O    8.000000
    44  C    6.000000
    45  H    1.000000
    46  H    1.000000
    47  H    1.000000
    48  H    1.000000
    49  H    1.000000
    50  H    1.000000
    51  H    1.000000
    52  H    1.000000
    53  H    1.000000
    54  H    1.000000
    55  H    1.000000
    56  H    1.000000
    57  H    1.000000
    58  H    1.000000
    59  H    1.000000
    60  H    1.000000
    61  H    1.000000
    62  H    1.000000
    63  H    1.000000
    64  H    1.000000
    65  H    1.000000
    66  H    1.000000
    67  H    1.000000
    68  H    1.000000
    69  H    1.000000
    70  H    1.000000
    71  H    1.000000
    72  H    1.000000
    73  H    1.000000
    74  H    1.000000
    75  H    1.000000
    76  H    1.000000
    77  H    1.000000
    78  H    1.000000
    79  H    1.000000
    80  Mg  12.000000
    81  C    6.000000
    82  C    6.000000
    83  C    6.000000
    84  C    6.000000
    85  N    7.000000
    86  C    6.000000
    87  C    6.000000
    88  C    6.000000
    89  C    6.000000
    90  C    6.000000
    91  C    6.000000
    92  C    6.000000
    93  H    1.000000
    94  N    7.000000
    95  C    6.000000
    96  C    6.000000
    97  C    6.000000
    98  C    6.000000
    99  C    6.000000
   100  C    6.000000
   101  O    8.000000
   102  C    6.000000
   103  N    7.000000
   104  C    6.000000
   105  C    6.000000
   106  C    6.000000
   107  C    6.000000
   108  C    6.000000
   109  C    6.000000
   110  C    6.000000
   111  N    7.000000
   112  C    6.000000
   113  C    6.000000
   114  C    6.000000
   115  C    6.000000
   116  C    6.000000
   117  C    6.000000
   118  O    8.000000
   119  C    6.000000
   120  C    6.000000
   121  O    8.000000
   122  O    8.000000
   123  C    6.000000
   124  H    1.000000
   125  H    1.000000
   126  H    1.000000
   127  H    1.000000
   128  H    1.000000
   129  H    1.000000
   130  H    1.000000
   131  H    1.000000
   132  H    1.000000
   133  H    1.000000
   134  H    1.000000
   135  H    1.000000
   136  H    1.000000
   137  H    1.000000
   138  H    1.000000
   139  H    1.000000
   140  H    1.000000
   141  H    1.000000
   142  H    1.000000
   143  H    1.000000
   144  H    1.000000
   145  H    1.000000
   146  H    1.000000
   147  H    1.000000
   148  H    1.000000
   149  H    1.000000
   150  H    1.000000
   151  H    1.000000
   152  H    1.000000
   153  H    1.000000
   154  H    1.000000
   155  H    1.000000
   156  H    1.000000
   157  H    1.000000
   158  H    1.000000
 Sum of Mulliken charges = 624.00000

 Dipole moment (field-independent basis, Debye):
    X=             -0.0000    Y=             -0.0000    Z=              0.0000  Tot=              0.0000
 Quadrupole moment (field-independent basis, Debye-Ang):
   XX=             -0.0000   YY=             -0.0000   ZZ=             -0.0000
   XY=             -0.0000   XZ=              0.0000   YZ=             -0.0000

 Normal termination of Gaussian 16 at Thu Oct 14 20:14:33 2021.
