 Gaussian 16, Revision A.03,
 Gaussian 16:  ES64L-G16RevA.03 25-Dec-2016

 --------------------------------------------------------
 #p PBE1PBE/Def2SVP td=(nstates=5) density=(transition=1)
 --------------------------------------------------------

 --------------------------------
 TDDFT excited states in gaussian
 --------------------------------
 Symbolic Z-matrix:
 Charge =  0 Multiplicity = 1

                         Standard orientation:
 ---------------------------------------------------------------------
 Center     Atomic      Atomic             Coordinates (Angstroms)
 Number     Number       Type             X           Y           Z
 ---------------------------------------------------------------------
      1         12           0      -28.125584    0.203110    0.027539
      2          6           0      -25.255222   -1.690046   -0.076616
      3          6           0      -26.342904    3.113741   -0.251172
      4          6           0      -31.073569    2.093339   -0.060934
      5          6           0      -30.032625   -2.618738   -0.543934
      6          7           0      -26.023124    0.565497   -0.359270
      7          6           0      -24.954804   -0.319352   -0.189496
      8          6           0      -23.609956    0.378265   -0.408558
      9          6           0      -24.064498    1.853468   -0.270053
     10          6           0      -25.602417    1.890287   -0.382193
     11          6           0      -23.472881    2.555931    0.971567
     12          6           0      -22.992652    0.038839   -1.779721
     13          6           0      -21.449391   -0.235050   -1.812462
     14          1           0      -20.746174    0.140058   -3.058136
     15          7           0      -28.605444    2.267455   -0.076921
     16          6           0      -27.739928    3.306889   -0.093672
     17          6           0      -28.379603    4.570312    0.120778
     18          6           0      -29.743961    4.300696    0.317372
     19          6           0      -29.869195    2.802281    0.084993
     20          6           0      -27.638030    5.899895    0.273430
     21          6           0      -30.880936    5.339821    0.630032
     22          8           0      -30.587803    6.562830    0.634796
     23          6           0      -32.365476    4.932095    1.024406
     24          7           0      -30.231765   -0.175923   -0.561634
     25          6           0      -31.227265    0.722778   -0.366630
     26          6           0      -32.600244    0.107969   -0.458737
     27          6           0      -32.299108   -1.392582   -0.662312
     28          6           0      -30.773013   -1.424756   -0.546620
     29          6           0      -33.547455    0.440830    0.741444
     30          6           0      -32.936645   -1.989871   -2.005986
     31          6           0      -34.170094   -2.874492   -1.790630
     32          7           0      -27.771056   -1.769404   -0.200909
     33          6           0      -28.639111   -2.865207   -0.401552
     34          6           0      -27.885259   -4.115581   -0.240883
     35          6           0      -26.584344   -3.675742   -0.039629
     36          6           0      -26.579766   -2.275788   -0.153614
     37          6           0      -28.345657   -5.527929   -0.303710
     38          6           0      -25.206768   -4.140656    0.176307
     39          8           0      -24.748216   -5.251634    0.489529
     40          6           0      -24.283205   -2.857446    0.206278
     41          6           0      -23.579253   -2.711418    1.548676
     42          8           0      -24.069721   -2.837062    2.675193
     43          8           0      -22.280728   -2.482163    1.202613
     44          6           0      -21.312556   -2.471635    2.286436
     45          1           0      -25.785425    4.048993   -0.333598
     46          1           0      -32.059438    2.560344   -0.010589
     47          1           0      -30.576876   -3.550262   -0.711763
     48          1           0      -22.904049    0.059441    0.359069
     49          1           0      -23.632801    2.329981   -1.150155
     50          1           0      -22.572151    2.155750    1.436966
     51          1           0      -24.234343    2.465995    1.746139
     52          1           0      -23.250622    3.606145    0.783945
     53          1           0      -23.240898    0.770045   -2.548534
     54          1           0      -23.568858   -0.813184   -2.141282
     55          1           0      -21.275042   -1.295164   -1.628652
     56          1           0      -20.976563    0.368334   -1.036307
     57          1           0      -27.940165    6.292224    1.244193
     58          1           0      -27.768268    6.498796   -0.628016
     59          1           0      -26.591314    5.613820    0.376239
     60          1           0      -32.894640    4.778898    0.084596
     61          1           0      -32.784243    5.789379    1.550957
     62          1           0      -32.275777    4.142938    1.771411
     63          1           0      -33.087282    0.508996   -1.347690
     64          1           0      -32.552415   -2.054596    0.165413
     65          1           0      -34.062658   -0.448147    1.104256
     66          1           0      -34.305856    1.180216    0.484726
     67          1           0      -32.969458    0.930362    1.524180
     68          1           0      -32.246276   -2.642439   -2.540290
     69          1           0      -33.143750   -1.184401   -2.710476
     70          1           0      -34.899299   -2.685499   -2.578637
     71          1           0      -34.621405   -2.647125   -0.825094
     72          1           0      -33.953085   -3.942501   -1.785571
     73          1           0      -29.431921   -5.512354   -0.392755
     74          1           0      -27.863865   -6.111487    0.481038
     75          1           0      -28.015650   -5.905013   -1.272294
     76          1           0      -23.554210   -2.850898   -0.604482
     77          1           0      -21.637014   -1.910888    3.163935
     78          1           0      -20.307961   -2.120456    2.050797
     79          1           0      -21.122816   -3.492799    2.618066
     80         12           0       28.277927    0.053557    0.242204
     81          6           0       24.769533   -0.204359    0.023718
     82          6           0       28.397223   -3.274176   -0.153527
     83          6           0       31.505388    0.476775   -0.049338
     84          6           0       27.813346    3.582867   -0.071810
     85          7           0       26.736004   -1.533678   -0.077814
     86          6           0       25.383836   -1.463103   -0.057772
     87          6           0       24.702202   -2.810739   -0.181263
     88          6           0       25.940842   -3.767277    0.046187
     89          6           0       27.134459   -2.842745   -0.075242
     90          6           0       25.937148   -4.547731    1.425034
     91          6           0       23.872015   -3.215493   -1.476583
     92          6           0       23.999477   -2.420754   -2.803329
     93          1           0       23.858577   -3.215029   -4.155380
     94          7           0       29.756229   -1.306472    0.067912
     95          6           0       29.627250   -2.601207   -0.189075
     96          6           0       30.976519   -3.181989   -0.428510
     97          6           0       31.928984   -2.054181   -0.223536
     98          6           0       31.056484   -0.889569   -0.070721
     99          6           0       31.241337   -4.652374   -0.609436
    100          6           0       33.430042   -2.141911   -0.313916
    101          8           0       33.946043   -3.241649   -0.497302
    102          6           0       34.420772   -0.921133   -0.256581
    103          7           0       29.543527    1.840566   -0.145055
    104          6           0       30.812002    1.645114   -0.036015
    105          6           0       31.516969    3.074107   -0.047667
    106          6           0       30.313299    3.983652   -0.302771
    107          6           0       29.105192    3.074457   -0.185444
    108          6           0       32.367738    3.499665    1.160581
    109          6           0       30.254263    4.574495   -1.805478
    110          6           0       30.446887    6.094947   -1.953043
    111          7           0       26.697262    1.444746   -0.041304
    112          6           0       26.637838    2.813231   -0.025661
    113          6           0       25.233027    3.274873    0.120786
    114          6           0       24.420680    2.110371    0.017216
    115          6           0       25.408534    1.032969    0.033840
    116          6           0       24.727406    4.734725    0.138050
    117          6           0       23.106706    1.562543   -0.042644
    118          8           0       21.969665    2.046843   -0.174959
    119          6           0       23.266046    0.022861    0.036208
    120          6           0       22.497691   -0.438633    1.277968
    121          8           0       21.452277   -1.014504    1.423261
    122          8           0       23.336237   -0.264186    2.384280
    123          6           0       22.847016   -0.755446    3.709866
    124          1           0       28.406146   -4.357519   -0.291818
    125          1           0       32.592984    0.563858   -0.108973
    126          1           0       27.698207    4.655367    0.096173
    127          1           0       24.069309   -2.878468    0.703402
    128          1           0       25.947866   -4.535008   -0.727669
    129          1           0       25.086257   -4.251729    2.037688
    130          1           0       26.803142   -4.110813    1.921076
    131          1           0       25.995903   -5.620395    1.239619
    132          1           0       22.822176   -3.225806   -1.183322
    133          1           0       24.083522   -4.257965   -1.716929
    134          1           0       24.989320   -1.965074   -2.776537
    135          1           0       23.189722   -1.711315   -2.971109
    136          1           0       32.293250   -4.916591   -0.502989
    137          1           0       30.767737   -4.934120   -1.550620
    138          1           0       30.605845   -5.120827    0.142820
    139          1           0       34.379102   -0.199353    0.560009
    140          1           0       34.231913   -0.295026   -1.128610
    141          1           0       35.462878   -1.239388   -0.255129
    142          1           0       32.250446    3.149151   -0.849753
    143          1           0       30.183450    4.871747    0.316697
    144          1           0       32.412967    2.719155    1.920261
    145          1           0       32.022588    4.443263    1.584514
    146          1           0       33.416663    3.666749    0.915736
    147          1           0       29.294317    4.374979   -2.279742
    148          1           0       31.028620    4.040670   -2.356814
    149          1           0       29.895060    6.561484   -2.769465
    150          1           0       31.502651    6.225195   -2.190578
    151          1           0       30.117395    6.482000   -0.988744
    152          1           0       25.457267    5.479920   -0.176619
    153          1           0       24.472959    4.911338    1.182830
    154          1           0       23.794173    4.776586   -0.423033
    155          1           0       22.828791   -0.430683   -0.852676
    156          1           0       21.774598   -0.752291    3.903593
    157          1           0       23.265802   -0.032652    4.409819
    158          1           0       23.207215   -1.718113    4.073244
 ---------------------------------------------------------------------

 SCF Done:  E(RPBE1PBE) =  -4067.37784829     A.U. after   16 cycles

 Excitation energies and oscillator strengths:

 Excited State   1:      Singlet-A      1.8386 eV  674.36 nm  f=0.3513  <S**2>=0.000
     310 -> 316       -0.16807
     312 -> 314        0.69270
     312 <- 314       -0.10467
 This state for optimization and/or second-order correction.
 Total Energy, E(TD-HF/TD-DFT) =  -4067.31028266
 Copying the excited state density for this state as the 1-particle RhoCI density.

 Excited State   2:      Singlet-A      1.9112 eV  648.73 nm  f=0.3979  <S**2>=0.000
     309 -> 315        0.17705
     311 -> 313        0.69114
     311 <- 313       -0.10568

 Excited State   3:      Singlet-A      1.9186 eV  646.24 nm  f=0.0000  <S**2>=0.000
     312 -> 313        0.70711

 Excited State   4:      Singlet-A      2.1330 eV  581.28 nm  f=0.0000  <S**2>=0.000
     311 -> 314        0.70711

 Excited State   5:      Singlet-A      2.2417 eV  553.07 nm  f=0.0973  <S**2>=0.000
     310 -> 314        0.64073
     312 -> 316        0.28287

 The electronic state is 1-A.
 Alpha  occ. eigenvalues --  -46.93461 -46.92568 -19.27065 -19.25214 -19.20580
 Alpha  occ. eigenvalues --  -19.20567 -19.19689 -19.19526 -19.18972 -19.18900
 Alpha  occ. eigenvalues --  -14.41988 -14.41832 -14.41629 -14.41306 -14.40013
 Alpha  occ. eigenvalues --  -14.39885 -14.39710 -14.38875 -10.37039 -10.36857
 Alpha  occ. eigenvalues --  -10.33688 -10.32920 -10.32667 -10.32105 -10.29709
 Alpha  occ. eigenvalues --  -10.29291 -10.29112 -10.29065 -10.29003 -10.28999
 Alpha  occ. eigenvalues --  -10.28732 -10.28717 -10.28680 -10.28553 -10.28507
 Alpha  occ. eigenvalues --  -10.28466 -10.27942 -10.27802 -10.27794 -10.27709
 Alpha  occ. eigenvalues --  -10.27634 -10.27630 -10.26861 -10.26744 -10.26597
 Alpha  occ. eigenvalues --  -10.26488 -10.26366 -10.26336 -10.25957 -10.25944
 Alpha  occ. eigenvalues --  -10.25922 -10.25895 -10.25853 -10.25799 -10.25755
 Alpha  occ. eigenvalues --  -10.25741 -10.25712 -10.25695 -10.25591 -10.25471
 Alpha  occ. eigenvalues --  -10.25438 -10.25241 -10.25226 -10.25146 -10.24943
 Alpha  occ. eigenvalues --  -10.24801 -10.24780 -10.24699 -10.24627 -10.24607
 Alpha  occ. eigenvalues --  -10.24461 -10.24385 -10.24205 -10.24178 -10.24145
 Alpha  occ. eigenvalues --  -10.24038 -10.24037 -10.23998 -10.23678 -10.23577
 Alpha  occ. eigenvalues --  -10.23514 -10.23446 -10.23228 -10.23214 -10.23016
 Alpha  occ. eigenvalues --  -10.22598  -3.15520  -3.14679  -1.88348  -1.87893
 Alpha  occ. eigenvalues --   -1.87746  -1.87485  -1.87040  -1.86932  -1.11674
 Alpha  occ. eigenvalues --   -1.10757  -1.04454  -1.03889  -1.03245  -1.03125
 Alpha  occ. eigenvalues --   -1.02659  -1.02065  -1.01403  -0.99431  -0.99414
 Alpha  occ. eigenvalues --   -0.98724  -0.98707  -0.98032  -0.98007  -0.96732
 Alpha  occ. eigenvalues --   -0.87850  -0.85865  -0.84175  -0.83184  -0.83168
 Alpha  occ. eigenvalues --   -0.83090  -0.82959  -0.82877  -0.82631  -0.81762
 Alpha  occ. eigenvalues --   -0.81244  -0.81109  -0.80572  -0.79896  -0.79195
 Alpha  occ. eigenvalues --   -0.78565  -0.78212  -0.78195  -0.77175  -0.76780
 Alpha  occ. eigenvalues --   -0.76028  -0.75780  -0.75309  -0.75118  -0.74787
 Alpha  occ. eigenvalues --   -0.74515  -0.72839  -0.72322  -0.71987  -0.71717
 Alpha  occ. eigenvalues --   -0.71337  -0.70973  -0.70947  -0.70232  -0.69792
 Alpha  occ. eigenvalues --   -0.69606  -0.67744  -0.67197  -0.66890  -0.66139
 Alpha  occ. eigenvalues --   -0.64014  -0.63586  -0.63534  -0.63360  -0.63068
 Alpha  occ. eigenvalues --   -0.62334  -0.62073  -0.61563  -0.61315  -0.60564
 Alpha  occ. eigenvalues --   -0.60169  -0.60000  -0.59662  -0.59421  -0.59416
 Alpha  occ. eigenvalues --   -0.59121  -0.57665  -0.57326  -0.55133  -0.54895
 Alpha  occ. eigenvalues --   -0.54485  -0.54177  -0.54049  -0.53541  -0.53191
 Alpha  occ. eigenvalues --   -0.53184  -0.52744  -0.52336  -0.51759  -0.51672
 Alpha  occ. eigenvalues --   -0.51025  -0.50497  -0.50415  -0.50410  -0.50145
 Alpha  occ. eigenvalues --   -0.49800  -0.49610  -0.49567  -0.49064  -0.48514
 Alpha  occ. eigenvalues --   -0.48400  -0.48277  -0.47942  -0.47840  -0.47536
 Alpha  occ. eigenvalues --   -0.47373  -0.47271  -0.46967  -0.46620  -0.46594
 Alpha  occ. eigenvalues --   -0.46304  -0.46133  -0.46099  -0.45893  -0.45752
 Alpha  occ. eigenvalues --   -0.45734  -0.45638  -0.45546  -0.45464  -0.45213
 Alpha  occ. eigenvalues --   -0.44661  -0.44579  -0.44422  -0.44102  -0.44077
 Alpha  occ. eigenvalues --   -0.43959  -0.43713  -0.43671  -0.43485  -0.43225
 Alpha  occ. eigenvalues --   -0.43199  -0.43147  -0.42910  -0.42846  -0.42759
 Alpha  occ. eigenvalues --   -0.42607  -0.42499  -0.42325  -0.42234  -0.42179
 Alpha  occ. eigenvalues --   -0.42106  -0.41978  -0.41891  -0.41695  -0.41499
 Alpha  occ. eigenvalues --   -0.41352  -0.41288  -0.41145  -0.41097  -0.40777
 Alpha  occ. eigenvalues --   -0.40689  -0.40588  -0.40376  -0.40235  -0.40124
 Alpha  occ. eigenvalues --   -0.40059  -0.39665  -0.39529  -0.39182  -0.39022
 Alpha  occ. eigenvalues --   -0.38810  -0.38735  -0.38676  -0.38560  -0.38399
 Alpha  occ. eigenvalues --   -0.38285  -0.38167  -0.38143  -0.37919  -0.37710
 Alpha  occ. eigenvalues --   -0.37693  -0.37314  -0.37124  -0.37050  -0.36980
 Alpha  occ. eigenvalues --   -0.36969  -0.36853  -0.36752  -0.36491  -0.36309
 Alpha  occ. eigenvalues --   -0.36146  -0.36070  -0.35814  -0.35746  -0.35599
 Alpha  occ. eigenvalues --   -0.35538  -0.34902  -0.34662  -0.34234  -0.34113
 Alpha  occ. eigenvalues --   -0.33823  -0.33641  -0.33360  -0.33269  -0.33103
 Alpha  occ. eigenvalues --   -0.32699  -0.32369  -0.31975  -0.31912  -0.31541
 Alpha  occ. eigenvalues --   -0.31461  -0.31318  -0.30060  -0.30042  -0.29744
 Alpha  occ. eigenvalues --   -0.29419  -0.29095  -0.28660  -0.27439  -0.26949
 Alpha  occ. eigenvalues --   -0.26585  -0.26250  -0.26154  -0.25899  -0.25761
 Alpha  occ. eigenvalues --   -0.25605  -0.25391  -0.25070  -0.21420  -0.21077
 Alpha  occ. eigenvalues --   -0.19188  -0.18719
 Alpha virt. eigenvalues --   -0.11432  -0.11115  -0.05534  -0.05526  -0.04782
 Alpha virt. eigenvalues --   -0.03985  -0.02658  -0.02486  -0.01454  -0.01107
 Alpha virt. eigenvalues --    0.00172   0.00245   0.00517   0.00701   0.01251

 Mulliken charges:
               1
     1  Mg  11.998965
     2  C    6.026934
     3  C    5.990883
     4  C    5.975617
     5  C    5.999408
     6  N    7.015707
     7  C    5.965576
     8  C    6.007380
     9  C    5.991605
    10  C    6.030274
    11  C    5.997057
    12  C    5.999619
    13  C    6.001333
    14  H    0.996257
    15  N    6.995513
    16  C    6.032809
    17  C    6.020292
    18  C    6.012156
    19  C    6.037371
    20  C    5.998244
    21  C    6.011089
    22  O    8.020706
    23  C    6.001988
    24  N    6.993135
    25  C    6.034722
    26  C    5.989222
    27  C    6.007781
    28  C    5.968540
    29  C    5.999346
    30  C    6.003099
    31  C    6.000561
    32  N    6.999998
    33  C    5.964363
    34  C    5.976036
    35  C    5.996727
    36  C    5.973520
    37  C    6.001745
    38  C    5.982700
    39  O    7.969683
    40  C    5.999481
    41  C    5.994566
    42  O    7.997648
    43  O    7.998425
    44  C    6.001592
    45  H    1.010230
    46  H    1.005352
    47  H    0.987245
    48  H    1.001784
    49  H    1.004998
    50  H    1.012684
    51  H    1.000766
    52  H    0.999207
    53  H    0.991681
    54  H    1.007264
    55  H    1.004732
    56  H    0.996153
    57  H    1.013698
    58  H    1.016173
    59  H    1.014848
    60  H    1.009912
    61  H    1.010603
    62  H    1.008277
    63  H    1.000779
    64  H    1.002434
    65  H    1.009558
    66  H    0.997621
    67  H    0.996608
    68  H    1.003101
    69  H    0.988975
    70  H    0.994723
    71  H    0.994756
    72  H    1.002007
    73  H    0.985303
    74  H    0.984967
    75  H    0.981643
    76  H    0.992632
    77  H    0.995140
    78  H    0.994925
    79  H    0.999543
    80  Mg  12.000008
    81  C    5.999935
    82  C    6.000027
    83  C    6.000039
    84  C    5.999977
    85  N    6.999970
    86  C    6.000040
    87  C    5.999997
    88  C    6.000011
    89  C    6.000000
    90  C    5.999995
    91  C    6.000004
    92  C    5.999983
    93  H    1.000020
    94  N    7.000037
    95  C    6.000035
    96  C    6.000029
    97  C    6.000024
    98  C    6.000002
    99  C    5.999971
   100  C    5.999999
   101  O    8.000017
   102  C    5.999994
   103  N    7.000033
   104  C    6.000006
   105  C    5.999978
   106  C    5.999997
   107  C    5.999976
   108  C    6.000004
   109  C    6.000011
   110  C    5.999998
   111  N    6.999954
   112  C    5.999966
   113  C    5.999961
   114  C    5.999964
   115  C    6.000020
   116  C    6.000030
   117  C    5.999982
   118  O    7.999978
   119  C    6.000030
   120  C    5.999993
   121  O    8.000009
   122  O    7.999997
   123  C    6.000009
   124  H    1.000023
   125  H    0.999977
   126  H    0.999973
   127  H    1.000010
   128  H    1.000013
   129  H    1.000022
   130  H    0.999989
   131  H    1.000023
   132  H    1.000016
   133  H    1.000010
   134  H    0.999987
   135  H    1.000004
   136  H    1.000017
   137  H    1.000029
   138  H    1.000030
   139  H    1.000005
   140  H    1.000004
   141  H    1.000008
   142  H    0.999997
   143  H    0.999989
   144  H    0.999999
   145  H    0.999995
   146  H    0.999993
   147  H    1.000006
   148  H    0.999987
   149  H    0.999988
   150  H    0.999988
   151  H    0.999994
   152  H    0.999967
   153  H    0.999971
   154  H    0.999975
   155  H    1.000009
   156  H    1.000004
   157  H    0.999985
   158  H    1.000002
 Sum of Mulliken charges = 624.00000

 Dipole moment (field-independent basis, Debye):
    X=             -1.3992    Y=              9.9255    Z=              0.5426  Tot=             10.0383
 Quadrupole moment (field-independent basis, Debye-Ang):
   XX=             77.2331   YY=              5.1774   ZZ=             -0.5889
   XY=           -280.9460   XZ=            -18.0483   YZ=              0.8147

 Normal termination of Gaussian 16 at Fri Oct 15 16:47:38 2021.
