 Gaussian 16, Revision A.03,
 Gaussian 16:  ES64L-G16RevA.03 25-Dec-2016

 --------------------------------------------------------
 #p PBE1PBE/Def2SVP td=(nstates=5) density=(transition=1)
 --------------------------------------------------------

 --------------------------------
 TDDFT excited states in gaussian
 --------------------------------
 Symbolic Z-matrix:
 Charge =  0 Multiplicity = 1

                         Standard orientation:
 ---------------------------------------------------------------------
 Center     Atomic      Atomic             Coordinates (Angstroms)
 Number     Number       Type             X           Y           Z
 ---------------------------------------------------------------------
      1         12           0      -12.035476    0.136319   -0.552092
      2          6           0       -9.009545   -1.524293   -0.676751
      3          6           0      -13.597120   -2.924217   -0.340641
      4          6           0      -14.969418    1.769677    0.171326
      5          6           0      -10.391798    3.159441   -0.653300
      6          7           0      -11.377834   -1.948336   -0.312626
      7          6           0      -10.072275   -2.370131   -0.469760
      8          6           0       -9.954179   -3.890618   -0.406629
      9          6           0      -11.450040   -4.320018   -0.643572
     10          6           0      -12.176925   -3.010716   -0.373471
     11          6           0      -11.798283   -5.030501   -2.029274
     12          6           0       -9.283445   -4.482841    0.873734
     13          6           0       -8.262306   -5.575188    0.635791
     14          1           0       -8.753521   -6.933053    1.112986
     15          7           0      -13.963784   -0.516850   -0.136155
     16          6           0      -14.404173   -1.780016   -0.123491
     17          6           0      -15.840164   -1.823510    0.091584
     18          6           0      -16.339922   -0.542465    0.256287
     19          6           0      -15.086067    0.321109    0.154179
     20          6           0      -16.652435   -3.199357    0.215405
     21          6           0      -17.840604   -0.127463    0.424266
     22          8           0      -18.714511   -1.036458    0.505663
     23          6           0      -18.254247    1.289560    0.540740
     24          7           0      -12.595968    2.235231   -0.023876
     25          6           0      -13.839188    2.651247    0.051701
     26          6           0      -13.967095    4.152504   -0.100955
     27          6           0      -12.513678    4.708019   -0.281397
     28          6           0      -11.750013    3.303781   -0.407889
     29          6           0      -15.091164    4.753328   -1.004108
     30          6           0      -11.873995    5.618218    0.806817
     31          6           0      -10.672953    6.390298    0.301069
     32          7           0      -10.056664    0.725670   -0.636297
     33          6           0       -9.516243    2.026558   -0.759976
     34          6           0       -8.099518    1.897008   -0.966287
     35          6           0       -7.825766    0.507544   -0.979198
     36          6           0       -9.049024   -0.109422   -0.732278
     37          6           0       -7.136524    3.005779   -1.363902
     38          6           0       -6.798834   -0.395296   -1.150671
     39          8           0       -5.605359   -0.324807   -1.263439
     40          6           0       -7.497379   -1.812895   -0.811214
     41          6           0       -7.049274   -2.108771    0.619244
     42          8           0       -7.535591   -1.634477    1.627769
     43          8           0       -5.985906   -2.992438    0.528985
     44          6           0       -5.327530   -3.328057    1.787374
     45          1           0      -14.161756   -3.849670   -0.470465
     46          1           0      -15.937655    2.223906    0.390473
     47          1           0       -9.757394    4.029166   -0.836433
     48          1           0       -9.398197   -4.210345   -1.287492
     49          1           0      -11.744065   -4.909780    0.225425
     50          1           0      -12.863336   -4.817827   -2.121008
     51          1           0      -11.769088   -6.119826   -1.994115
     52          1           0      -11.232370   -4.708703   -2.903403
     53          1           0      -10.130404   -4.877718    1.435203
     54          1           0       -8.918535   -3.771697    1.614538
     55          1           0       -7.351768   -5.285994    1.161061
     56          1           0       -8.020171   -5.697815   -0.420062
     57          1           0      -16.045601   -4.104080    0.159650
     58          1           0      -17.419363   -3.261442   -0.557372
     59          1           0      -17.104445   -3.342158    1.195953
     60          1           0      -17.953830    1.830891   -0.355817
     61          1           0      -17.953154    1.718894    1.496401
     62          1           0      -19.334379    1.257516    0.403455
     63          1           0      -14.197337    4.699811    0.813358
     64          1           0      -12.328200    5.071211   -1.292509
     65          1           0      -15.772161    3.928817   -1.219577
     66          1           0      -14.716627    5.288292   -1.877586
     67          1           0      -15.708854    5.503555   -0.510219
     68          1           0      -11.655680    4.966172    1.652449
     69          1           0      -12.693200    6.258505    1.133820
     70          1           0      -10.638196    7.334315    0.845448
     71          1           0      -10.687298    6.632213   -0.762311
     72          1           0       -9.764297    5.870386    0.604715
     73          1           0       -6.151571    2.648384   -1.664434
     74          1           0       -7.065623    3.696207   -0.524435
     75          1           0       -7.525994    3.586836   -2.199912
     76          1           0       -7.271549   -2.559968   -1.572747
     77          1           0       -4.847225   -2.438087    2.194354
     78          1           0       -4.623748   -4.151351    1.669860
     79          1           0       -6.078165   -3.614130    2.523592
     80         12           0       11.017336    0.909823   -0.199040
     81          6           0       12.994663   -2.083763   -0.145848
     82          6           0        8.528398   -1.039686    1.463632
     83          6           0        9.404745    3.681760    0.803347
     84          6           0       13.812901    2.654888   -1.113302
     85          7           0       10.851464   -1.266456    0.572175
     86          6           0       11.749411   -2.287496    0.459707
     87          6           0       11.201251   -3.618892    1.082153
     88          6           0        9.637729   -3.281838    1.194344
     89          6           0        9.689435   -1.762962    1.150236
     90          6           0        8.792695   -3.815496    0.060419
     91          6           0       11.944298   -4.051653    2.335240
     92          6           0       12.316966   -5.551420    2.465009
     93          1           0       11.445897   -6.539050    3.372582
     94          7           0        9.108580    1.303070    0.918080
     95          6           0        8.217775    0.330519    1.418237
     96          6           0        7.043600    1.011534    1.977377
     97          6           0        7.282619    2.421957    1.737940
     98          6           0        8.632112    2.534635    1.227746
     99          6           0        5.893726    0.386617    2.673573
    100          6           0        6.282112    3.523593    1.982596
    101          8           0        5.145257    3.211435    2.257092
    102          6           0        6.597932    4.998987    1.895853
    103          7           0       11.613798    2.799438   -0.072996
    104          6           0       10.680408    3.786605    0.230434
    105          6           0       11.383135    5.138688    0.087811
    106          6           0       12.691567    4.805120   -0.718214
    107          6           0       12.687079    3.314368   -0.672231
    108          6           0       10.553948    6.353114   -0.470234
    109          6           0       14.026833    5.466487   -0.257864
    110          6           0       14.807296    6.245015   -1.266199
    111          7           0       12.954520    0.443583   -0.679232
    112          6           0       13.989550    1.251587   -1.116543
    113          6           0       15.118274    0.436880   -1.606331
    114          6           0       14.752481   -0.892589   -1.161523
    115          6           0       13.469168   -0.795380   -0.614977
    116          6           0       16.389169    0.851201   -2.300097
    117          6           0       15.227379   -2.307577   -1.144473
    118          8           0       16.278727   -2.780742   -1.470105
    119          6           0       14.144285   -3.066757   -0.384913
    120          6           0       13.696535   -4.209325   -1.246763
    121          8           0       13.125055   -3.967218   -2.288123
    122          8           0       13.898444   -5.516011   -0.709322
    123          6           0       13.274016   -6.648855   -1.457682
    124          1           0        7.721504   -1.611881    1.926546
    125          1           0        9.009953    4.670308    1.043770
    126          1           0       14.610084    3.233391   -1.584147
    127          1           0       11.210411   -4.436465    0.361898
    128          1           0        9.241390   -3.552115    2.173029
    129          1           0        8.889650   -3.138188   -0.787769
    130          1           0        7.774395   -3.908995    0.437555
    131          1           0        9.039847   -4.787416   -0.367919
    132          1           0       11.274304   -3.840250    3.168046
    133          1           0       12.772038   -3.358870    2.486655
    134          1           0       13.334002   -5.516143    2.856252
    135          1           0       12.370692   -6.067960    1.506598
    136          1           0        5.102072    0.297087    1.930300
    137          1           0        5.498482    1.087176    3.409232
    138          1           0        6.012109   -0.570970    3.182053
    139          1           0        5.796852    5.666891    2.211910
    140          1           0        6.795038    5.191110    0.841107
    141          1           0        7.490212    5.384043    2.388090
    142          1           0       11.537210    5.411554    1.132199
    143          1           0       12.491742    4.984882   -1.774133
    144          1           0        9.677457    6.001975   -1.015474
    145          1           0       11.187770    7.002267   -1.074089
    146          1           0       10.230677    6.994814    0.349119
    147          1           0       14.676463    4.693498    0.152579
    148          1           0       13.796012    6.071165    0.619069
    149          1           0       15.690959    5.673993   -1.550336
    150          1           0       15.145518    7.181191   -0.822243
    151          1           0       14.307668    6.507134   -2.198561
    152          1           0       16.827183    0.015989   -2.846216
    153          1           0       17.060237    1.213895   -1.520991
    154          1           0       16.163743    1.725007   -2.911716
    155          1           0       14.553876   -3.327962    0.590964
    156          1           0       13.895442   -6.892261   -2.319642
    157          1           0       12.302200   -6.361467   -1.858470
    158          1           0       13.137429   -7.513197   -0.808077
 ---------------------------------------------------------------------

 SCF Done:  E(RPBE1PBE) =  -4067.37330143     A.U. after   17 cycles

 Excitation energies and oscillator strengths:

 Excited State   1:      Singlet-A      1.8359 eV  675.35 nm  f=0.4620  <S**2>=0.000
     309 -> 316        0.16328
     312 -> 313        0.69324
     312 <- 313       -0.11882
 This state for optimization and/or second-order correction.
 Total Energy, E(TD-HF/TD-DFT) =  -4067.30583514
 Copying the excited state density for this state as the 1-particle RhoCI density.

 Excited State   2:      Singlet-A      1.8858 eV  657.48 nm  f=0.3012  <S**2>=0.000
     310 -> 315        0.14429
     311 -> 314        0.68890

 Excited State   3:      Singlet-A      1.9059 eV  650.53 nm  f=0.0000  <S**2>=0.000
     311 -> 313        0.70708

 Excited State   4:      Singlet-A      1.9217 eV  645.17 nm  f=0.0000  <S**2>=0.000
     312 -> 314        0.70708

 Excited State   5:      Singlet-A      2.2299 eV  556.00 nm  f=0.0959  <S**2>=0.000
     310 -> 314        0.65553
     311 -> 315       -0.21939
     311 -> 317       -0.11514

 The electronic state is 1-A.
 Alpha  occ. eigenvalues --  -46.92742 -46.92622 -19.25767 -19.25253 -19.20763
 Alpha  occ. eigenvalues --  -19.20206 -19.20034 -19.19729 -19.18405 -19.18089
 Alpha  occ. eigenvalues --  -14.42014 -14.41669 -14.41535 -14.41244 -14.39927
 Alpha  occ. eigenvalues --  -14.38891 -14.38703 -14.38361 -10.37083 -10.36234
 Alpha  occ. eigenvalues --  -10.33789 -10.32372 -10.31543 -10.30875 -10.30170
 Alpha  occ. eigenvalues --  -10.29631 -10.29368 -10.29017 -10.28960 -10.28908
 Alpha  occ. eigenvalues --  -10.28487 -10.28402 -10.28374 -10.28073 -10.28068
 Alpha  occ. eigenvalues --  -10.27828 -10.27805 -10.27795 -10.27163 -10.26816
 Alpha  occ. eigenvalues --  -10.26784 -10.26675 -10.26614 -10.26316 -10.26277
 Alpha  occ. eigenvalues --  -10.26263 -10.26243 -10.26120 -10.26079 -10.26002
 Alpha  occ. eigenvalues --  -10.25966 -10.25821 -10.25792 -10.25659 -10.25478
 Alpha  occ. eigenvalues --  -10.25460 -10.25359 -10.25358 -10.25268 -10.25204
 Alpha  occ. eigenvalues --  -10.25076 -10.24669 -10.24602 -10.24508 -10.24501
 Alpha  occ. eigenvalues --  -10.24496 -10.24478 -10.24452 -10.24415 -10.24371
 Alpha  occ. eigenvalues --  -10.24244 -10.24204 -10.24133 -10.23958 -10.23937
 Alpha  occ. eigenvalues --  -10.23837 -10.23795 -10.23583 -10.23385 -10.23284
 Alpha  occ. eigenvalues --  -10.23106 -10.23098 -10.23093 -10.23037 -10.22674
 Alpha  occ. eigenvalues --  -10.21381  -3.14768  -3.14763  -1.87586  -1.87554
 Alpha  occ. eigenvalues --   -1.87149  -1.87141  -1.86997  -1.86990  -1.10299
 Alpha  occ. eigenvalues --   -1.09920  -1.06303  -1.04966  -1.04853  -1.03442
 Alpha  occ. eigenvalues --   -1.02822  -1.02544  -0.99127  -0.99113  -0.98325
 Alpha  occ. eigenvalues --   -0.98083  -0.97844  -0.97262  -0.97159  -0.96079
 Alpha  occ. eigenvalues --   -0.86926  -0.86176  -0.83624  -0.83423  -0.83033
 Alpha  occ. eigenvalues --   -0.82715  -0.82678  -0.82124  -0.81792  -0.81327
 Alpha  occ. eigenvalues --   -0.80526  -0.80437  -0.80305  -0.79836  -0.78647
 Alpha  occ. eigenvalues --   -0.78601  -0.78176  -0.77881  -0.77191  -0.76661
 Alpha  occ. eigenvalues --   -0.76300  -0.75901  -0.75134  -0.74739  -0.74541
 Alpha  occ. eigenvalues --   -0.74406  -0.72395  -0.71927  -0.71675  -0.71298
 Alpha  occ. eigenvalues --   -0.70985  -0.70886  -0.70492  -0.69692  -0.69486
 Alpha  occ. eigenvalues --   -0.69431  -0.66994  -0.66885  -0.66118  -0.66063
 Alpha  occ. eigenvalues --   -0.64034  -0.63820  -0.63431  -0.63199  -0.62431
 Alpha  occ. eigenvalues --   -0.62243  -0.61565  -0.61020  -0.60298  -0.59977
 Alpha  occ. eigenvalues --   -0.59860  -0.59409  -0.59166  -0.59028  -0.58726
 Alpha  occ. eigenvalues --   -0.58653  -0.56774  -0.56336  -0.54307  -0.54240
 Alpha  occ. eigenvalues --   -0.54094  -0.53879  -0.53675  -0.53518  -0.53371
 Alpha  occ. eigenvalues --   -0.52940  -0.52891  -0.52469  -0.52129  -0.52008
 Alpha  occ. eigenvalues --   -0.50987  -0.50785  -0.50094  -0.50073  -0.49941
 Alpha  occ. eigenvalues --   -0.49637  -0.48700  -0.48663  -0.48340  -0.48287
 Alpha  occ. eigenvalues --   -0.48035  -0.47985  -0.47796  -0.47712  -0.47625
 Alpha  occ. eigenvalues --   -0.47394  -0.47166  -0.46785  -0.46557  -0.46224
 Alpha  occ. eigenvalues --   -0.46150  -0.46134  -0.45788  -0.45655  -0.45462
 Alpha  occ. eigenvalues --   -0.45416  -0.45346  -0.45167  -0.44978  -0.44696
 Alpha  occ. eigenvalues --   -0.44490  -0.44387  -0.44329  -0.44222  -0.44202
 Alpha  occ. eigenvalues --   -0.43926  -0.43809  -0.43688  -0.43677  -0.43314
 Alpha  occ. eigenvalues --   -0.43211  -0.43203  -0.43136  -0.42820  -0.42715
 Alpha  occ. eigenvalues --   -0.42281  -0.42209  -0.41972  -0.41733  -0.41563
 Alpha  occ. eigenvalues --   -0.41558  -0.41204  -0.40986  -0.40985  -0.40915
 Alpha  occ. eigenvalues --   -0.40766  -0.40759  -0.40713  -0.40580  -0.40552
 Alpha  occ. eigenvalues --   -0.40498  -0.40017  -0.39970  -0.39873  -0.39851
 Alpha  occ. eigenvalues --   -0.39543  -0.39525  -0.39393  -0.39269  -0.38822
 Alpha  occ. eigenvalues --   -0.38758  -0.38494  -0.38451  -0.38332  -0.38197
 Alpha  occ. eigenvalues --   -0.38162  -0.37999  -0.37805  -0.37680  -0.37448
 Alpha  occ. eigenvalues --   -0.37400  -0.37333  -0.37325  -0.37131  -0.37086
 Alpha  occ. eigenvalues --   -0.37018  -0.36812  -0.36702  -0.36408  -0.36256
 Alpha  occ. eigenvalues --   -0.35924  -0.35791  -0.35547  -0.35429  -0.35314
 Alpha  occ. eigenvalues --   -0.35104  -0.35044  -0.34845  -0.34140  -0.34134
 Alpha  occ. eigenvalues --   -0.33908  -0.33344  -0.32980  -0.32577  -0.32388
 Alpha  occ. eigenvalues --   -0.32240  -0.31943  -0.31489  -0.31458  -0.31361
 Alpha  occ. eigenvalues --   -0.30755  -0.30429  -0.29687  -0.29597  -0.29451
 Alpha  occ. eigenvalues --   -0.29194  -0.28719  -0.28647  -0.27170  -0.26739
 Alpha  occ. eigenvalues --   -0.26726  -0.26341  -0.26245  -0.25244  -0.25204
 Alpha  occ. eigenvalues --   -0.25100  -0.24865  -0.24275  -0.21094  -0.20815
 Alpha  occ. eigenvalues --   -0.18891  -0.18669
 Alpha virt. eigenvalues --   -0.11285  -0.11041  -0.05423  -0.04912  -0.03862
 Alpha virt. eigenvalues --   -0.03433  -0.02458  -0.01844  -0.01429  -0.00885
 Alpha virt. eigenvalues --   -0.00114   0.00329   0.00938   0.01323   0.01356

 Mulliken charges:
               1
     1  Mg  11.999893
     2  C    5.999288
     3  C    6.001181
     4  C    6.000871
     5  C    5.999153
     6  N    6.999957
     7  C    6.002197
     8  C    5.999240
     9  C    6.000909
    10  C    5.996664
    11  C    6.000096
    12  C    5.999590
    13  C    5.999858
    14  H    1.000365
    15  N    7.000497
    16  C    5.996877
    17  C    5.997695
    18  C    5.998930
    19  C    5.996521
    20  C    6.000215
    21  C    5.998715
    22  O    7.997685
    23  C    6.000509
    24  N    6.999591
    25  C    5.996904
    26  C    6.001634
    27  C    5.999530
    28  C    6.002997
    29  C    6.000117
    30  C    5.999603
    31  C    5.999773
    32  N    7.000117
    33  C    6.003566
    34  C    6.002923
    35  C    6.000805
    36  C    6.001893
    37  C    6.000116
    38  C    6.001657
    39  O    8.004363
    40  C    6.000082
    41  C    6.000396
    42  O    8.000631
    43  O    8.000180
    44  C    5.999644
    45  H    0.999024
    46  H    0.998996
    47  H    1.000637
    48  H    0.999818
    49  H    0.999886
    50  H    1.000362
    51  H    0.999140
    52  H    0.998923
    53  H    1.000793
    54  H    0.999992
    55  H    1.000201
    56  H    0.999951
    57  H    0.998205
    58  H    0.998257
    59  H    0.998236
    60  H    0.999106
    61  H    0.999082
    62  H    0.998531
    63  H    0.999087
    64  H    0.999640
    65  H    1.000449
    66  H    0.998967
    67  H    0.999429
    68  H    1.000368
    69  H    1.000696
    70  H    1.000351
    71  H    0.999934
    72  H    0.999806
    73  H    1.001920
    74  H    1.002055
    75  H    1.001519
    76  H    1.001045
    77  H    1.001147
    78  H    1.000879
    79  H    1.000136
    80  Mg  11.999754
    81  C    5.977902
    82  C    5.999562
    83  C    6.032357
    84  C    5.999602
    85  N    6.985375
    86  C    6.028402
    87  C    5.991250
    88  C    6.007957
    89  C    5.974289
    90  C    6.005772
    91  C    5.995845
    92  C    5.999586
    93  H    1.007225
    94  N    7.003510
    95  C    5.962502
    96  C    5.976438
    97  C    5.993077
    98  C    5.960889
    99  C    6.004787
   100  C    5.989203
   101  O    7.982337
   102  C    6.002259
   103  N    7.009667
   104  C    5.962921
   105  C    6.008517
   106  C    5.989160
   107  C    6.029060
   108  C    6.000482
   109  C    5.995826
   110  C    5.998776
   111  N    7.000190
   112  C    6.031164
   113  C    6.032328
   114  C    6.001763
   115  C    6.030041
   116  C    6.000307
   117  C    6.017865
   118  O    8.024636
   119  C    6.000264
   120  C    6.004922
   121  O    8.002719
   122  O    8.001974
   123  C    5.998355
   124  H    0.987323
   125  H    0.996547
   126  H    1.013141
   127  H    1.000894
   128  H    0.999038
   129  H    0.994863
   130  H    1.001142
   131  H    0.984599
   132  H    1.010022
   133  H    0.994293
   134  H    0.997102
   135  H    0.997570
   136  H    0.980812
   137  H    0.985100
   138  H    0.981868
   139  H    0.988691
   140  H    0.989894
   141  H    0.988941
   142  H    1.000137
   143  H    1.003972
   144  H    1.003132
   145  H    0.992275
   146  H    1.003339
   147  H    0.996624
   148  H    1.011428
   149  H    0.996320
   150  H    1.006289
   151  H    1.004204
   152  H    1.014982
   153  H    1.020187
   154  H    1.015714
   155  H    1.007826
   156  H    1.000739
   157  H    1.005441
   158  H    1.004735
 Sum of Mulliken charges = 624.00000

 Dipole moment (field-independent basis, Debye):
    X=             10.7654    Y=             -0.8734    Z=             -4.0084  Tot=             11.5206
 Quadrupole moment (field-independent basis, Debye-Ang):
   XX=            185.5204   YY=              1.0344   ZZ=             -1.1452
   XY=             -8.1573   XZ=            -40.4786   YZ=             -4.2622

 Normal termination of Gaussian 16 at Thu Oct 14 17:44:20 2021.
