 Gaussian 16, Revision A.03,
 Gaussian 16:  ES64L-G16RevA.03 25-Dec-2016

 --------------------------------------------------------
 #p PBE1PBE/Def2SVP td=(nstates=5) density=(transition=1)
 --------------------------------------------------------

 --------------------------------
 TDDFT excited states in gaussian
 --------------------------------
 Symbolic Z-matrix:
 Charge =  0 Multiplicity = 1

                         Standard orientation:
 ---------------------------------------------------------------------
 Center     Atomic      Atomic             Coordinates (Angstroms)
 Number     Number       Type             X           Y           Z
 ---------------------------------------------------------------------
      1         12           0      -10.082725    0.195676    0.817249
      2          6           0       -9.150805   -1.898765   -2.048141
      3          6           0       -7.196934   -1.035050    2.279167
      4          6           0      -10.239741    2.689253    2.798988
      5          6           0      -12.686885    1.467154   -1.307243
      6          7           0       -8.253622   -1.258292    0.045800
      7          6           0       -8.104970   -1.984055   -1.115850
      8          6           0       -6.707087   -2.704168   -1.104404
      9          6           0       -6.252473   -2.640831    0.364105
     10          6           0       -7.281278   -1.592189    0.934879
     11          6           0       -6.308998   -3.965450    1.233056
     12          6           0       -5.683942   -2.110803   -2.132499
     13          6           0       -4.803644   -3.106593   -2.856577
     14          1           0       -3.334714   -3.245243   -2.347085
     15          7           0       -8.984421    0.690975    2.387508
     16          6           0       -7.908964    0.033248    2.919779
     17          6           0       -7.428888    0.750018    4.132858
     18          6           0       -8.311784    1.853719    4.261703
     19          6           0       -9.199913    1.800599    3.103106
     20          6           0       -6.198134    0.406902    4.987978
     21          6           0       -8.225869    3.035031    5.232399
     22          8           0       -7.347438    2.994388    6.089614
     23          6           0       -9.096628    4.143617    5.234301
     24          7           0      -11.156428    2.009015    0.576668
     25          6           0      -11.192197    2.745162    1.744279
     26          6           0      -12.317350    3.841244    1.596134
     27          6           0      -12.865412    3.613153    0.141820
     28          6           0      -12.267846    2.220383   -0.171250
     29          6           0      -13.426054    3.819829    2.683948
     30          6           0      -12.554801    4.694123   -0.970543
     31          6           0      -13.412794    5.970974   -0.998071
     32          7           0      -10.876188   -0.114379   -1.228284
     33          6           0      -11.997117    0.386600   -1.859564
     34          6           0      -12.265085   -0.296041   -3.102144
     35          6           0      -11.164932   -1.226827   -3.210228
     36          6           0      -10.275785   -1.081056   -2.088711
     37          6           0      -13.395906    0.044955   -4.022982
     38          6           0      -10.591545   -2.173339   -4.058550
     39          8           0      -10.854764   -2.483053   -5.212653
     40          6           0       -9.217986   -2.561912   -3.438825
     41          6           0       -9.276752   -4.065306   -3.300523
     42          8           0       -8.380416   -4.818822   -3.688317
     43          8           0      -10.392501   -4.578049   -2.523853
     44          6           0      -10.200481   -5.971258   -2.124327
     45          1           0       -6.333393   -1.460148    2.794003
     46          1           0      -10.528322    3.485341    3.488489
     47          1           0      -13.563356    1.899838   -1.793931
     48          1           0       -6.869758   -3.773454   -1.246896
     49          1           0       -5.275890   -2.167558    0.466028
     50          1           0       -5.267569   -4.269618    1.335834
     51          1           0       -6.821686   -4.765127    0.699269
     52          1           0       -6.825846   -3.880255    2.188882
     53          1           0       -4.912602   -1.477880   -1.692955
     54          1           0       -6.209000   -1.567808   -2.918650
     55          1           0       -4.867187   -2.870813   -3.918888
     56          1           0       -5.250308   -4.092896   -2.726911
     57          1           0       -6.429783    0.553735    6.043244
     58          1           0       -5.420941    1.065357    4.600196
     59          1           0       -5.934122   -0.645123    4.889007
     60          1           0      -10.088487    3.791866    5.519969
     61          1           0       -9.100688    4.725173    4.312361
     62          1           0       -8.595499    4.793308    5.952665
     63          1           0      -11.940128    4.862975    1.623477
     64          1           0      -13.941445    3.440958    0.145881
     65          1           0      -14.360103    3.700654    2.134729
     66          1           0      -13.415703    4.779247    3.200223
     67          1           0      -13.144957    2.975789    3.314964
     68          1           0      -12.702615    4.144806   -1.900902
     69          1           0      -11.544616    5.088734   -0.859447
     70          1           0      -14.132565    5.744885   -0.210836
     71          1           0      -14.005610    6.029068   -1.912038
     72          1           0      -12.905394    6.915184   -0.801787
     73          1           0      -13.264292    1.100107   -4.259011
     74          1           0      -14.374152    0.003950   -3.544305
     75          1           0      -13.314087   -0.442294   -4.994650
     76          1           0       -8.457560   -2.315202   -4.179511
     77          1           0      -10.844870   -5.919103   -1.245931
     78          1           0       -9.146132   -6.232021   -2.032641
     79          1           0      -10.729960   -6.574993   -2.861490
     80         12           0       10.102710    0.745971   -0.069362
     81          6           0        8.296790   -2.105747    1.138664
     82          6           0        7.066692    2.293604   -0.597530
     83          6           0       11.732845    3.042363   -1.725998
     84          6           0       12.997053   -1.112039    0.356086
     85          7           0        7.852243    0.026547   -0.013538
     86          6           0        7.449913   -1.115605    0.624222
     87          6           0        5.925130   -1.041727    0.905256
     88          6           0        5.501451    0.357545    0.290565
     89          6           0        6.869502    0.974990   -0.177587
     90          6           0        4.462275    0.356991   -0.908312
     91          6           0        5.522979   -1.151952    2.400226
     92          6           0        4.379564   -2.037371    2.747631
     93          1           0        3.301449   -2.517221    1.702355
     94          7           0        9.498560    2.488761   -1.075933
     95          6           0        8.223752    3.054295   -1.081837
     96          6           0        8.255635    4.290706   -1.886429
     97          6           0        9.658322    4.564388   -2.117911
     98          6           0       10.363980    3.349622   -1.647948
     99          6           0        7.068850    5.114038   -2.286279
    100          6           0       10.363862    5.789089   -2.746531
    101          8           0       11.577690    6.057161   -2.623854
    102          6           0        9.512728    6.804223   -3.397030
    103          7           0       12.014647    0.877977   -0.629923
    104          6           0       12.427346    1.946791   -1.394821
    105          6           0       13.976495    1.991512   -1.506945
    106          6           0       14.381219    0.826509   -0.499045
    107          6           0       13.051809    0.149099   -0.214943
    108          6           0       14.627508    1.841500   -2.942197
    109          6           0       15.071071    1.237590    0.792063
    110          6           0       16.530852    0.762869    0.949377
    111          7           0       10.612856   -1.122726    0.777147
    112          6           0       11.833813   -1.750640    0.848739
    113          6           0       11.672182   -3.100500    1.404639
    114          6           0       10.305404   -3.230144    1.576351
    115          6           0        9.700885   -2.015031    1.183982
    116          6           0       12.707888   -4.145654    1.658163
    117          6           0        9.333721   -4.147098    2.053563
    118          8           0        9.435505   -5.271807    2.621184
    119          6           0        8.040105   -3.496840    1.799610
    120          6           0        7.140235   -4.418081    1.021181
    121          8           0        7.282279   -4.716428   -0.115237
    122          8           0        6.113032   -4.797912    1.780819
    123          6           0        5.308403   -5.898099    1.370131
    124          1           0        6.151575    2.851413   -0.807740
    125          1           0       12.411478    3.746975   -2.213026
    126          1           0       13.904099   -1.716100    0.412694
    127          1           0        5.481981   -1.873325    0.356131
    128          1           0        5.094929    0.998071    1.072654
    129          1           0        3.997016   -0.604824   -1.122239
    130          1           0        5.026137    0.599556   -1.810225
    131          1           0        3.705114    1.126828   -0.756395
    132          1           0        5.234560   -0.193335    2.833047
    133          1           0        6.327829   -1.536803    3.025829
    134          1           0        3.736959   -1.539039    3.474091
    135          1           0        4.794698   -2.932791    3.209389
    136          1           0        7.068020    5.245271   -3.368132
    137          1           0        7.201085    6.087969   -1.815023
    138          1           0        6.150116    4.740748   -1.832678
    139          1           0        9.022320    6.325507   -4.244691
    140          1           0       10.204812    7.541135   -3.803840
    141          1           0        8.880484    7.329156   -2.681436
    142          1           0       14.269741    2.944337   -1.065072
    143          1           0       15.057579    0.165635   -1.041065
    144          1           0       13.849534    1.731605   -3.696849
    145          1           0       15.390569    1.063517   -2.987494
    146          1           0       15.198321    2.750919   -3.130572
    147          1           0       14.525187    1.054554    1.717703
    148          1           0       15.140008    2.324758    0.774553
    149          1           0       16.818240    0.361637    1.921036
    150          1           0       17.150129    1.660253    0.944888
    151          1           0       16.864952    0.024436    0.221798
    152          1           0       13.718371   -3.736869    1.685426
    153          1           0       12.770787   -4.822692    0.806368
    154          1           0       12.364599   -4.715878    2.521265
    155          1           0        7.609008   -3.301711    2.781186
    156          1           0        5.906583   -6.793303    1.545862
    157          1           0        5.147861   -5.883052    0.292021
    158          1           0        4.409098   -5.978610    1.981339
 ---------------------------------------------------------------------

 SCF Done:  E(RPBE1PBE) =  -4067.32316234     A.U. after   16 cycles

 Excitation energies and oscillator strengths:

 Excited State   1:      Singlet-A      1.8566 eV  667.81 nm  f=0.0000  <S**2>=0.000
     312 -> 313        0.70708
 This state for optimization and/or second-order correction.
 Total Energy, E(TD-HF/TD-DFT) =  -4067.25493442
 Copying the excited state density for this state as the 1-particle RhoCI density.

 Excited State   2:      Singlet-A      1.8640 eV  665.15 nm  f=0.3973  <S**2>=0.000
     310 -> 316       -0.17335
     312 -> 314        0.69401
     312 <- 314       -0.11114

 Excited State   3:      Singlet-A      1.8701 eV  662.99 nm  f=0.3443  <S**2>=0.000
     309 -> 315       -0.19143
     311 -> 313        0.68642

 Excited State   4:      Singlet-A      1.9516 eV  635.29 nm  f=0.0000  <S**2>=0.000
     311 -> 314        0.70709

 Excited State   5:      Singlet-A      2.2040 eV  562.54 nm  f=0.1258  <S**2>=0.000
     310 -> 314        0.66014
     312 -> 316        0.24045

 The electronic state is 1-A.
 Alpha  occ. eigenvalues --  -46.94230 -46.92299 -19.25543 -19.24449 -19.20405
 Alpha  occ. eigenvalues --  -19.19734 -19.19035 -19.19023 -19.18979 -19.18264
 Alpha  occ. eigenvalues --  -14.42175 -14.41729 -14.41529 -14.41152 -14.40421
 Alpha  occ. eigenvalues --  -14.39334 -14.39215 -14.39000 -10.36533 -10.35914
 Alpha  occ. eigenvalues --  -10.32288 -10.32076 -10.31576 -10.30786 -10.30017
 Alpha  occ. eigenvalues --  -10.29653 -10.29560 -10.29258 -10.29170 -10.28959
 Alpha  occ. eigenvalues --  -10.28880 -10.28880 -10.28653 -10.28539 -10.28250
 Alpha  occ. eigenvalues --  -10.28065 -10.27951 -10.27575 -10.27470 -10.27336
 Alpha  occ. eigenvalues --  -10.27240 -10.27229 -10.26780 -10.26752 -10.26747
 Alpha  occ. eigenvalues --  -10.26735 -10.26715 -10.26282 -10.26212 -10.26140
 Alpha  occ. eigenvalues --  -10.26100 -10.26085 -10.26075 -10.26051 -10.26050
 Alpha  occ. eigenvalues --  -10.25921 -10.25870 -10.25855 -10.25660 -10.25412
 Alpha  occ. eigenvalues --  -10.25284 -10.25163 -10.25148 -10.25103 -10.24987
 Alpha  occ. eigenvalues --  -10.24744 -10.24612 -10.24593 -10.24530 -10.24517
 Alpha  occ. eigenvalues --  -10.24321 -10.24285 -10.24180 -10.24071 -10.23829
 Alpha  occ. eigenvalues --  -10.23802 -10.23682 -10.23611 -10.23449 -10.23424
 Alpha  occ. eigenvalues --  -10.23383 -10.23171 -10.22999 -10.22914 -10.22857
 Alpha  occ. eigenvalues --  -10.22591  -3.16223  -3.14456  -1.89004  -1.88648
 Alpha  occ. eigenvalues --   -1.88409  -1.87279  -1.86845  -1.86678  -1.13317
 Alpha  occ. eigenvalues --   -1.08741  -1.05210  -1.04432  -1.03879  -1.03211
 Alpha  occ. eigenvalues --   -1.02540  -1.01253  -0.99662  -0.99337  -0.98358
 Alpha  occ. eigenvalues --   -0.98097  -0.97992  -0.97235  -0.96532  -0.95931
 Alpha  occ. eigenvalues --   -0.87780  -0.87403  -0.83466  -0.83347  -0.83297
 Alpha  occ. eigenvalues --   -0.82864  -0.82750  -0.82691  -0.81893  -0.81365
 Alpha  occ. eigenvalues --   -0.81286  -0.81224  -0.80625  -0.80437  -0.79331
 Alpha  occ. eigenvalues --   -0.78842  -0.78208  -0.78028  -0.77803  -0.76929
 Alpha  occ. eigenvalues --   -0.76872  -0.76343  -0.76032  -0.75623  -0.74850
 Alpha  occ. eigenvalues --   -0.74320  -0.72677  -0.72615  -0.71998  -0.71758
 Alpha  occ. eigenvalues --   -0.71457  -0.71415  -0.70606  -0.70220  -0.69699
 Alpha  occ. eigenvalues --   -0.69609  -0.67542  -0.67432  -0.66476  -0.65967
 Alpha  occ. eigenvalues --   -0.63728  -0.63594  -0.63387  -0.63132  -0.62254
 Alpha  occ. eigenvalues --   -0.61880  -0.61482  -0.60765  -0.60356  -0.60108
 Alpha  occ. eigenvalues --   -0.59933  -0.59568  -0.59441  -0.59257  -0.58969
 Alpha  occ. eigenvalues --   -0.58697  -0.57520  -0.56477  -0.54982  -0.54736
 Alpha  occ. eigenvalues --   -0.54520  -0.54476  -0.53907  -0.53874  -0.53608
 Alpha  occ. eigenvalues --   -0.53491  -0.52796  -0.52368  -0.51944  -0.51645
 Alpha  occ. eigenvalues --   -0.51297  -0.50884  -0.50734  -0.50369  -0.49646
 Alpha  occ. eigenvalues --   -0.49506  -0.49440  -0.48832  -0.48518  -0.48384
 Alpha  occ. eigenvalues --   -0.48322  -0.48214  -0.47994  -0.47932  -0.47757
 Alpha  occ. eigenvalues --   -0.47643  -0.47563  -0.47303  -0.47214  -0.46972
 Alpha  occ. eigenvalues --   -0.46692  -0.46507  -0.46199  -0.46126  -0.46004
 Alpha  occ. eigenvalues --   -0.45939  -0.45820  -0.45690  -0.45328  -0.44744
 Alpha  occ. eigenvalues --   -0.44606  -0.44604  -0.44584  -0.44376  -0.44162
 Alpha  occ. eigenvalues --   -0.43962  -0.43878  -0.43716  -0.43713  -0.43404
 Alpha  occ. eigenvalues --   -0.43392  -0.43258  -0.43130  -0.42972  -0.42937
 Alpha  occ. eigenvalues --   -0.42936  -0.42720  -0.42497  -0.42399  -0.42095
 Alpha  occ. eigenvalues --   -0.41971  -0.41554  -0.41546  -0.41495  -0.41240
 Alpha  occ. eigenvalues --   -0.41001  -0.40927  -0.40911  -0.40701  -0.40614
 Alpha  occ. eigenvalues --   -0.40447  -0.40247  -0.40062  -0.39841  -0.39586
 Alpha  occ. eigenvalues --   -0.39539  -0.39365  -0.39277  -0.39242  -0.39093
 Alpha  occ. eigenvalues --   -0.39026  -0.38815  -0.38576  -0.38465  -0.38308
 Alpha  occ. eigenvalues --   -0.38143  -0.38007  -0.37596  -0.37502  -0.37455
 Alpha  occ. eigenvalues --   -0.37431  -0.37239  -0.36943  -0.36852  -0.36821
 Alpha  occ. eigenvalues --   -0.36611  -0.36499  -0.36458  -0.36302  -0.36261
 Alpha  occ. eigenvalues --   -0.36123  -0.35822  -0.35271  -0.35189  -0.35164
 Alpha  occ. eigenvalues --   -0.34955  -0.34929  -0.34633  -0.34359  -0.33958
 Alpha  occ. eigenvalues --   -0.33896  -0.33196  -0.32973  -0.32863  -0.32654
 Alpha  occ. eigenvalues --   -0.32263  -0.31989  -0.31452  -0.31393  -0.31271
 Alpha  occ. eigenvalues --   -0.30894  -0.30329  -0.29759  -0.29486  -0.29317
 Alpha  occ. eigenvalues --   -0.29252  -0.28494  -0.28491  -0.27205  -0.27090
 Alpha  occ. eigenvalues --   -0.26754  -0.26182  -0.26123  -0.26024  -0.25667
 Alpha  occ. eigenvalues --   -0.25314  -0.25251  -0.24523  -0.21476  -0.21003
 Alpha  occ. eigenvalues --   -0.19204  -0.18926
 Alpha virt. eigenvalues --   -0.11427  -0.11370  -0.06205  -0.05041  -0.04470
 Alpha virt. eigenvalues --   -0.04352  -0.02509  -0.02382  -0.02246  -0.00509
 Alpha virt. eigenvalues --   -0.00002   0.00061   0.01134   0.01266   0.01660

 Mulliken charges:
               1
     1  Mg  12.000000
     2  C    6.000000
     3  C    6.000000
     4  C    6.000000
     5  C    6.000000
     6  N    7.000000
     7  C    6.000000
     8  C    6.000000
     9  C    6.000000
    10  C    6.000000
    11  C    6.000000
    12  C    6.000000
    13  C    6.000000
    14  H    1.000000
    15  N    7.000000
    16  C    6.000000
    17  C    6.000000
    18  C    6.000000
    19  C    6.000000
    20  C    6.000000
    21  C    6.000000
    22  O    8.000000
    23  C    6.000000
    24  N    7.000000
    25  C    6.000000
    26  C    6.000000
    27  C    6.000000
    28  C    6.000000
    29  C    6.000000
    30  C    6.000000
    31  C    6.000000
    32  N    7.000000
    33  C    6.000000
    34  C    6.000000
    35  C    6.000000
    36  C    6.000000
    37  C    6.000000
    38  C    6.000000
    39  O    8.000000
    40  C    6.000000
    41  C    6.000000
    42  O    8.000000
    43  O    8.000000
    44  C    6.000000
    45  H    1.000000
    46  H    1.000000
    47  H    1.000000
    48  H    1.000000
    49  H    1.000000
    50  H    1.000000
    51  H    1.000000
    52  H    1.000000
    53  H    1.000000
    54  H    1.000000
    55  H    1.000000
    56  H    1.000000
    57  H    1.000000
    58  H    1.000000
    59  H    1.000000
    60  H    1.000000
    61  H    1.000000
    62  H    1.000000
    63  H    1.000000
    64  H    1.000000
    65  H    1.000000
    66  H    1.000000
    67  H    1.000000
    68  H    1.000000
    69  H    1.000000
    70  H    1.000000
    71  H    1.000000
    72  H    1.000000
    73  H    1.000000
    74  H    1.000000
    75  H    1.000000
    76  H    1.000000
    77  H    1.000000
    78  H    1.000000
    79  H    1.000000
    80  Mg  12.000000
    81  C    6.000000
    82  C    6.000000
    83  C    6.000000
    84  C    6.000000
    85  N    7.000000
    86  C    6.000000
    87  C    6.000000
    88  C    6.000000
    89  C    6.000000
    90  C    6.000000
    91  C    6.000000
    92  C    6.000000
    93  H    1.000000
    94  N    7.000000
    95  C    6.000000
    96  C    6.000000
    97  C    6.000000
    98  C    6.000000
    99  C    6.000000
   100  C    6.000000
   101  O    8.000000
   102  C    6.000000
   103  N    7.000000
   104  C    6.000000
   105  C    6.000000
   106  C    6.000000
   107  C    6.000000
   108  C    6.000000
   109  C    6.000000
   110  C    6.000000
   111  N    7.000000
   112  C    6.000000
   113  C    6.000000
   114  C    6.000000
   115  C    6.000000
   116  C    6.000000
   117  C    6.000000
   118  O    8.000000
   119  C    6.000000
   120  C    6.000000
   121  O    8.000000
   122  O    8.000000
   123  C    6.000000
   124  H    1.000000
   125  H    1.000000
   126  H    1.000000
   127  H    1.000000
   128  H    1.000000
   129  H    1.000000
   130  H    1.000000
   131  H    1.000000
   132  H    1.000000
   133  H    1.000000
   134  H    1.000000
   135  H    1.000000
   136  H    1.000000
   137  H    1.000000
   138  H    1.000000
   139  H    1.000000
   140  H    1.000000
   141  H    1.000000
   142  H    1.000000
   143  H    1.000000
   144  H    1.000000
   145  H    1.000000
   146  H    1.000000
   147  H    1.000000
   148  H    1.000000
   149  H    1.000000
   150  H    1.000000
   151  H    1.000000
   152  H    1.000000
   153  H    1.000000
   154  H    1.000000
   155  H    1.000000
   156  H    1.000000
   157  H    1.000000
   158  H    1.000000
 Sum of Mulliken charges = 624.00000

 Dipole moment (field-independent basis, Debye):
    X=              0.0000    Y=             -0.0000    Z=              0.0000  Tot=              0.0000
 Quadrupole moment (field-independent basis, Debye-Ang):
   XX=              0.0003   YY=             -0.0000   ZZ=             -0.0000
   XY=             -0.0003   XZ=              0.0002   YZ=              0.0000

 Normal termination of Gaussian 16 at Fri Oct 15 08:43:28 2021.
