 Gaussian 16, Revision A.03,
 Gaussian 16:  ES64L-G16RevA.03 25-Dec-2016

 ---------------------------------------------------------
 #p PBE1PBE/Def2SVP td=(nstates=5, root=1) density=current
 ---------------------------------------------------------

 --------------------------------
 TDDFT excited states in gaussian
 --------------------------------
 Symbolic Z-matrix:
 Charge =  0 Multiplicity = 1

                         Standard orientation:
 ---------------------------------------------------------------------
 Center     Atomic      Atomic             Coordinates (Angstroms)
 Number     Number       Type             X           Y           Z
 ---------------------------------------------------------------------
      1         12           0       -0.669162    0.111640   -0.344415
      2          6           0        2.743321    0.356243    0.259134
      3          6           0       -0.245904   -3.423484    0.023412
      4          6           0       -3.936369   -0.244209   -0.407755
      5          6           0       -0.913674    3.595635    0.055226
      6          7           0        1.033569   -1.323268    0.209713
      7          6           0        2.353862   -0.945705    0.309955
      8          6           0        3.229622   -2.166085    0.606582
      9          6           0        2.274558   -3.336075    0.241610
     10          6           0        0.917207   -2.685589    0.188976
     11          6           0        2.541746   -4.140034   -1.091069
     12          6           0        3.727223   -2.212512    2.060627
     13          6           0        4.714353   -3.273108    2.366995
     14          1           0        5.632847   -3.056432    3.629737
     15          7           0       -1.955933   -1.607718   -0.199128
     16          6           0       -1.589661   -2.957542   -0.081153
     17          6           0       -2.790975   -3.744815   -0.068964
     18          6           0       -3.897632   -2.817852   -0.056130
     19          6           0       -3.271122   -1.465018   -0.252861
     20          6           0       -2.786758   -5.290407    0.089222
     21          6           0       -5.356864   -3.272448    0.048655
     22          8           0       -5.672538   -4.448665   -0.021162
     23          6           0       -6.415110   -2.252536    0.231365
     24          7           0       -2.181710    1.516891   -0.417363
     25          6           0       -3.450941    1.100838   -0.483900
     26          6           0       -4.426364    2.339914   -0.353539
     27          6           0       -3.499823    3.599118   -0.145862
     28          6           0       -2.057703    2.850042   -0.112493
     29          6           0       -5.510217    2.517918   -1.449090
     30          6           0       -3.821380    4.283018    1.200200
     31          6           0       -3.565493    5.794452    1.242445
     32          7           0        0.603424    1.729464    0.071168
     33          6           0        0.399997    3.081017    0.078432
     34          6           0        1.704824    3.745995    0.176941
     35          6           0        2.622189    2.729960    0.154741
     36          6           0        1.941819    1.533414    0.159006
     37          6           0        1.951504    5.257842    0.148277
     38          6           0        4.023279    2.441886    0.222508
     39          8           0        4.995508    3.155337    0.256286
     40          6           0        4.160943    0.883689    0.278327
     41          6           0        4.873331    0.452029   -0.955618
     42          8           0        4.622411    0.765975   -2.086072
     43          8           0        5.827729   -0.518053   -0.603492
     44          6           0        6.552774   -1.100672   -1.696564
     45          1           0       -0.001282   -4.486830    0.054801
     46          1           0       -5.027014   -0.205273   -0.456228
     47          1           0       -0.945563    4.685784    0.112368
     48          1           0        4.028619   -2.143678   -0.133261
     49          1           0        2.153319   -4.106705    1.002077
     50          1           0        2.546957   -5.181818   -0.771212
     51          1           0        3.279582   -3.741194   -1.787737
     52          1           0        1.632451   -4.054601   -1.685854
     53          1           0        2.968531   -2.435276    2.811360
     54          1           0        4.142724   -1.244180    2.339757
     55          1           0        5.336431   -3.384800    1.478939
     56          1           0        4.189476   -4.222795    2.468955
     57          1           0       -3.111090   -5.317425    1.129990
     58          1           0       -1.806024   -5.765976    0.111768
     59          1           0       -3.394729   -5.959635   -0.519831
     60          1           0       -6.056766   -1.631657    1.052453
     61          1           0       -7.321733   -2.755256    0.568514
     62          1           0       -6.448223   -1.748205   -0.734689
     63          1           0       -4.998994    2.160799    0.556907
     64          1           0       -3.511934    4.323547   -0.959586
     65          1           0       -6.473044    2.243633   -1.016835
     66          1           0       -5.212874    1.944689   -2.326584
     67          1           0       -5.621015    3.575628   -1.687904
     68          1           0       -3.200663    3.763805    1.929983
     69          1           0       -4.829642    4.090473    1.567400
     70          1           0       -4.540152    6.197058    1.520340
     71          1           0       -3.156476    6.211701    0.322192
     72          1           0       -2.883207    6.039446    2.056517
     73          1           0        2.664247    5.646150    0.875065
     74          1           0        0.945244    5.649262    0.299577
     75          1           0        2.140030    5.509476   -0.895508
     76          1           0        4.743259    0.661262    1.172575
     77          1           0        7.571105   -0.718101   -1.627094
     78          1           0        6.193575   -0.955850   -2.715721
     79          1           0        6.542280   -2.180559   -1.551299
 ---------------------------------------------------------------------

 SCF Done:  E(RPBE1PBE) =  -2033.69125769     A.U. after   16 cycles

 Excitation energies and oscillator strengths:

 Excited State   1:      Singlet-A      1.9035 eV  651.33 nm  f=0.3823  <S**2>=0.000
     155 ->158        -0.17025
     156 ->157         0.69345
     156 <-157        -0.10646
 This state for optimization and/or second-order correction.
 Total Energy, E(TD-HF/TD-DFT) =  -2033.62130378
 Copying the excited state density for this state as the 1-particle RhoCI density.

 Excited State   2:      Singlet-A      2.3024 eV  538.49 nm  f=0.1136  <S**2>=0.000
     155 ->157         0.64644
     156 ->158         0.26951

 Excited State   3:      Singlet-A      2.8779 eV  430.81 nm  f=0.0031  <S**2>=0.000
     152 ->157         0.10306
     154 ->157         0.68002

 Excited State   4:      Singlet-A      2.9964 eV  413.77 nm  f=0.0002  <S**2>=0.000
     153 ->157         0.68017
     153 ->159        -0.12840

 Excited State   5:      Singlet-A      3.0517 eV  406.28 nm  f=0.0032  <S**2>=0.000
     152 ->157         0.68154
     154 ->157        -0.12170

 The electronic state is 1-A.
 Alpha  occ. eigenvalues --  -46.93045 -19.25674 -19.20748 -19.18958 -19.18715
 Alpha  occ. eigenvalues --  -14.42227 -14.41795 -14.39736 -14.38902 -10.36578
 Alpha  occ. eigenvalues --  -10.31811 -10.31491 -10.29897 -10.29070 -10.28933
 Alpha  occ. eigenvalues --  -10.28613 -10.28540 -10.28499 -10.28456 -10.27304
 Alpha  occ. eigenvalues --  -10.26904 -10.26334 -10.26156 -10.26093 -10.26075
 Alpha  occ. eigenvalues --  -10.25985 -10.25913 -10.25756 -10.25479 -10.25476
 Alpha  occ. eigenvalues --  -10.25261 -10.25244 -10.25186 -10.24684 -10.24240
 Alpha  occ. eigenvalues --  -10.23995 -10.23970 -10.23932 -10.23747 -10.23722
 Alpha  occ. eigenvalues --  -10.23253 -10.23125 -10.21937  -3.15049  -1.87895
 Alpha  occ. eigenvalues --   -1.87427  -1.87258  -1.11427  -1.05284  -1.04672
 Alpha  occ. eigenvalues --   -1.03725  -0.99298  -0.98444  -0.98299  -0.97460
 Alpha  occ. eigenvalues --   -0.87764  -0.83662  -0.83486  -0.83116  -0.82456
 Alpha  occ. eigenvalues --   -0.80879  -0.80199  -0.79424  -0.78359  -0.77339
 Alpha  occ. eigenvalues --   -0.76774  -0.75688  -0.75237  -0.72101  -0.71713
 Alpha  occ. eigenvalues --   -0.71277  -0.70551  -0.69840  -0.67791  -0.66493
 Alpha  occ. eigenvalues --   -0.63784  -0.63429  -0.62314  -0.61062  -0.60505
 Alpha  occ. eigenvalues --   -0.60124  -0.59433  -0.59124  -0.57318  -0.54713
 Alpha  occ. eigenvalues --   -0.54556  -0.53876  -0.53344  -0.53119  -0.52251
 Alpha  occ. eigenvalues --   -0.51113  -0.50418  -0.49944  -0.49492  -0.48972
 Alpha  occ. eigenvalues --   -0.48612  -0.48160  -0.47833  -0.47534  -0.47339
 Alpha  occ. eigenvalues --   -0.46572  -0.46321  -0.46139  -0.45472  -0.45333
 Alpha  occ. eigenvalues --   -0.44982  -0.44882  -0.44529  -0.43972  -0.43769
 Alpha  occ. eigenvalues --   -0.43365  -0.42882  -0.42779  -0.42252  -0.42036
 Alpha  occ. eigenvalues --   -0.41928  -0.41774  -0.41136  -0.41113  -0.40879
 Alpha  occ. eigenvalues --   -0.40575  -0.40136  -0.39870  -0.39375  -0.39049
 Alpha  occ. eigenvalues --   -0.38659  -0.38400  -0.38201  -0.38031  -0.37805
 Alpha  occ. eigenvalues --   -0.37644  -0.37267  -0.37173  -0.36837  -0.36689
 Alpha  occ. eigenvalues --   -0.36405  -0.35477  -0.35234  -0.34755  -0.34663
 Alpha  occ. eigenvalues --   -0.33744  -0.33054  -0.32694  -0.31966  -0.31521
 Alpha  occ. eigenvalues --   -0.31147  -0.30157  -0.29577  -0.29262  -0.27404
 Alpha  occ. eigenvalues --   -0.26035  -0.25812  -0.25610  -0.25132  -0.21565
 Alpha  occ. eigenvalues --   -0.19282
 Alpha virt. eigenvalues --   -0.11519  -0.05488  -0.03327  -0.01731  -0.00746
 Alpha virt. eigenvalues --    0.00282   0.00663   0.01816   0.02832   0.03951
 Alpha virt. eigenvalues --    0.04490   0.04930   0.05606   0.05945   0.06336

 Mulliken charges:
               1
     1  Mg   0.949162
     2  C   -0.038551
     3  C   -0.065697
     4  C   -0.093910
     5  C   -0.066211
     6  N   -0.380543
     7  C   -0.006988
     8  C   -0.008168
     9  C   -0.179635
    10  C    0.060849
    11  C    0.028039
    12  C    0.022512
    13  C   -0.126321
    14  H    0.049521
    15  N   -0.467654
    16  C    0.189931
    17  C   -0.150527
    18  C   -0.122282
    19  C    0.239272
    20  C    0.053657
    21  C    0.022546
    22  O   -0.240058
    23  C   -0.012018
    24  N   -0.441212
    25  C    0.096186
    26  C   -0.145808
    27  C   -0.128724
    28  C    0.120851
    29  C    0.012195
    30  C   -0.043086
    31  C   -0.058093
    32  N   -0.464769
    33  C    0.107306
    34  C   -0.228850
    35  C    0.009424
    36  C    0.179967
    37  C    0.092362
    38  C    0.111618
    39  O   -0.197090
    40  C   -0.110751
    41  C    0.280422
    42  O   -0.218586
    43  O   -0.380371
    44  C    0.109370
    45  H   -0.001404
    46  H   -0.009122
    47  H    0.003532
    48  H    0.046493
    49  H    0.046089
    50  H    0.049197
    51  H    0.052779
    52  H    0.039989
    53  H    0.039156
    54  H    0.048045
    55  H    0.044011
    56  H    0.047171
    57  H    0.061920
    58  H    0.020657
    59  H    0.073096
    60  H    0.056599
    61  H    0.056273
    62  H    0.081856
    63  H    0.056362
    64  H    0.056496
    65  H    0.042835
    66  H    0.057546
    67  H    0.041023
    68  H    0.043274
    69  H    0.040866
    70  H    0.044755
    71  H    0.048684
    72  H    0.045107
    73  H    0.076177
    74  H    0.015666
    75  H    0.066014
    76  H    0.077904
    77  H    0.061230
    78  H    0.066036
    79  H    0.044401
 Sum of Mulliken charges =  -0.00000

 Dipole moment (field-independent basis, Debye):
    X=             -2.1022    Y=              0.4969    Z=              0.1993  Tot=              2.1693
 Quadrupole moment (field-independent basis, Debye-Ang):
   XX=           -268.1097   YY=           -252.4670   ZZ=           -256.8419
   XY=            -53.8379   XZ=             -3.1417   YZ=              2.4874

 Normal termination of Gaussian 16 at Wed Oct 13 15:25:05 2021.
