 Gaussian 16, Revision A.03,
 Gaussian 16:  ES64L-G16RevA.03 25-Dec-2016

 --------------------------------------------------------
 #p PBE1PBE/Def2SVP td=(nstates=5) density=(transition=1)
 --------------------------------------------------------

 --------------------------------
 TDDFT excited states in gaussian
 --------------------------------
 Symbolic Z-matrix:
 Charge =  0 Multiplicity = 1

                         Standard orientation:
 ---------------------------------------------------------------------
 Center     Atomic      Atomic             Coordinates (Angstroms)
 Number     Number       Type             X           Y           Z
 ---------------------------------------------------------------------
      1         12           0      -24.696840   -0.807739   -0.023178
      2          6           0      -25.996378    2.253569    0.731308
      3          6           0      -22.472843    0.782947   -2.267608
      4          6           0      -23.550493   -3.809737   -0.965052
      5          6           0      -26.858671   -2.234253    2.232997
      6          7           0      -24.483820    1.211106   -0.927870
      7          6           0      -25.075452    2.340148   -0.347098
      8          6           0      -24.601572    3.657727   -1.023396
      9          6           0      -23.544511    3.065326   -1.992870
     10          6           0      -23.524427    1.562909   -1.776841
     11          6           0      -23.561945    3.397127   -3.545809
     12          6           0      -23.997333    4.777571   -0.066633
     13          6           0      -23.527358    6.026583   -0.859461
     14          1           0      -24.432477    7.243330   -0.661640
     15          7           0      -23.144624   -1.427239   -1.423901
     16          6           0      -22.229264   -0.596902   -2.034134
     17          6           0      -21.381280   -1.468159   -2.839265
     18          6           0      -21.712428   -2.807299   -2.454832
     19          6           0      -22.825274   -2.746724   -1.560312
     20          6           0      -20.361155   -0.905485   -3.752151
     21          6           0      -21.034836   -4.072264   -3.088327
     22          8           0      -21.453573   -5.236127   -2.923975
     23          6           0      -19.855780   -3.910522   -4.011991
     24          7           0      -25.134238   -2.641032    0.497697
     25          6           0      -24.523584   -3.807703   -0.042451
     26          6           0      -25.287178   -5.050935    0.354019
     27          6           0      -25.937113   -4.558226    1.645535
     28          6           0      -25.952522   -3.042288    1.509851
     29          6           0      -26.332210   -5.496626   -0.723255
     30          6           0      -25.113998   -4.915048    2.903487
     31          6           0      -25.319204   -6.265615    3.535424
     32          7           0      -26.206174   -0.218767    1.251792
     33          6           0      -26.894641   -0.854057    2.213830
     34          6           0      -27.777077    0.073355    2.858078
     35          6           0      -27.462477    1.311515    2.339607
     36          6           0      -26.458321    1.092905    1.383665
     37          6           0      -28.718159   -0.333541    3.937771
     38          6           0      -27.777608    2.673222    2.429013
     39          8           0      -28.550273    3.279681    3.145655
     40          6           0      -26.812133    3.370971    1.360114
     41          6           0      -27.662853    4.125363    0.400741
     42          8           0      -28.432722    3.667256   -0.408098
     43          8           0      -27.374760    5.430148    0.421110
     44          6           0      -28.138664    6.302049   -0.552287
     45          1           0      -21.721414    1.354638   -2.815961
     46          1           0      -23.182237   -4.795206   -1.257229
     47          1           0      -27.482231   -2.594225    3.053569
     48          1           0      -25.434820    4.072719   -1.590567
     49          1           0      -22.548342    3.374981   -1.675446
     50          1           0      -22.589889    3.508987   -4.026853
     51          1           0      -24.276712    4.195945   -3.744342
     52          1           0      -23.948295    2.486879   -4.004181
     53          1           0      -23.213847    4.248272    0.474279
     54          1           0      -24.765566    5.060559    0.652859
     55          1           0      -23.360433    5.762772   -1.903801
     56          1           0      -22.562351    6.311110   -0.441080
     57          1           0      -20.678462   -1.110527   -4.774766
     58          1           0      -19.406711   -1.308579   -3.413514
     59          1           0      -20.264916    0.170835   -3.608686
     60          1           0      -19.478860   -4.889922   -4.306639
     61          1           0      -19.078973   -3.492348   -3.370361
     62          1           0      -19.995062   -3.276684   -4.887355
     63          1           0      -24.612982   -5.891978    0.518258
     64          1           0      -26.958655   -4.913524    1.779313
     65          1           0      -27.199464   -4.837492   -0.725090
     66          1           0      -26.637277   -6.528959   -0.549966
     67          1           0      -25.802686   -5.447258   -1.674072
     68          1           0      -25.205397   -4.172201    3.694888
     69          1           0      -24.051505   -4.812605    2.682329
     70          1           0      -24.353125   -6.769026    3.511898
     71          1           0      -25.927091   -6.790072    2.798024
     72          1           0      -25.800508   -6.240850    4.513227
     73          1           0      -28.283444   -0.130104    4.915638
     74          1           0      -29.170117   -1.324560    3.886182
     75          1           0      -29.561196    0.351830    3.848563
     76          1           0      -26.153545    4.057463    1.892673
     77          1           0      -28.045981    5.837614   -1.534272
     78          1           0      -27.726143    7.307085   -0.644567
     79          1           0      -29.178281    6.331470   -0.225309
     80         12           0       25.348413   -0.484318    0.135162
     81          6           0       23.955337    2.616446    0.965369
     82          6           0       25.947097    0.641535   -3.035743
     83          6           0       26.332194   -3.538598   -0.667799
     84          6           0       24.491019   -1.589967    3.424362
     85          7           0       24.932233    1.425426   -0.909564
     86          6           0       24.423791    2.597298   -0.394883
     87          6           0       24.626998    3.739816   -1.372797
     88          6           0       24.998501    2.995478   -2.715863
     89          6           0       25.402810    1.598879   -2.132086
     90          6           0       23.840506    2.898335   -3.700918
     91          6           0       25.621287    4.795751   -0.765946
     92          6           0       26.054097    5.890723   -1.780062
     93          1           0       25.053299    6.253398   -2.857473
     94          7           0       26.035601   -1.296132   -1.548058
     95          6           0       26.122913   -0.714537   -2.806608
     96          6           0       26.595991   -1.674388   -3.819558
     97          6           0       26.740952   -2.892727   -3.087219
     98          6           0       26.352791   -2.601231   -1.709715
     99          6           0       26.869758   -1.300741   -5.228162
    100          6           0       27.191794   -4.216991   -3.647604
    101          8           0       27.336539   -5.236743   -2.917905
    102          6           0       27.569162   -4.364407   -5.096720
    103          7           0       25.452888   -2.307140    1.262109
    104          6           0       25.906837   -3.402308    0.652135
    105          6           0       25.766091   -4.667188    1.608373
    106          6           0       25.114169   -4.029842    2.958829
    107          6           0       24.994715   -2.566263    2.531758
    108          6           0       24.861541   -5.746612    0.884128
    109          6           0       26.036206   -4.136933    4.247833
    110          6           0       25.920710   -5.461756    5.055144
    111          7           0       24.380703    0.252674    1.820663
    112          6           0       24.194549   -0.246201    3.136985
    113          6           0       23.561988    0.837613    4.009037
    114          6           0       23.380968    1.948333    3.191088
    115          6           0       23.974045    1.560652    1.885779
    116          6           0       23.236849    0.766958    5.468214
    117          6           0       22.943882    3.322667    3.114653
    118          8           0       22.431641    4.077010    3.947702
    119          6           0       23.467483    3.887454    1.702208
    120          6           0       22.403163    4.648934    0.945771
    121          8           0       21.603114    4.136123    0.210773
    122          8           0       22.619997    6.043132    1.025760
    123          6           0       21.972858    6.884964    0.008286
    124          1           0       26.027327    1.130118   -4.009413
    125          1           0       26.643590   -4.548491   -0.943321
    126          1           0       24.109019   -1.888519    4.402929
    127          1           0       23.671320    4.251447   -1.479556
    128          1           0       25.871579    3.382089   -3.242562
    129          1           0       24.199056    3.360241   -4.620677
    130          1           0       22.960696    3.350802   -3.243992
    131          1           0       23.666367    1.880346   -4.048634
    132          1           0       26.337165    4.147311   -0.261787
    133          1           0       25.073165    5.268448    0.048359
    134          1           0       26.967321    5.478690   -2.209518
    135          1           0       26.274517    6.799225   -1.219762
    136          1           0       26.129435   -1.887204   -5.772027
    137          1           0       27.898293   -1.492784   -5.532504
    138          1           0       26.695493   -0.274725   -5.554758
    139          1           0       28.441564   -3.744546   -5.298977
    140          1           0       26.628140   -4.034814   -5.538872
    141          1           0       27.738976   -5.379993   -5.453207
    142          1           0       26.818673   -4.923956    1.733912
    143          1           0       24.062239   -4.239152    3.157679
    144          1           0       24.485267   -5.440381   -0.091806
    145          1           0       23.990097   -5.971557    1.499600
    146          1           0       25.520645   -6.592084    0.689221
    147          1           0       25.997700   -3.236618    4.860399
    148          1           0       27.060065   -4.125924    3.875489
    149          1           0       26.927294   -5.872535    5.125141
    150          1           0       25.191060   -6.104113    4.561934
    151          1           0       25.569086   -5.291424    6.072992
    152          1           0       23.977654    1.387515    5.972882
    153          1           0       23.269211   -0.267406    5.812613
    154          1           0       22.278021    1.168071    5.795970
    155          1           0       24.323132    4.521539    1.932560
    156          1           0       20.936897    6.967895    0.335854
    157          1           0       22.152135    6.489883   -0.991854
    158          1           0       22.491087    7.843131    0.035485
 ---------------------------------------------------------------------

 SCF Done:  E(RPBE1PBE) =  -4067.41200628     A.U. after   16 cycles

 Excitation energies and oscillator strengths:

 Excited State   1:      Singlet-A      1.7430 eV  711.31 nm  f=0.0000  <S**2>=0.000
     312 -> 313        0.70711
 This state for optimization and/or second-order correction.
 Total Energy, E(TD-HF/TD-DFT) =  -4067.34795098
 Copying the excited state density for this state as the 1-particle RhoCI density.

 Excited State   2:      Singlet-A      1.8106 eV  684.78 nm  f=0.3730  <S**2>=0.000
     309 -> 316       -0.15519
     311 -> 313        0.69953
     311 <- 313       -0.12511

 Excited State   3:      Singlet-A      1.8621 eV  665.84 nm  f=0.3746  <S**2>=0.000
     310 -> 315        0.19128
     312 -> 314        0.68817
     312 <- 314       -0.10015

 Excited State   4:      Singlet-A      2.1814 eV  568.38 nm  f=0.0000  <S**2>=0.000
     311 -> 314        0.70711

 Excited State   5:      Singlet-A      2.2535 eV  550.19 nm  f=0.1049  <S**2>=0.000
     309 -> 313        0.64879
     311 -> 316        0.26383

 The electronic state is 1-A.
 Alpha  occ. eigenvalues --  -46.91516 -46.90898 -19.25489 -19.24654 -19.20486
 Alpha  occ. eigenvalues --  -19.19473 -19.19434 -19.18881 -19.18879 -19.18608
 Alpha  occ. eigenvalues --  -14.42140 -14.41620 -14.41364 -14.41156 -14.39668
 Alpha  occ. eigenvalues --  -14.39538 -14.38592 -14.38455 -10.36432 -10.35447
 Alpha  occ. eigenvalues --  -10.32705 -10.32475 -10.32353 -10.31949 -10.29758
 Alpha  occ. eigenvalues --  -10.29472 -10.29024 -10.28990 -10.28788 -10.28606
 Alpha  occ. eigenvalues --  -10.28473 -10.28366 -10.28100 -10.28091 -10.27931
 Alpha  occ. eigenvalues --  -10.27838 -10.27772 -10.27329 -10.27306 -10.27160
 Alpha  occ. eigenvalues --  -10.27149 -10.26967 -10.26873 -10.26784 -10.26561
 Alpha  occ. eigenvalues --  -10.26521 -10.26385 -10.26196 -10.26190 -10.26187
 Alpha  occ. eigenvalues --  -10.26128 -10.25966 -10.25612 -10.25605 -10.25602
 Alpha  occ. eigenvalues --  -10.25598 -10.25592 -10.25530 -10.25251 -10.25215
 Alpha  occ. eigenvalues --  -10.25069 -10.24976 -10.24954 -10.24938 -10.24799
 Alpha  occ. eigenvalues --  -10.24542 -10.24491 -10.24370 -10.24269 -10.24151
 Alpha  occ. eigenvalues --  -10.24054 -10.24009 -10.23785 -10.23695 -10.23664
 Alpha  occ. eigenvalues --  -10.23513 -10.23272 -10.23257 -10.23250 -10.23193
 Alpha  occ. eigenvalues --  -10.23191 -10.23095 -10.22907 -10.22863 -10.22552
 Alpha  occ. eigenvalues --  -10.22515  -3.13774  -3.13252  -1.86621  -1.86134
 Alpha  occ. eigenvalues --   -1.86097  -1.86029  -1.85645  -1.85474  -1.11615
 Alpha  occ. eigenvalues --   -1.10212  -1.05066  -1.03871  -1.03092  -1.02619
 Alpha  occ. eigenvalues --   -1.02470  -1.01891  -1.00049  -0.98946  -0.98518
 Alpha  occ. eigenvalues --   -0.98119  -0.97730  -0.97469  -0.96718  -0.96095
 Alpha  occ. eigenvalues --   -0.87608  -0.85974  -0.83384  -0.83180  -0.83120
 Alpha  occ. eigenvalues --   -0.82928  -0.82852  -0.82189  -0.82121  -0.81888
 Alpha  occ. eigenvalues --   -0.81488  -0.81067  -0.80892  -0.80682  -0.78635
 Alpha  occ. eigenvalues --   -0.78527  -0.78263  -0.77258  -0.76800  -0.76345
 Alpha  occ. eigenvalues --   -0.76195  -0.75817  -0.75499  -0.75069  -0.74905
 Alpha  occ. eigenvalues --   -0.74355  -0.73231  -0.72738  -0.71857  -0.71784
 Alpha  occ. eigenvalues --   -0.71514  -0.71297  -0.70467  -0.70102  -0.69585
 Alpha  occ. eigenvalues --   -0.68928  -0.67635  -0.66548  -0.66256  -0.65931
 Alpha  occ. eigenvalues --   -0.63866  -0.63735  -0.63314  -0.63001  -0.62797
 Alpha  occ. eigenvalues --   -0.62664  -0.61507  -0.60556  -0.60235  -0.59954
 Alpha  occ. eigenvalues --   -0.59671  -0.59397  -0.59188  -0.58694  -0.58488
 Alpha  occ. eigenvalues --   -0.58310  -0.56621  -0.55872  -0.55211  -0.54807
 Alpha  occ. eigenvalues --   -0.54577  -0.54087  -0.53708  -0.53494  -0.53283
 Alpha  occ. eigenvalues --   -0.52892  -0.52404  -0.52222  -0.52202  -0.51377
 Alpha  occ. eigenvalues --   -0.51142  -0.50771  -0.50453  -0.50333  -0.49658
 Alpha  occ. eigenvalues --   -0.49229  -0.49180  -0.48818  -0.48762  -0.48492
 Alpha  occ. eigenvalues --   -0.48016  -0.47989  -0.47980  -0.47871  -0.47393
 Alpha  occ. eigenvalues --   -0.47274  -0.47164  -0.46803  -0.46801  -0.46526
 Alpha  occ. eigenvalues --   -0.46368  -0.46304  -0.46279  -0.45997  -0.45894
 Alpha  occ. eigenvalues --   -0.45760  -0.45367  -0.45061  -0.45006  -0.44884
 Alpha  occ. eigenvalues --   -0.44610  -0.44582  -0.44443  -0.44268  -0.44116
 Alpha  occ. eigenvalues --   -0.44060  -0.43907  -0.43818  -0.43661  -0.43573
 Alpha  occ. eigenvalues --   -0.43539  -0.43403  -0.43185  -0.42963  -0.42806
 Alpha  occ. eigenvalues --   -0.42729  -0.42720  -0.42365  -0.42141  -0.42041
 Alpha  occ. eigenvalues --   -0.41837  -0.41600  -0.41550  -0.41324  -0.41118
 Alpha  occ. eigenvalues --   -0.40947  -0.40843  -0.40790  -0.40555  -0.40485
 Alpha  occ. eigenvalues --   -0.40346  -0.40176  -0.40000  -0.39942  -0.39883
 Alpha  occ. eigenvalues --   -0.39678  -0.39453  -0.39425  -0.38998  -0.38991
 Alpha  occ. eigenvalues --   -0.38834  -0.38566  -0.38556  -0.38342  -0.38326
 Alpha  occ. eigenvalues --   -0.38209  -0.38001  -0.37851  -0.37749  -0.37701
 Alpha  occ. eigenvalues --   -0.37499  -0.37193  -0.37052  -0.36875  -0.36706
 Alpha  occ. eigenvalues --   -0.36538  -0.36352  -0.36291  -0.36092  -0.35983
 Alpha  occ. eigenvalues --   -0.35780  -0.35777  -0.35581  -0.35324  -0.35299
 Alpha  occ. eigenvalues --   -0.35093  -0.34917  -0.34734  -0.34154  -0.34074
 Alpha  occ. eigenvalues --   -0.33488  -0.33358  -0.33265  -0.33021  -0.32973
 Alpha  occ. eigenvalues --   -0.32468  -0.31975  -0.31775  -0.31673  -0.31493
 Alpha  occ. eigenvalues --   -0.31217  -0.30952  -0.29489  -0.29410  -0.29384
 Alpha  occ. eigenvalues --   -0.29107  -0.28712  -0.28466  -0.27060  -0.26858
 Alpha  occ. eigenvalues --   -0.26410  -0.26196  -0.25984  -0.25782  -0.25615
 Alpha  occ. eigenvalues --   -0.25407  -0.25213  -0.24807  -0.21461  -0.20908
 Alpha  occ. eigenvalues --   -0.18780  -0.18180
 Alpha virt. eigenvalues --   -0.11510  -0.10499  -0.05560  -0.05104  -0.04425
 Alpha virt. eigenvalues --   -0.03831  -0.02212  -0.02063  -0.00214   0.00198
 Alpha virt. eigenvalues --    0.00587   0.01000   0.01073   0.01373   0.01702

 Mulliken charges:
               1
     1  Mg  12.000000
     2  C    6.000000
     3  C    6.000000
     4  C    6.000000
     5  C    6.000000
     6  N    7.000000
     7  C    6.000000
     8  C    6.000000
     9  C    6.000000
    10  C    6.000000
    11  C    6.000000
    12  C    6.000000
    13  C    6.000000
    14  H    1.000000
    15  N    7.000000
    16  C    6.000000
    17  C    6.000000
    18  C    6.000000
    19  C    6.000000
    20  C    6.000000
    21  C    6.000000
    22  O    8.000000
    23  C    6.000000
    24  N    7.000000
    25  C    6.000000
    26  C    6.000000
    27  C    6.000000
    28  C    6.000000
    29  C    6.000000
    30  C    6.000000
    31  C    6.000000
    32  N    7.000000
    33  C    6.000000
    34  C    6.000000
    35  C    6.000000
    36  C    6.000000
    37  C    6.000000
    38  C    6.000000
    39  O    8.000000
    40  C    6.000000
    41  C    6.000000
    42  O    8.000000
    43  O    8.000000
    44  C    6.000000
    45  H    1.000000
    46  H    1.000000
    47  H    1.000000
    48  H    1.000000
    49  H    1.000000
    50  H    1.000000
    51  H    1.000000
    52  H    1.000000
    53  H    1.000000
    54  H    1.000000
    55  H    1.000000
    56  H    1.000000
    57  H    1.000000
    58  H    1.000000
    59  H    1.000000
    60  H    1.000000
    61  H    1.000000
    62  H    1.000000
    63  H    1.000000
    64  H    1.000000
    65  H    1.000000
    66  H    1.000000
    67  H    1.000000
    68  H    1.000000
    69  H    1.000000
    70  H    1.000000
    71  H    1.000000
    72  H    1.000000
    73  H    1.000000
    74  H    1.000000
    75  H    1.000000
    76  H    1.000000
    77  H    1.000000
    78  H    1.000000
    79  H    1.000000
    80  Mg  12.000000
    81  C    6.000000
    82  C    6.000000
    83  C    6.000000
    84  C    6.000000
    85  N    7.000000
    86  C    6.000000
    87  C    6.000000
    88  C    6.000000
    89  C    6.000000
    90  C    6.000000
    91  C    6.000000
    92  C    6.000000
    93  H    1.000000
    94  N    7.000000
    95  C    6.000000
    96  C    6.000000
    97  C    6.000000
    98  C    6.000000
    99  C    6.000000
   100  C    6.000000
   101  O    8.000000
   102  C    6.000000
   103  N    7.000000
   104  C    6.000000
   105  C    6.000000
   106  C    6.000000
   107  C    6.000000
   108  C    6.000000
   109  C    6.000000
   110  C    6.000000
   111  N    7.000000
   112  C    6.000000
   113  C    6.000000
   114  C    6.000000
   115  C    6.000000
   116  C    6.000000
   117  C    6.000000
   118  O    8.000000
   119  C    6.000000
   120  C    6.000000
   121  O    8.000000
   122  O    8.000000
   123  C    6.000000
   124  H    1.000000
   125  H    1.000000
   126  H    1.000000
   127  H    1.000000
   128  H    1.000000
   129  H    1.000000
   130  H    1.000000
   131  H    1.000000
   132  H    1.000000
   133  H    1.000000
   134  H    1.000000
   135  H    1.000000
   136  H    1.000000
   137  H    1.000000
   138  H    1.000000
   139  H    1.000000
   140  H    1.000000
   141  H    1.000000
   142  H    1.000000
   143  H    1.000000
   144  H    1.000000
   145  H    1.000000
   146  H    1.000000
   147  H    1.000000
   148  H    1.000000
   149  H    1.000000
   150  H    1.000000
   151  H    1.000000
   152  H    1.000000
   153  H    1.000000
   154  H    1.000000
   155  H    1.000000
   156  H    1.000000
   157  H    1.000000
   158  H    1.000000
 Sum of Mulliken charges = 624.00000

 Dipole moment (field-independent basis, Debye):
    X=             -0.0000    Y=              0.0000    Z=              0.0000  Tot=              0.0000
 Quadrupole moment (field-independent basis, Debye-Ang):
   XX=             -0.0000   YY=             -0.0000   ZZ=              0.0000
   XY=              0.0000   XZ=              0.0000   YZ=             -0.0000

 Normal termination of Gaussian 16 at Fri Oct 15 05:06:18 2021.
