 Gaussian 16, Revision A.03,
 Gaussian 16:  ES64L-G16RevA.03 25-Dec-2016

 --------------------------------------------------------
 #p PBE1PBE/Def2SVP td=(nstates=5) density=(transition=1)
 --------------------------------------------------------

 --------------------------------
 TDDFT excited states in gaussian
 --------------------------------
 Symbolic Z-matrix:
 Charge =  0 Multiplicity = 1

                         Standard orientation:
 ---------------------------------------------------------------------
 Center     Atomic      Atomic             Coordinates (Angstroms)
 Number     Number       Type             X           Y           Z
 ---------------------------------------------------------------------
      1         12           0       19.673800   -0.751236    0.304203
      2          6           0       19.302063    2.412813   -1.234158
      3          6           0       20.800797    0.837139    3.153522
      4          6           0       20.296605   -3.798729    1.648272
      5          6           0       18.727601   -2.325941   -2.681498
      6          7           0       20.073601    1.379134    0.755533
      7          6           0       19.647450    2.516862    0.074349
      8          6           0       19.909902    3.829537    0.920171
      9          6           0       20.633447    3.262258    2.170448
     10          6           0       20.561006    1.725825    2.023721
     11          6           0       22.113114    3.724967    2.445438
     12          6           0       18.669303    4.786087    1.151747
     13          6           0       18.827852    6.177821    0.618548
     14          1           0       18.185955    7.331119    1.487088
     15          7           0       20.436000   -1.326136    2.109068
     16          6           0       20.786943   -0.553132    3.197208
     17          6           0       21.271303   -1.413303    4.265479
     18          6           0       21.143512   -2.777536    3.879041
     19          6           0       20.576952   -2.691918    2.482835
     20          6           0       21.684300   -0.905889    5.661771
     21          6           0       21.444720   -4.053088    4.659260
     22          8           0       21.209265   -5.169833    4.245963
     23          6           0       21.999662   -4.080042    6.142263
     24          7           0       19.618306   -2.795456   -0.464963
     25          6           0       19.914781   -3.851026    0.281868
     26          6           0       19.716457   -5.199333   -0.498419
     27          6           0       19.021869   -4.718825   -1.833668
     28          6           0       19.092966   -3.171367   -1.661610
     29          6           0       21.042668   -6.004533   -0.617861
     30          6           0       17.635461   -5.308396   -2.001630
     31          6           0       17.321787   -5.768166   -3.424285
     32          7           0       19.242138   -0.189486   -1.654730
     33          6           0       18.781018   -0.914507   -2.736797
     34          6           0       18.634162   -0.002262   -3.828929
     35          6           0       18.775213    1.309303   -3.311601
     36          6           0       19.161615    1.168857   -1.949492
     37          6           0       18.295104   -0.362510   -5.225583
     38          6           0       18.636604    2.741550   -3.628072
     39          8           0       18.447548    3.348938   -4.677945
     40          6           0       18.969926    3.532826   -2.144011
     41          6           0       20.052491    4.449805   -2.320348
     42          8           0       21.185157    4.262785   -1.931937
     43          8           0       19.608198    5.630802   -2.870640
     44          6           0       20.708766    6.593544   -3.124762
     45          1           0       21.043857    1.298477    4.113169
     46          1           0       20.524404   -4.802212    2.012338
     47          1           0       18.359760   -2.893154   -3.539822
     48          1           0       20.720128    4.327889    0.389022
     49          1           0       20.082586    3.508846    3.078157
     50          1           0       22.195607    3.875904    3.522233
     51          1           0       22.296847    4.641546    1.885417
     52          1           0       22.873016    3.001839    2.148575
     53          1           0       18.486029    4.778188    2.226290
     54          1           0       17.828719    4.342256    0.618057
     55          1           0       18.361508    6.249546   -0.364920
     56          1           0       19.907808    6.292078    0.529410
     57          1           0       20.927290   -1.300331    6.338670
     58          1           0       21.543323    0.174483    5.701604
     59          1           0       22.662002   -1.233436    6.017377
     60          1           0       21.306402   -3.518040    6.769007
     61          1           0       23.067526   -3.866731    6.198311
     62          1           0       22.070621   -5.140173    6.383699
     63          1           0       18.999130   -5.871869   -0.028487
     64          1           0       19.708396   -4.986596   -2.637079
     65          1           0       21.184714   -6.276261   -1.664233
     66          1           0       21.090480   -6.862111    0.053716
     67          1           0       21.880120   -5.373934   -0.323858
     68          1           0       16.854287   -4.620468   -1.679837
     69          1           0       17.427156   -6.156271   -1.347238
     70          1           0       18.085042   -5.436085   -4.128109
     71          1           0       16.380939   -5.289498   -3.697367
     72          1           0       17.118283   -6.837582   -3.481603
     73          1           0       18.162281   -1.420255   -5.452603
     74          1           0       18.961933    0.224476   -5.858309
     75          1           0       17.246423   -0.073126   -5.297683
     76          1           0       18.078764    4.073484   -1.823961
     77          1           0       21.432598    6.154612   -3.811781
     78          1           0       21.101831    6.865198   -2.145100
     79          1           0       20.370669    7.504464   -3.617201
     80         12           0      -20.495659   -0.357239   -0.330649
     81          6           0      -17.817617    1.880087    0.249753
     82          6           0      -22.448914    1.812246    1.169788
     83          6           0      -22.607694   -2.876744    0.020672
     84          6           0      -18.000289   -2.716965   -1.243446
     85          7           0      -20.095154    1.734487    0.441203
     86          6           0      -19.036024    2.455585    0.508690
     87          6           0      -19.384892    3.912603    0.875949
     88          6           0      -20.800099    3.764926    1.635495
     89          6           0      -21.140925    2.303783    1.123560
     90          6           0      -20.772087    3.878155    3.211116
     91          6           0      -19.578894    4.808807   -0.455993
     92          6           0      -19.196268    6.324301   -0.454551
     93          1           0      -19.309647    7.068166    0.926993
     94          7           0      -22.368724   -0.467880    0.295703
     95          6           0      -23.033831    0.615068    0.850686
     96          6           0      -24.434758    0.182863    1.192523
     97          6           0      -24.476763   -1.221639    0.805900
     98          6           0      -23.155301   -1.656822    0.345686
     99          6           0      -25.415585    1.138217    1.845741
    100          6           0      -25.676294   -2.142345    0.852506
    101          8           0      -25.653386   -3.344192    0.552771
    102          6           0      -26.983378   -1.582668    1.244650
    103          7           0      -20.348466   -2.557771   -0.688617
    104          6           0      -21.380634   -3.331371   -0.404784
    105          6           0      -21.162900   -4.782118   -1.026378
    106          6           0      -19.589360   -4.687724   -1.416436
    107          6           0      -19.298758   -3.216227   -1.133737
    108          6           0      -21.555458   -5.950173   -0.062462
    109          6           0      -19.166717   -5.090082   -2.867480
    110          6           0      -18.349548   -6.347412   -3.018443
    111          7           0      -18.342690   -0.406184   -0.696534
    112          6           0      -17.525515   -1.458041   -1.060142
    113          6           0      -16.180832   -1.058761   -1.020486
    114          6           0      -16.251359    0.235129   -0.470335
    115          6           0      -17.555790    0.607784   -0.247411
    116          6           0      -15.006902   -1.826617   -1.369036
    117          6           0      -15.413165    1.326009   -0.154768
    118          8           0      -14.186748    1.590990   -0.280734
    119          6           0      -16.383868    2.349749    0.588682
    120          6           0      -16.085571    3.741629    0.166742
    121          8           0      -16.192384    4.229592   -0.956471
    122          8           0      -15.749487    4.475496    1.347875
    123          6           0      -15.401815    5.892225    1.179400
    124          1           0      -23.082551    2.618070    1.547226
    125          1           0      -23.337292   -3.685876    0.085145
    126          1           0      -17.249424   -3.425590   -1.600989
    127          1           0      -18.708945    4.208513    1.677796
    128          1           0      -21.431471    4.603076    1.342580
    129          1           0      -19.757771    3.821885    3.605619
    130          1           0      -21.296722    3.047534    3.682942
    131          1           0      -21.216500    4.845512    3.444988
    132          1           0      -20.597214    4.724415   -0.835793
    133          1           0      -19.020723    4.333511   -1.262859
    134          1           0      -19.785371    6.926318   -1.147131
    135          1           0      -18.116475    6.371004   -0.601224
    136          1           0      -26.403823    1.090065    1.386980
    137          1           0      -25.080448    2.175304    1.828974
    138          1           0      -25.415081    0.972609    2.922804
    139          1           0      -26.938233   -1.136774    2.238651
    140          1           0      -27.740437   -2.366764    1.228984
    141          1           0      -27.390912   -0.823660    0.576870
    142          1           0      -21.693930   -4.919688   -1.968212
    143          1           0      -18.952428   -5.167746   -0.672011
    144          1           0      -21.819892   -5.558783    0.920041
    145          1           0      -20.674914   -6.586912   -0.150300
    146          1           0      -22.348357   -6.510066   -0.556684
    147          1           0      -18.562581   -4.274426   -3.265369
    148          1           0      -20.054355   -5.161112   -3.496412
    149          1           0      -18.385212   -6.787820   -2.022896
    150          1           0      -17.319594   -6.050671   -3.219902
    151          1           0      -18.776435   -7.060151   -3.722956
    152          1           0      -15.182393   -2.230879   -2.365613
    153          1           0      -14.874849   -2.767307   -0.834386
    154          1           0      -14.133772   -1.174058   -1.385022
    155          1           0      -16.228517    2.243256    1.662762
    156          1           0      -15.079156    6.325675    2.126393
    157          1           0      -16.315600    6.448690    0.970140
    158          1           0      -14.571156    5.975638    0.479375
 ---------------------------------------------------------------------

 SCF Done:  E(RPBE1PBE) =  -4067.34321936     A.U. after   17 cycles

 Excitation energies and oscillator strengths:

 Excited State   1:      Singlet-A      1.8743 eV  661.51 nm  f=0.3614  <S**2>=0.000
     310 -> 316        0.17478
     312 -> 314        0.69059
 This state for optimization and/or second-order correction.
 Total Energy, E(TD-HF/TD-DFT) =  -4067.27434128
 Copying the excited state density for this state as the 1-particle RhoCI density.

 Excited State   2:      Singlet-A      1.9488 eV  636.21 nm  f=0.3525  <S**2>=0.000
     309 -> 315        0.20423
     311 -> 313        0.68089

 Excited State   3:      Singlet-A      1.9961 eV  621.13 nm  f=0.0000  <S**2>=0.000
     312 -> 313        0.70710

 Excited State   4:      Singlet-A      2.1592 eV  574.21 nm  f=0.0000  <S**2>=0.000
     311 -> 314        0.70711

 Excited State   5:      Singlet-A      2.2125 eV  560.39 nm  f=0.0826  <S**2>=0.000
     309 -> 313        0.64638
     311 -> 315       -0.26597

 The electronic state is 1-A.
 Alpha  occ. eigenvalues --  -46.92799 -46.91636 -19.24988 -19.24629 -19.20415
 Alpha  occ. eigenvalues --  -19.19950 -19.19733 -19.19483 -19.19188 -19.18773
 Alpha  occ. eigenvalues --  -14.41778 -14.41665 -14.41211 -14.41160 -14.39855
 Alpha  occ. eigenvalues --  -14.39673 -14.38632 -14.38309 -10.36306 -10.35311
 Alpha  occ. eigenvalues --  -10.33432 -10.33224 -10.32213 -10.31676 -10.29929
 Alpha  occ. eigenvalues --  -10.29294 -10.29254 -10.28686 -10.28674 -10.28503
 Alpha  occ. eigenvalues --  -10.28411 -10.28407 -10.28354 -10.28316 -10.28299
 Alpha  occ. eigenvalues --  -10.28164 -10.28080 -10.27937 -10.27818 -10.27341
 Alpha  occ. eigenvalues --  -10.26848 -10.26758 -10.26715 -10.26523 -10.26498
 Alpha  occ. eigenvalues --  -10.26303 -10.26170 -10.26168 -10.26134 -10.26083
 Alpha  occ. eigenvalues --  -10.26080 -10.25710 -10.25652 -10.25497 -10.25496
 Alpha  occ. eigenvalues --  -10.25434 -10.25433 -10.25419 -10.25349 -10.25319
 Alpha  occ. eigenvalues --  -10.25256 -10.25134 -10.25113 -10.25094 -10.25074
 Alpha  occ. eigenvalues --  -10.25044 -10.24634 -10.24358 -10.24078 -10.24000
 Alpha  occ. eigenvalues --  -10.23976 -10.23899 -10.23871 -10.23732 -10.23645
 Alpha  occ. eigenvalues --  -10.23637 -10.23609 -10.23364 -10.23310 -10.23204
 Alpha  occ. eigenvalues --  -10.23077 -10.23075 -10.22872 -10.22859 -10.22762
 Alpha  occ. eigenvalues --  -10.22400  -3.14836  -3.13745  -1.87679  -1.87218
 Alpha  occ. eigenvalues --   -1.87045  -1.86593  -1.86112  -1.85976  -1.10639
 Alpha  occ. eigenvalues --   -1.08690  -1.05917  -1.04311  -1.04106  -1.02278
 Alpha  occ. eigenvalues --   -1.02047  -1.01549  -1.00446  -0.99869  -0.98675
 Alpha  occ. eigenvalues --   -0.98238  -0.96976  -0.96615  -0.96095  -0.95621
 Alpha  occ. eigenvalues --   -0.87379  -0.86346  -0.83843  -0.83423  -0.82948
 Alpha  occ. eigenvalues --   -0.82639  -0.82204  -0.82185  -0.81916  -0.81652
 Alpha  occ. eigenvalues --   -0.81228  -0.81165  -0.81127  -0.80227  -0.78602
 Alpha  occ. eigenvalues --   -0.78585  -0.78278  -0.77956  -0.77010  -0.76768
 Alpha  occ. eigenvalues --   -0.76238  -0.75797  -0.75317  -0.75029  -0.74982
 Alpha  occ. eigenvalues --   -0.74144  -0.73286  -0.72462  -0.72061  -0.71284
 Alpha  occ. eigenvalues --   -0.71277  -0.70778  -0.70233  -0.70076  -0.69590
 Alpha  occ. eigenvalues --   -0.69055  -0.67715  -0.66774  -0.66756  -0.65718
 Alpha  occ. eigenvalues --   -0.63419  -0.63297  -0.63226  -0.62959  -0.62322
 Alpha  occ. eigenvalues --   -0.61960  -0.61631  -0.61498  -0.60442  -0.60102
 Alpha  occ. eigenvalues --   -0.60037  -0.60030  -0.59318  -0.59170  -0.59029
 Alpha  occ. eigenvalues --   -0.58939  -0.55839  -0.55768  -0.55087  -0.54739
 Alpha  occ. eigenvalues --   -0.54384  -0.53919  -0.53780  -0.53275  -0.53044
 Alpha  occ. eigenvalues --   -0.52585  -0.52372  -0.52328  -0.51888  -0.51762
 Alpha  occ. eigenvalues --   -0.51501  -0.50468  -0.50353  -0.50255  -0.50013
 Alpha  occ. eigenvalues --   -0.49353  -0.48849  -0.48844  -0.48561  -0.48284
 Alpha  occ. eigenvalues --   -0.48105  -0.47748  -0.47712  -0.47618  -0.47549
 Alpha  occ. eigenvalues --   -0.47195  -0.47138  -0.47086  -0.47033  -0.46748
 Alpha  occ. eigenvalues --   -0.46667  -0.46272  -0.46104  -0.46024  -0.45738
 Alpha  occ. eigenvalues --   -0.45613  -0.45511  -0.45343  -0.45194  -0.45074
 Alpha  occ. eigenvalues --   -0.44995  -0.44831  -0.44490  -0.44247  -0.44220
 Alpha  occ. eigenvalues --   -0.44084  -0.43960  -0.43782  -0.43436  -0.43272
 Alpha  occ. eigenvalues --   -0.43234  -0.43050  -0.42891  -0.42709  -0.42661
 Alpha  occ. eigenvalues --   -0.42656  -0.42481  -0.42369  -0.42315  -0.42026
 Alpha  occ. eigenvalues --   -0.41919  -0.41672  -0.41541  -0.41434  -0.41135
 Alpha  occ. eigenvalues --   -0.41079  -0.40903  -0.40880  -0.40817  -0.40316
 Alpha  occ. eigenvalues --   -0.40259  -0.40158  -0.39918  -0.39744  -0.39639
 Alpha  occ. eigenvalues --   -0.39352  -0.39164  -0.39002  -0.38866  -0.38798
 Alpha  occ. eigenvalues --   -0.38745  -0.38660  -0.38438  -0.38413  -0.38149
 Alpha  occ. eigenvalues --   -0.38148  -0.37920  -0.37797  -0.37511  -0.37500
 Alpha  occ. eigenvalues --   -0.37372  -0.37175  -0.36879  -0.36780  -0.36483
 Alpha  occ. eigenvalues --   -0.36383  -0.36301  -0.36055  -0.35979  -0.35876
 Alpha  occ. eigenvalues --   -0.35658  -0.35528  -0.35410  -0.35281  -0.35170
 Alpha  occ. eigenvalues --   -0.35021  -0.34887  -0.34576  -0.34333  -0.33981
 Alpha  occ. eigenvalues --   -0.33617  -0.33506  -0.32887  -0.32618  -0.32449
 Alpha  occ. eigenvalues --   -0.32216  -0.31906  -0.31569  -0.31218  -0.31050
 Alpha  occ. eigenvalues --   -0.30967  -0.30685  -0.29800  -0.29284  -0.28963
 Alpha  occ. eigenvalues --   -0.28951  -0.28800  -0.28684  -0.27430  -0.27106
 Alpha  occ. eigenvalues --   -0.26168  -0.26056  -0.25956  -0.25898  -0.25553
 Alpha  occ. eigenvalues --   -0.25302  -0.25024  -0.24644  -0.21120  -0.20909
 Alpha  occ. eigenvalues --   -0.19321  -0.18851
 Alpha virt. eigenvalues --   -0.11182  -0.11058  -0.06077  -0.05298  -0.04433
 Alpha virt. eigenvalues --   -0.04097  -0.02323  -0.02155  -0.00553  -0.00040
 Alpha virt. eigenvalues --    0.00151   0.00260   0.01145   0.01154   0.01405

 Mulliken charges:
               1
     1  Mg  12.004931
     2  C    5.981449
     3  C    6.007074
     4  C    6.016675
     5  C    5.990070
     6  N    6.987302
     7  C    6.026500
     8  C    5.989177
     9  C    6.007842
    10  C    5.968927
    11  C    6.004772
    12  C    5.998597
    13  C    5.997528
    14  H    1.005787
    15  N    7.006879
    16  C    5.967851
    17  C    5.979917
    18  C    5.983430
    19  C    5.972370
    20  C    6.001595
    21  C    5.990926
    22  O    7.973805
    23  C    6.003144
    24  N    7.000536
    25  C    5.971939
    26  C    6.008343
    27  C    5.989948
    28  C    6.027852
    29  C    6.001955
    30  C    5.996114
    31  C    5.999596
    32  N    6.998314
    33  C    6.034715
    34  C    6.027190
    35  C    6.001334
    36  C    6.031362
    37  C    5.998174
    38  C    6.014535
    39  O    8.024399
    40  C    6.010101
    41  C    6.000289
    42  O    8.010661
    43  O    8.000211
    44  C    5.997940
    45  H    0.989351
    46  H    0.995175
    47  H    1.009488
    48  H    1.003368
    49  H    0.998647
    50  H    0.999901
    51  H    0.985834
    52  H    0.999090
    53  H    1.008205
    54  H    0.995197
    55  H    0.995138
    56  H    1.001983
    57  H    0.983864
    58  H    0.984753
    59  H    0.983279
    60  H    0.994505
    61  H    0.990822
    62  H    0.987714
    63  H    0.999730
    64  H    1.001975
    65  H    0.990586
    66  H    1.002084
    67  H    1.003242
    68  H    1.000707
    69  H    1.010018
    70  H    0.997302
    71  H    0.998414
    72  H    1.005167
    73  H    1.018486
    74  H    1.016620
    75  H    1.019691
    76  H    1.006566
    77  H    1.001081
    78  H    1.006100
    79  H    1.003862
    80  Mg  11.999999
    81  C    6.000092
    82  C    6.000013
    83  C    5.999877
    84  C    5.999968
    85  N    7.000015
    86  C    5.999854
    87  C    6.000010
    88  C    5.999920
    89  C    6.000135
    90  C    5.999971
    91  C    6.000013
    92  C    5.999998
    93  H    1.000013
    94  N    6.999905
    95  C    6.000181
    96  C    6.000182
    97  C    5.999945
    98  C    6.000214
    99  C    5.999948
   100  C    6.000074
   101  O    8.000173
   102  C    5.999954
   103  N    6.999948
   104  C    6.000171
   105  C    5.999944
   106  C    6.000064
   107  C    5.999925
   108  C    5.999987
   109  C    6.000046
   110  C    5.999990
   111  N    7.000022
   112  C    5.999929
   113  C    5.999773
   114  C    6.000075
   115  C    5.999845
   116  C    6.000044
   117  C    5.999884
   118  O    7.999743
   119  C    6.000015
   120  C    5.999957
   121  O    7.999938
   122  O    8.000003
   123  C    6.000014
   124  H    1.000054
   125  H    1.000065
   126  H    0.999932
   127  H    1.000031
   128  H    1.000042
   129  H    1.000081
   130  H    1.000019
   131  H    1.000047
   132  H    0.999954
   133  H    1.000004
   134  H    0.999975
   135  H    0.999986
   136  H    1.000103
   137  H    1.000090
   138  H    1.000152
   139  H    1.000058
   140  H    1.000107
   141  H    1.000043
   142  H    1.000004
   143  H    1.000020
   144  H    1.000012
   145  H    1.000050
   146  H    1.000007
   147  H    0.999980
   148  H    0.999934
   149  H    1.000013
   150  H    0.999977
   151  H    0.999967
   152  H    0.999849
   153  H    0.999883
   154  H    0.999869
   155  H    0.999998
   156  H    1.000004
   157  H    0.999986
   158  H    0.999934
 Sum of Mulliken charges = 624.00000

 Dipole moment (field-independent basis, Debye):
    X=             -3.2679    Y=              2.9342    Z=             -9.0779  Tot=             10.0845
 Quadrupole moment (field-independent basis, Debye-Ang):
   XX=           -125.1478   YY=             -1.7494   ZZ=             -5.2743
   XY=             61.6591   XZ=           -183.0424   YZ=              7.2891

 Normal termination of Gaussian 16 at Fri Oct 15 12:41:23 2021.
