 Gaussian 16, Revision A.03,
 Gaussian 16:  ES64L-G16RevA.03 25-Dec-2016

 --------------------------------------------------------
 #p PBE1PBE/Def2SVP td=(nstates=5) density=(transition=1)
 --------------------------------------------------------

 --------------------------------
 TDDFT excited states in gaussian
 --------------------------------
 Symbolic Z-matrix:
 Charge =  0 Multiplicity = 1

                         Standard orientation:
 ---------------------------------------------------------------------
 Center     Atomic      Atomic             Coordinates (Angstroms)
 Number     Number       Type             X           Y           Z
 ---------------------------------------------------------------------
      1         12           0       20.837249    0.503262   -0.157519
      2          6           0       19.818258   -2.737676   -0.376551
      3          6           0       17.797589    1.210626    1.355541
      4          6           0       21.995593    3.604935    0.399669
      5          6           0       24.101249   -0.444068   -1.071103
      6          7           0       19.116683   -0.709875    0.654841
      7          6           0       18.948409   -2.018234    0.376889
      8          6           0       17.729809   -2.582878    1.010584
      9          6           0       16.890481   -1.178064    1.244095
     10          6           0       17.997225   -0.115480    1.078088
     11          6           0       15.680756   -1.028254    0.275016
     12          6           0       18.099860   -3.263324    2.318948
     13          6           0       18.890714   -2.434777    3.434204
     14          1           0       18.541369   -2.597654    4.908256
     15          7           0       20.027216    2.171060    0.744584
     16          6           0       18.690152    2.314285    1.194056
     17          6           0       18.491418    3.696296    1.478132
     18          6           0       19.664012    4.412709    1.272894
     19          6           0       20.639261    3.442504    0.747377
     20          6           0       17.120558    4.135536    1.950996
     21          6           0       19.922966    5.865948    1.591117
     22          8           0       18.954921    6.494519    2.087104
     23          6           0       21.190757    6.515191    1.576138
     24          7           0       22.842490    1.375292   -0.114832
     25          6           0       23.025448    2.711789    0.086682
     26          6           0       24.515638    3.102429   -0.059723
     27          6           0       25.171769    1.763159   -0.537042
     28          6           0       23.989351    0.809553   -0.506633
     29          6           0       24.744729    4.273143   -0.991657
     30          6           0       26.394523    1.330039    0.434975
     31          6           0       27.622042    0.789931   -0.307629
     32          7           0       21.868022   -1.255054   -0.662832
     33          6           0       23.096907   -1.475952   -1.197329
     34          6           0       23.095361   -2.820083   -1.707410
     35          6           0       21.805840   -3.408934   -1.466818
     36          6           0       21.115116   -2.408865   -0.802580
     37          6           0       24.302452   -3.573653   -2.150504
     38          6           0       20.969186   -4.564426   -1.520575
     39          8           0       21.290417   -5.637901   -2.045760
     40          6           0       19.663623   -4.162011   -0.859940
     41          6           0       18.564454   -4.339441   -1.839806
     42          8           0       18.387734   -5.432271   -2.341267
     43          8           0       17.782332   -3.239836   -2.020727
     44          6           0       16.679445   -3.409878   -2.968694
     45          1           0       16.762743    1.485561    1.569380
     46          1           0       22.280686    4.658255    0.362905
     47          1           0       25.033866   -0.774960   -1.533522
     48          1           0       17.153632   -3.320760    0.452237
     49          1           0       16.369674   -1.191620    2.202413
     50          1           0       14.758348   -0.922549    0.844890
     51          1           0       15.615516   -1.956946   -0.292506
     52          1           0       15.768336   -0.209493   -0.440351
     53          1           0       18.610322   -4.191372    2.060725
     54          1           0       17.140173   -3.663945    2.645229
     55          1           0       18.854744   -1.350089    3.332067
     56          1           0       19.898503   -2.835177    3.327935
     57          1           0       17.119263    3.966579    3.027985
     58          1           0       16.368967    3.485251    1.505147
     59          1           0       16.840242    5.166781    1.734296
     60          1           0       21.240219    7.324596    2.305189
     61          1           0       21.521942    6.804107    0.577836
     62          1           0       21.878243    5.783740    1.998755
     63          1           0       24.809109    3.336051    0.964297
     64          1           0       25.451911    1.851733   -1.586520
     65          1           0       23.828227    4.743956   -1.346267
     66          1           0       25.432248    4.200009   -1.833882
     67          1           0       25.101321    5.046535   -0.310729
     68          1           0       26.128167    0.566564    1.165982
     69          1           0       26.709525    2.146278    1.084831
     70          1           0       28.406226    1.544683   -0.255004
     71          1           0       27.368372    0.702386   -1.364294
     72          1           0       27.990713   -0.149096    0.105472
     73          1           0       24.779188   -3.260800   -3.078672
     74          1           0       23.977476   -4.612260   -2.222675
     75          1           0       25.112252   -3.515650   -1.423129
     76          1           0       19.519684   -4.853861   -0.029531
     77          1           0       16.064175   -4.238534   -2.616988
     78          1           0       17.009351   -3.541605   -3.999309
     79          1           0       16.121852   -2.480015   -3.079742
     80         12           0      -21.394950   -0.004318   -0.614774
     81          6           0      -18.026814   -0.185942    0.546418
     82          6           0      -21.946735   -2.736615    1.185802
     83          6           0      -24.711753    0.617114   -0.799552
     84          6           0      -20.613653    3.339433   -1.568242
     85          7           0      -20.151113   -1.326280    0.567144
     86          6           0      -18.769895   -1.283347    0.855947
     87          6           0      -18.290221   -2.478160    1.738946
     88          6           0      -19.601710   -3.303669    1.867529
     89          6           0      -20.632543   -2.462349    1.085528
     90          6           0      -19.310192   -4.717903    1.338685
     91          6           0      -17.651789   -2.139454    3.154759
     92          6           0      -16.175976   -2.473402    3.339088
     93          1           0      -15.798356   -3.396583    4.515526
     94          7           0      -23.079015   -0.936777   -0.014239
     95          6           0      -23.087092   -2.099562    0.755908
     96          6           0      -24.399210   -2.586330    0.901005
     97          6           0      -25.249295   -1.737143    0.216869
     98          6           0      -24.414311   -0.638365   -0.224557
     99          6           0      -24.894409   -3.879280    1.649296
    100          6           0      -26.731850   -1.992163    0.077983
    101          8           0      -27.278471   -2.992254    0.437398
    102          6           0      -27.552120   -0.872617   -0.732856
    103          7           0      -22.523799    1.744892   -1.041488
    104          6           0      -23.890861    1.712546   -1.087925
    105          6           0      -24.378784    3.197354   -1.342056
    106          6           0      -23.140353    4.032076   -1.708594
    107          6           0      -21.996897    2.989355   -1.408862
    108          6           0      -25.557094    3.327003   -2.264967
    109          6           0      -23.016372    5.206581   -0.745984
    110          6           0      -22.228687    6.401922   -1.212561
    111          7           0      -19.619896    1.255542   -0.770124
    112          6           0      -19.473112    2.554081   -1.196110
    113          6           0      -18.106786    2.930825   -1.159749
    114          6           0      -17.410550    1.866519   -0.539485
    115          6           0      -18.432529    0.927815   -0.222039
    116          6           0      -17.523263    4.236756   -1.524165
    117          6           0      -16.147166    1.317866   -0.028360
    118          8           0      -15.007700    1.795240   -0.113534
    119          6           0      -16.470613   -0.052843    0.680997
    120          6           0      -15.909563   -1.128190   -0.092642
    121          8           0      -16.438457   -1.497773   -1.167655
    122          8           0      -14.788938   -1.533037    0.536751
    123          6           0      -14.109055   -2.767461    0.057195
    124          1           0      -22.157161   -3.656016    1.736776
    125          1           0      -25.789963    0.754691   -0.905476
    126          1           0      -20.294834    4.308150   -1.957785
    127          1           0      -17.551086   -3.064490    1.193143
    128          1           0      -19.972219   -3.375932    2.889625
    129          1           0      -20.267891   -5.234174    1.279159
    130          1           0      -18.638073   -5.324534    1.945461
    131          1           0      -18.868553   -4.705419    0.341609
    132          1           0      -18.151091   -2.829123    3.835347
    133          1           0      -17.869165   -1.106278    3.425892
    134          1           0      -15.640086   -1.528039    3.430665
    135          1           0      -15.814091   -2.993870    2.451677
    136          1           0      -25.665855   -3.539415    2.340585
    137          1           0      -24.092246   -4.358712    2.210135
    138          1           0      -25.225223   -4.700069    1.012978
    139          1           0      -28.561779   -1.268714   -0.837276
    140          1           0      -26.993329   -0.790194   -1.665393
    141          1           0      -27.452170   -0.005961   -0.079458
    142          1           0      -24.738704    3.509155   -0.360943
    143          1           0      -23.092724    4.422237   -2.725211
    144          1           0      -25.489324    4.289072   -2.772104
    145          1           0      -26.440716    3.262612   -1.629701
    146          1           0      -25.682328    2.494564   -2.956416
    147          1           0      -22.613688    4.922215    0.226602
    148          1           0      -23.989084    5.584401   -0.431116
    149          1           0      -21.995284    6.367723   -2.276574
    150          1           0      -21.295377    6.424229   -0.649579
    151          1           0      -22.706834    7.327766   -0.892882
    152          1           0      -18.113620    4.742955   -2.288591
    153          1           0      -16.524376    4.013631   -1.899839
    154          1           0      -17.549955    4.829766   -0.609697
    155          1           0      -16.216022   -0.090397    1.740193
    156          1           0      -13.070907   -2.502770    0.263147
    157          1           0      -14.309296   -3.007726   -0.986553
    158          1           0      -14.263769   -3.601036    0.743092
 ---------------------------------------------------------------------

 SCF Done:  E(RPBE1PBE) =  -4067.37501904     A.U. after   16 cycles

 Excitation energies and oscillator strengths:

 Excited State   1:      Singlet-A      1.8689 eV  663.41 nm  f=0.3679  <S**2>=0.000
     310 -> 316       -0.16688
     312 -> 314        0.69403
     312 <- 314       -0.10952
 This state for optimization and/or second-order correction.
 Total Energy, E(TD-HF/TD-DFT) =  -4067.30633901
 Copying the excited state density for this state as the 1-particle RhoCI density.

 Excited State   2:      Singlet-A      1.8908 eV  655.71 nm  f=0.3808  <S**2>=0.000
     309 -> 315       -0.16981
     311 -> 313        0.69182
     311 <- 313       -0.10817

 Excited State   3:      Singlet-A      1.9059 eV  650.54 nm  f=0.0000  <S**2>=0.000
     312 -> 313        0.70711

 Excited State   4:      Singlet-A      2.0923 eV  592.59 nm  f=0.0000  <S**2>=0.000
     311 -> 314        0.70710

 Excited State   5:      Singlet-A      2.2081 eV  561.50 nm  f=0.1166  <S**2>=0.000
     309 -> 313        0.66034
     311 -> 315        0.22031

 The electronic state is 1-A.
 Alpha  occ. eigenvalues --  -46.92463 -46.91952 -19.27174 -19.27044 -19.19947
 Alpha  occ. eigenvalues --  -19.19746 -19.19737 -19.19155 -19.18673 -19.18239
 Alpha  occ. eigenvalues --  -14.41979 -14.41785 -14.41563 -14.41473 -14.39375
 Alpha  occ. eigenvalues --  -14.39105 -14.38373 -14.38256 -10.36523 -10.36506
 Alpha  occ. eigenvalues --  -10.32714 -10.32517 -10.31810 -10.31719 -10.30082
 Alpha  occ. eigenvalues --  -10.29964 -10.29491 -10.29257 -10.29231 -10.28729
 Alpha  occ. eigenvalues --  -10.28672 -10.28512 -10.28454 -10.28319 -10.28015
 Alpha  occ. eigenvalues --  -10.27984 -10.27861 -10.27127 -10.27048 -10.26694
 Alpha  occ. eigenvalues --  -10.26572 -10.26532 -10.26253 -10.26237 -10.26210
 Alpha  occ. eigenvalues --  -10.26187 -10.26135 -10.26059 -10.25941 -10.25875
 Alpha  occ. eigenvalues --  -10.25867 -10.25684 -10.25680 -10.25676 -10.25657
 Alpha  occ. eigenvalues --  -10.25638 -10.25404 -10.25083 -10.25050 -10.25043
 Alpha  occ. eigenvalues --  -10.24969 -10.24898 -10.24894 -10.24877 -10.24859
 Alpha  occ. eigenvalues --  -10.24740 -10.24672 -10.24555 -10.24478 -10.24357
 Alpha  occ. eigenvalues --  -10.23977 -10.23854 -10.23773 -10.23650 -10.23598
 Alpha  occ. eigenvalues --  -10.23565 -10.23453 -10.23447 -10.23276 -10.23073
 Alpha  occ. eigenvalues --  -10.23047 -10.22845 -10.22844 -10.22661 -10.22557
 Alpha  occ. eigenvalues --  -10.22454  -3.14499  -3.14123  -1.87314  -1.86940
 Alpha  occ. eigenvalues --   -1.86891  -1.86704  -1.86478  -1.86373  -1.12200
 Alpha  occ. eigenvalues --   -1.11436  -1.06615  -1.03887  -1.03560  -1.02945
 Alpha  occ. eigenvalues --   -1.02877  -1.02212  -0.99552  -0.99135  -0.98690
 Alpha  occ. eigenvalues --   -0.97882  -0.97542  -0.97494  -0.96390  -0.95969
 Alpha  occ. eigenvalues --   -0.88531  -0.86642  -0.83981  -0.83578  -0.83521
 Alpha  occ. eigenvalues --   -0.83311  -0.83033  -0.82985  -0.82078  -0.81655
 Alpha  occ. eigenvalues --   -0.81036  -0.80842  -0.80510  -0.80170  -0.79385
 Alpha  occ. eigenvalues --   -0.79062  -0.78586  -0.78444  -0.77544  -0.77498
 Alpha  occ. eigenvalues --   -0.77045  -0.76169  -0.75783  -0.75511  -0.75253
 Alpha  occ. eigenvalues --   -0.74525  -0.72971  -0.72238  -0.72102  -0.71664
 Alpha  occ. eigenvalues --   -0.71377  -0.70920  -0.70581  -0.70430  -0.69450
 Alpha  occ. eigenvalues --   -0.69272  -0.67274  -0.66995  -0.66541  -0.66182
 Alpha  occ. eigenvalues --   -0.64414  -0.63621  -0.63556  -0.63229  -0.63041
 Alpha  occ. eigenvalues --   -0.62235  -0.61633  -0.61529  -0.60965  -0.60084
 Alpha  occ. eigenvalues --   -0.60011  -0.59814  -0.59746  -0.59529  -0.59164
 Alpha  occ. eigenvalues --   -0.58896  -0.58398  -0.56862  -0.54775  -0.54659
 Alpha  occ. eigenvalues --   -0.54237  -0.54222  -0.53918  -0.53833  -0.53220
 Alpha  occ. eigenvalues --   -0.53041  -0.52995  -0.52837  -0.52665  -0.51837
 Alpha  occ. eigenvalues --   -0.51283  -0.51128  -0.50950  -0.50575  -0.50411
 Alpha  occ. eigenvalues --   -0.49712  -0.49590  -0.49296  -0.49131  -0.48904
 Alpha  occ. eigenvalues --   -0.48865  -0.48446  -0.48422  -0.47785  -0.47767
 Alpha  occ. eigenvalues --   -0.47687  -0.47455  -0.46955  -0.46945  -0.46754
 Alpha  occ. eigenvalues --   -0.46476  -0.46419  -0.46261  -0.46117  -0.46007
 Alpha  occ. eigenvalues --   -0.45854  -0.45777  -0.45529  -0.45193  -0.45055
 Alpha  occ. eigenvalues --   -0.44826  -0.44740  -0.44500  -0.44364  -0.44191
 Alpha  occ. eigenvalues --   -0.44039  -0.43787  -0.43767  -0.43582  -0.43356
 Alpha  occ. eigenvalues --   -0.43349  -0.43181  -0.43078  -0.42954  -0.42754
 Alpha  occ. eigenvalues --   -0.42704  -0.42252  -0.42218  -0.42010  -0.41753
 Alpha  occ. eigenvalues --   -0.41674  -0.41478  -0.41130  -0.41120  -0.41016
 Alpha  occ. eigenvalues --   -0.41002  -0.40790  -0.40741  -0.40517  -0.40421
 Alpha  occ. eigenvalues --   -0.40325  -0.40054  -0.39973  -0.39917  -0.39577
 Alpha  occ. eigenvalues --   -0.39568  -0.39511  -0.39470  -0.39432  -0.39297
 Alpha  occ. eigenvalues --   -0.39112  -0.38893  -0.38400  -0.38399  -0.38326
 Alpha  occ. eigenvalues --   -0.38320  -0.38131  -0.37910  -0.37674  -0.37663
 Alpha  occ. eigenvalues --   -0.37383  -0.37377  -0.37173  -0.37140  -0.37091
 Alpha  occ. eigenvalues --   -0.36825  -0.36763  -0.36638  -0.36600  -0.36535
 Alpha  occ. eigenvalues --   -0.36080  -0.36014  -0.35797  -0.35540  -0.35257
 Alpha  occ. eigenvalues --   -0.35203  -0.35103  -0.34504  -0.34109  -0.34089
 Alpha  occ. eigenvalues --   -0.33654  -0.33396  -0.33179  -0.32797  -0.32674
 Alpha  occ. eigenvalues --   -0.32629  -0.32457  -0.32215  -0.31945  -0.31779
 Alpha  occ. eigenvalues --   -0.31074  -0.31021  -0.29760  -0.29428  -0.29177
 Alpha  occ. eigenvalues --   -0.29119  -0.28594  -0.28550  -0.27399  -0.27363
 Alpha  occ. eigenvalues --   -0.26160  -0.25786  -0.25577  -0.25525  -0.25424
 Alpha  occ. eigenvalues --   -0.25348  -0.24800  -0.24760  -0.21192  -0.21180
 Alpha  occ. eigenvalues --   -0.19247  -0.18883
 Alpha virt. eigenvalues --   -0.11562  -0.11244  -0.05398  -0.05259  -0.04030
 Alpha virt. eigenvalues --   -0.03725  -0.02347  -0.01690  -0.01373  -0.00526
 Alpha virt. eigenvalues --   -0.00005   0.00530   0.00551   0.01322   0.01380

 Mulliken charges:
               1
     1  Mg  11.999980
     2  C    6.000263
     3  C    5.999744
     4  C    5.999586
     5  C    6.000184
     6  N    7.000038
     7  C    5.999415
     8  C    6.000272
     9  C    5.999704
    10  C    6.000568
    11  C    5.999917
    12  C    6.000105
    13  C    6.000055
    14  H    0.999850
    15  N    6.999866
    16  C    6.000865
    17  C    6.000427
    18  C    6.000131
    19  C    6.000859
    20  C    5.999891
    21  C    6.000297
    22  O    8.000481
    23  C    5.999901
    24  N    7.000068
    25  C    6.000618
    26  C    5.999849
    27  C    6.000191
    28  C    5.999418
    29  C    6.000003
    30  C    6.000082
    31  C    6.000037
    32  N    6.999976
    33  C    5.999399
    34  C    5.999235
    35  C    5.999953
    36  C    5.999478
    37  C    6.000127
    38  C    5.999642
    39  O    7.999390
    40  C    5.999985
    41  C    5.999917
    42  O    7.999900
    43  O    7.999983
    44  C    6.000018
    45  H    1.000278
    46  H    1.000163
    47  H    0.999852
    48  H    1.000019
    49  H    1.000106
    50  H    1.000120
    51  H    1.000287
    52  H    0.999988
    53  H    1.000091
    54  H    0.999881
    55  H    0.999723
    56  H    1.000109
    57  H    1.000419
    58  H    1.000432
    59  H    1.000371
    60  H    1.000245
    61  H    1.000237
    62  H    1.000119
    63  H    0.999975
    64  H    0.999982
    65  H    0.999947
    66  H    1.000140
    67  H    0.999976
    68  H    1.000000
    69  H    0.999777
    70  H    0.999861
    71  H    1.000043
    72  H    1.000002
    73  H    0.999468
    74  H    0.999700
    75  H    0.999461
    76  H    0.999795
    77  H    0.999933
    78  H    0.999956
    79  H    0.999878
    80  Mg  11.999931
    81  C    6.020214
    82  C    5.998160
    83  C    5.980961
    84  C    6.006127
    85  N    7.015701
    86  C    5.971930
    87  C    6.011771
    88  C    5.986061
    89  C    6.029934
    90  C    5.997445
    91  C    6.002258
    92  C    6.002247
    93  H    0.993552
    94  N    6.997454
    95  C    6.032641
    96  C    6.022862
    97  C    6.009844
    98  C    6.032556
    99  C    5.998137
   100  C    6.008290
   101  O    8.016618
   102  C    6.003836
   103  N    6.995453
   104  C    6.026881
   105  C    5.997179
   106  C    6.006424
   107  C    5.968766
   108  C    5.999549
   109  C    6.007415
   110  C    6.000471
   111  N    6.997982
   112  C    5.968373
   113  C    5.971351
   114  C    5.995998
   115  C    5.970782
   116  C    6.001239
   117  C    5.982168
   118  O    7.970781
   119  C    5.997897
   120  C    5.997797
   121  O    7.994506
   122  O    7.998789
   123  C    6.001585
   124  H    1.013355
   125  H    1.005819
   126  H    0.990904
   127  H    0.999035
   128  H    1.002433
   129  H    0.994594
   130  H    1.011183
   131  H    1.009765
   132  H    0.991549
   133  H    1.001986
   134  H    1.004798
   135  H    1.001022
   136  H    1.014624
   137  H    1.016362
   138  H    1.017689
   139  H    1.011151
   140  H    1.006930
   141  H    1.007760
   142  H    0.999570
   143  H    0.996884
   144  H    1.007956
   145  H    0.995542
   146  H    0.997670
   147  H    0.997743
   148  H    0.987832
   149  H    1.000006
   150  H    1.005162
   151  H    0.994444
   152  H    0.983127
   153  H    0.985932
   154  H    0.979396
   155  H    0.989517
   156  H    0.998133
   157  H    0.997056
   158  H    0.993154
 Sum of Mulliken charges = 624.00000

 Dipole moment (field-independent basis, Debye):
    X=             -8.1256    Y=             -5.8550    Z=              1.8711  Tot=             10.1886
 Quadrupole moment (field-independent basis, Debye-Ang):
   XX=            334.9796   YY=             -2.3892   ZZ=             -0.7457
   XY=            132.9955   XZ=            -35.6734   YZ=              0.9976

 Normal termination of Gaussian 16 at Thu Oct 14 23:11:50 2021.
