 Gaussian 16, Revision A.03,
 Gaussian 16:  ES64L-G16RevA.03 25-Dec-2016

 --------------------------------------------------------
 #p PBE1PBE/Def2SVP td=(nstates=5) density=(transition=1)
 --------------------------------------------------------

 --------------------------------
 TDDFT excited states in gaussian
 --------------------------------
 Symbolic Z-matrix:
 Charge =  0 Multiplicity = 1

                         Standard orientation:
 ---------------------------------------------------------------------
 Center     Atomic      Atomic             Coordinates (Angstroms)
 Number     Number       Type             X           Y           Z
 ---------------------------------------------------------------------
      1         12           0      -21.860892   -0.707605   -0.228774
      2          6           0      -23.377829    1.971965    1.306288
      3          6           0      -19.769335    1.557403   -1.888208
      4          6           0      -20.379748   -3.271720   -1.849241
      5          6           0      -24.157975   -2.809473    1.121341
      6          7           0      -21.803730    1.560896   -0.462423
      7          6           0      -22.388272    2.422563    0.474114
      8          6           0      -21.769868    3.833813    0.427637
      9          6           0      -20.692694    3.641457   -0.702559
     10          6           0      -20.682672    2.166205   -1.040964
     11          6           0      -20.947257    4.513505   -1.925537
     12          6           0      -21.156030    4.454131    1.732425
     13          6           0      -21.915428    5.741305    2.368178
     14          1           0      -20.986192    6.957348    2.433412
     15          7           0      -20.397100   -0.847664   -1.714248
     16          6           0      -19.568804    0.193508   -2.163504
     17          6           0      -18.439308   -0.321826   -2.944306
     18          6           0      -18.615357   -1.806511   -3.040020
     19          6           0      -19.800565   -2.074650   -2.131271
     20          6           0      -17.372720    0.568408   -3.543002
     21          6           0      -17.856129   -2.824160   -3.752101
     22          8           0      -18.257333   -3.997291   -3.760752
     23          6           0      -16.608463   -2.513399   -4.560229
     24          7           0      -22.287159   -2.661117   -0.384244
     25          6           0      -21.456869   -3.607057   -1.013536
     26          6           0      -21.853290   -5.117777   -0.761294
     27          6           0      -23.128580   -4.887083    0.202523
     28          6           0      -23.179880   -3.348008    0.333154
     29          6           0      -22.198301   -5.949501   -2.093377
     30          6           0      -22.956934   -5.620515    1.577106
     31          6           0      -24.166998   -6.251014    2.192068
     32          7           0      -23.538477   -0.436127    0.911556
     33          6           0      -24.371134   -1.423245    1.446544
     34          6           0      -25.289285   -0.863869    2.378805
     35          6           0      -24.856366    0.512760    2.428447
     36          6           0      -23.857430    0.689389    1.462687
     37          6           0      -26.328657   -1.487306    3.212500
     38          6           0      -25.187553    1.793026    2.971153
     39          8           0      -25.994744    2.204472    3.811840
     40          6           0      -24.310746    2.827777    2.130036
     41          6           0      -25.224190    3.712354    1.359282
     42          8           0      -25.530983    3.640742    0.234624
     43          8           0      -25.621118    4.793281    2.143045
     44          6           0      -25.997860    5.980544    1.404391
     45          1           0      -19.063924    2.262489   -2.332914
     46          1           0      -19.947546   -4.188464   -2.255575
     47          1           0      -24.801509   -3.497638    1.673312
     48          1           0      -22.522044    4.529230    0.056734
     49          1           0      -19.705916    3.975600   -0.380858
     50          1           0      -21.183255    3.868476   -2.771486
     51          1           0      -19.982014    4.994696   -2.078526
     52          1           0      -21.681119    5.308955   -1.797639
     53          1           0      -20.126226    4.737411    1.513376
     54          1           0      -21.149708    3.731618    2.548655
     55          1           0      -22.101130    5.411972    3.390659
     56          1           0      -22.814095    5.973282    1.797049
     57          1           0      -17.834652    1.081049   -4.387662
     58          1           0      -16.562438   -0.068752   -3.894012
     59          1           0      -17.056099    1.373701   -2.879812
     60          1           0      -16.467110   -3.372227   -5.216701
     61          1           0      -15.724521   -2.323258   -3.950569
     62          1           0      -16.682107   -1.727683   -5.311852
     63          1           0      -21.092550   -5.601236   -0.149256
     64          1           0      -24.069110   -5.288317   -0.175678
     65          1           0      -23.041268   -6.606579   -1.878455
     66          1           0      -21.452420   -6.669023   -2.428896
     67          1           0      -22.432870   -5.311569   -2.945736
     68          1           0      -22.480681   -5.012644    2.346203
     69          1           0      -22.310415   -6.494889    1.504885
     70          1           0      -24.358736   -5.657676    3.085954
     71          1           0      -24.103580   -7.236702    2.653052
     72          1           0      -25.007967   -6.185805    1.500917
     73          1           0      -26.041769   -2.522261    3.400702
     74          1           0      -27.215780   -1.474721    2.579406
     75          1           0      -26.535857   -0.831653    4.058461
     76          1           0      -23.713515    3.443509    2.802094
     77          1           0      -26.993873    5.747709    1.029309
     78          1           0      -25.288697    6.048560    0.579583
     79          1           0      -26.043179    6.857828    2.050331
     80         12           0       22.116319   -0.644036    0.287140
     81          6           0       21.373769    2.373865   -1.197047
     82          6           0       22.971621    1.145499    3.259396
     83          6           0       23.183174   -3.429561    1.652915
     84          6           0       21.430015   -2.325939   -2.690062
     85          7           0       22.130930    1.516892    0.873461
     86          6           0       21.758254    2.555834    0.120275
     87          6           0       21.808722    3.854575    0.989410
     88          6           0       22.463337    3.397507    2.372818
     89          6           0       22.587838    1.878632    2.144911
     90          6           0       23.867038    3.890579    2.667171
     91          6           0       20.468670    4.593474    1.123354
     92          6           0       20.612080    6.067571    0.783995
     93          1           0       19.665399    7.115458    1.387190
     94          7           0       22.884150   -1.073361    2.223243
     95          6           0       23.113174   -0.260291    3.295631
     96          6           0       23.562870   -0.966574    4.410909
     97          6           0       23.764812   -2.318218    3.961898
     98          6           0       23.254840   -2.334661    2.547256
     99          6           0       23.826751   -0.336772    5.770905
    100          6           0       24.393072   -3.488048    4.701585
    101          8           0       24.628159   -4.534135    4.066143
    102          6           0       24.836803   -3.378889    6.103203
    103          7           0       22.235957   -2.545903   -0.423218
    104          6           0       22.664352   -3.606276    0.348706
    105          6           0       22.685468   -4.992418   -0.396386
    106          6           0       21.846377   -4.600809   -1.686832
    107          6           0       21.847141   -3.062659   -1.618895
    108          6           0       24.043013   -5.705194   -0.776452
    109          6           0       20.446217   -5.325573   -1.935060
    110          6           0       19.296935   -4.819508   -1.103942
    111          7           0       21.665696   -0.152092   -1.588736
    112          6           0       21.408606   -0.895231   -2.725084
    113          6           0       21.054482   -0.089530   -3.821177
    114          6           0       20.997679    1.182274   -3.239549
    115          6           0       21.373324    1.117953   -1.866071
    116          6           0       20.702140   -0.656232   -5.130243
    117          6           0       20.801949    2.524602   -3.632356
    118          8           0       20.609203    2.956146   -4.770795
    119          6           0       21.008261    3.419787   -2.301545
    120          6           0       22.056457    4.395428   -2.543678
    121          8           0       23.246740    4.184648   -2.592594
    122          8           0       21.528673    5.579999   -2.826615
    123          6           0       22.393621    6.651716   -3.217891
    124          1           0       23.279317    1.705016    4.144757
    125          1           0       23.503027   -4.424719    1.967819
    126          1           0       21.227719   -2.891262   -3.602222
    127          1           0       22.544085    4.429275    0.427230
    128          1           0       21.838957    3.847139    3.145691
    129          1           0       24.257860    4.605411    1.942412
    130          1           0       24.570559    3.058811    2.642662
    131          1           0       23.930924    4.226823    3.702483
    132          1           0       19.988514    4.503326    2.097894
    133          1           0       19.763730    4.120162    0.440282
    134          1           0       20.397387    6.148252   -0.282219
    135          1           0       21.636642    6.334710    1.042169
    136          1           0       23.423623    0.674154    5.831920
    137          1           0       24.900352   -0.183484    5.882566
    138          1           0       23.525559   -1.003889    6.577717
    139          1           0       25.578269   -4.144039    6.335895
    140          1           0       23.967351   -3.590437    6.726390
    141          1           0       25.263379   -2.393728    6.290307
    142          1           0       22.038390   -5.728968    0.081005
    143          1           0       22.387588   -4.947028   -2.566474
    144          1           0       24.857417   -5.079913   -0.412702
    145          1           0       24.193550   -5.621664   -1.853505
    146          1           0       24.189333   -6.740147   -0.465965
    147          1           0       20.586990   -6.360003   -1.622583
    148          1           0       20.155348   -5.383414   -2.983246
    149          1           0       18.396243   -4.946106   -1.703615
    150          1           0       19.308226   -3.816355   -0.679572
    151          1           0       19.258928   -5.452816   -0.217601
    152          1           0       20.238611   -1.641772   -5.166432
    153          1           0       21.458189   -0.568124   -5.909521
    154          1           0       19.964129    0.068813   -5.472451
    155          1           0       20.068762    3.934071   -2.100099
    156          1           0       22.751385    7.228784   -2.364424
    157          1           0       21.793853    7.337300   -3.816233
    158          1           0       23.256458    6.254706   -3.752892
 ---------------------------------------------------------------------

 SCF Done:  E(RPBE1PBE) =  -4067.37930227     A.U. after   16 cycles

 Excitation energies and oscillator strengths:

 Excited State   1:      Singlet-A      1.8151 eV  683.08 nm  f=0.3917  <S**2>=0.000
     309 -> 315        0.14958
     312 -> 313        0.69579
     312 <- 313       -0.11534
 This state for optimization and/or second-order correction.
 Total Energy, E(TD-HF/TD-DFT) =  -4067.31259909
 Copying the excited state density for this state as the 1-particle RhoCI density.

 Excited State   2:      Singlet-A      1.8680 eV  663.71 nm  f=0.4009  <S**2>=0.000
     310 -> 316       -0.16553
     311 -> 314        0.69323
     311 <- 314       -0.11113

 Excited State   3:      Singlet-A      1.9321 eV  641.69 nm  f=0.0000  <S**2>=0.000
     311 -> 313        0.70711

 Excited State   4:      Singlet-A      1.9780 eV  626.81 nm  f=0.0000  <S**2>=0.000
     312 -> 314        0.70711

 Excited State   5:      Singlet-A      2.1895 eV  566.27 nm  f=0.1152  <S**2>=0.000
     309 -> 313        0.65561
     312 -> 315       -0.22804

 The electronic state is 1-A.
 Alpha  occ. eigenvalues --  -46.91377 -46.91134 -19.25445 -19.22910 -19.19820
 Alpha  occ. eigenvalues --  -19.18943 -19.18903 -19.18832 -19.18465 -19.18449
 Alpha  occ. eigenvalues --  -14.42062 -14.41870 -14.41708 -14.41576 -14.39891
 Alpha  occ. eigenvalues --  -14.39364 -14.38704 -14.38386 -10.35252 -10.35172
 Alpha  occ. eigenvalues --  -10.32247 -10.31970 -10.31729 -10.31569 -10.29445
 Alpha  occ. eigenvalues --  -10.29253 -10.28952 -10.28933 -10.28857 -10.28654
 Alpha  occ. eigenvalues --  -10.28563 -10.28476 -10.28440 -10.28416 -10.28194
 Alpha  occ. eigenvalues --  -10.27973 -10.27906 -10.27855 -10.27352 -10.27117
 Alpha  occ. eigenvalues --  -10.27073 -10.27020 -10.26829 -10.26823 -10.26423
 Alpha  occ. eigenvalues --  -10.26179 -10.26165 -10.26124 -10.26077 -10.26018
 Alpha  occ. eigenvalues --  -10.25933 -10.25909 -10.25825 -10.25711 -10.25557
 Alpha  occ. eigenvalues --  -10.25530 -10.25510 -10.25390 -10.25229 -10.25149
 Alpha  occ. eigenvalues --  -10.25095 -10.25087 -10.25025 -10.24922 -10.24878
 Alpha  occ. eigenvalues --  -10.24859 -10.24483 -10.24425 -10.24215 -10.24195
 Alpha  occ. eigenvalues --  -10.23958 -10.23950 -10.23896 -10.23858 -10.23688
 Alpha  occ. eigenvalues --  -10.23606 -10.23589 -10.23551 -10.23371 -10.23335
 Alpha  occ. eigenvalues --  -10.23257 -10.23078 -10.22832 -10.22542 -10.22482
 Alpha  occ. eigenvalues --  -10.22417  -3.13711  -3.13493  -1.86522  -1.86334
 Alpha  occ. eigenvalues --   -1.86096  -1.85953  -1.85886  -1.85721  -1.12723
 Alpha  occ. eigenvalues --   -1.11607  -1.04096  -1.03682  -1.03192  -1.03083
 Alpha  occ. eigenvalues --   -1.02657  -1.02600  -0.99515  -0.99318  -0.98399
 Alpha  occ. eigenvalues --   -0.98095  -0.97965  -0.97241  -0.96634  -0.95115
 Alpha  occ. eigenvalues --   -0.87104  -0.86477  -0.83696  -0.83481  -0.83057
 Alpha  occ. eigenvalues --   -0.82928  -0.82769  -0.82649  -0.81977  -0.81922
 Alpha  occ. eigenvalues --   -0.81784  -0.81585  -0.81100  -0.80809  -0.78895
 Alpha  occ. eigenvalues --   -0.78484  -0.78160  -0.77843  -0.77261  -0.76680
 Alpha  occ. eigenvalues --   -0.76552  -0.75962  -0.75588  -0.75259  -0.75005
 Alpha  occ. eigenvalues --   -0.74623  -0.72969  -0.72633  -0.71764  -0.71695
 Alpha  occ. eigenvalues --   -0.71255  -0.71029  -0.70304  -0.69659  -0.69638
 Alpha  occ. eigenvalues --   -0.69598  -0.67954  -0.67586  -0.66130  -0.65918
 Alpha  occ. eigenvalues --   -0.64035  -0.63636  -0.63337  -0.63142  -0.62442
 Alpha  occ. eigenvalues --   -0.62200  -0.61959  -0.61503  -0.60140  -0.59885
 Alpha  occ. eigenvalues --   -0.59819  -0.59468  -0.59461  -0.59177  -0.58926
 Alpha  occ. eigenvalues --   -0.58529  -0.56930  -0.55500  -0.54975  -0.54643
 Alpha  occ. eigenvalues --   -0.54623  -0.54014  -0.53631  -0.53614  -0.53193
 Alpha  occ. eigenvalues --   -0.53171  -0.52898  -0.52865  -0.52243  -0.52241
 Alpha  occ. eigenvalues --   -0.51164  -0.51066  -0.50641  -0.50117  -0.49802
 Alpha  occ. eigenvalues --   -0.49695  -0.49197  -0.48955  -0.48537  -0.48329
 Alpha  occ. eigenvalues --   -0.48150  -0.47830  -0.47785  -0.47592  -0.47340
 Alpha  occ. eigenvalues --   -0.47333  -0.46951  -0.46828  -0.46820  -0.46675
 Alpha  occ. eigenvalues --   -0.46429  -0.46417  -0.46227  -0.45998  -0.45907
 Alpha  occ. eigenvalues --   -0.45846  -0.45409  -0.45172  -0.44961  -0.44822
 Alpha  occ. eigenvalues --   -0.44799  -0.44548  -0.44495  -0.44420  -0.44321
 Alpha  occ. eigenvalues --   -0.44148  -0.44107  -0.43933  -0.43778  -0.43579
 Alpha  occ. eigenvalues --   -0.43495  -0.43288  -0.43269  -0.43111  -0.42855
 Alpha  occ. eigenvalues --   -0.42786  -0.42692  -0.42476  -0.42037  -0.41947
 Alpha  occ. eigenvalues --   -0.41671  -0.41665  -0.41564  -0.41274  -0.41188
 Alpha  occ. eigenvalues --   -0.41152  -0.40981  -0.40836  -0.40821  -0.40267
 Alpha  occ. eigenvalues --   -0.40241  -0.40171  -0.40080  -0.39909  -0.39819
 Alpha  occ. eigenvalues --   -0.39734  -0.39470  -0.39348  -0.39246  -0.39072
 Alpha  occ. eigenvalues --   -0.38705  -0.38452  -0.38440  -0.38367  -0.38317
 Alpha  occ. eigenvalues --   -0.38170  -0.38101  -0.37819  -0.37784  -0.37559
 Alpha  occ. eigenvalues --   -0.37416  -0.37261  -0.36901  -0.36830  -0.36591
 Alpha  occ. eigenvalues --   -0.36373  -0.36353  -0.36307  -0.36138  -0.36070
 Alpha  occ. eigenvalues --   -0.35975  -0.35937  -0.35892  -0.35543  -0.35428
 Alpha  occ. eigenvalues --   -0.35112  -0.34858  -0.34166  -0.34027  -0.33847
 Alpha  occ. eigenvalues --   -0.33722  -0.33154  -0.32817  -0.32773  -0.32725
 Alpha  occ. eigenvalues --   -0.32239  -0.32173  -0.31656  -0.31377  -0.31198
 Alpha  occ. eigenvalues --   -0.31191  -0.29857  -0.29690  -0.29474  -0.29201
 Alpha  occ. eigenvalues --   -0.28902  -0.28632  -0.28499  -0.27139  -0.27114
 Alpha  occ. eigenvalues --   -0.26078  -0.25895  -0.25548  -0.25530  -0.25461
 Alpha  occ. eigenvalues --   -0.25303  -0.25272  -0.24831  -0.21309  -0.21126
 Alpha  occ. eigenvalues --   -0.19125  -0.19097
 Alpha virt. eigenvalues --   -0.11724  -0.11530  -0.05810  -0.05067  -0.04278
 Alpha virt. eigenvalues --   -0.03745  -0.02212  -0.01939  -0.00574   0.00219
 Alpha virt. eigenvalues --    0.00796   0.01184   0.01208   0.01668   0.01738

 Mulliken charges:
               1
     1  Mg  12.002284
     2  C    5.990202
     3  C    6.010586
     4  C    6.015152
     5  C    5.993290
     6  N    6.995071
     7  C    6.024671
     8  C    5.988094
     9  C    6.008391
    10  C    5.974924
    11  C    6.001001
    12  C    5.998930
    13  C    5.996202
    14  H    1.008445
    15  N    7.000632
    16  C    5.966215
    17  C    5.971300
    18  C    5.987609
    19  C    5.972015
    20  C    6.002032
    21  C    5.988692
    22  O    7.970053
    23  C    6.006369
    24  N    7.001343
    25  C    5.967296
    26  C    6.013264
    27  C    5.987724
    28  C    6.030877
    29  C    6.002652
    30  C    5.994490
    31  C    6.000367
    32  N    7.000570
    33  C    6.035075
    34  C    6.027071
    35  C    6.004739
    36  C    6.024783
    37  C    5.999881
    38  C    6.016189
    39  O    8.032278
    40  C    5.999616
    41  C    6.000731
    42  O    8.008186
    43  O    7.999632
    44  C    5.998001
    45  H    0.991791
    46  H    0.993436
    47  H    1.009540
    48  H    1.002611
    49  H    1.000162
    50  H    1.002913
    51  H    1.000069
    52  H    0.987660
    53  H    1.009051
    54  H    0.997410
    55  H    0.997124
    56  H    0.997978
    57  H    0.980400
    58  H    0.986089
    59  H    0.980703
    60  H    0.986565
    61  H    0.990030
    62  H    0.992274
    63  H    0.997533
    64  H    1.003301
    65  H    0.989598
    66  H    1.001728
    67  H    1.001520
    68  H    1.000617
    69  H    1.011128
    70  H    0.995133
    71  H    1.004945
    72  H    1.000108
    73  H    1.017387
    74  H    1.017876
    75  H    1.012673
    76  H    1.010983
    77  H    1.002126
    78  H    1.006054
    79  H    1.004560
    80  Mg  12.000031
    81  C    6.000036
    82  C    5.999975
    83  C    6.000029
    84  C    6.000136
    85  N    6.999971
    86  C    6.000094
    87  C    5.999956
    88  C    6.000115
    89  C    5.999869
    90  C    6.000056
    91  C    5.999985
    92  C    5.999992
    93  H    1.000042
    94  N    7.000044
    95  C    5.999741
    96  C    5.999841
    97  C    5.999825
    98  C    5.999747
    99  C    6.000072
   100  C    5.999913
   101  O    7.999727
   102  C    6.000084
   103  N    7.000008
   104  C    5.999854
   105  C    6.000104
   106  C    5.999928
   107  C    6.000094
   108  C    6.000015
   109  C    5.999955
   110  C    5.999958
   111  N    6.999987
   112  C    6.000268
   113  C    6.000260
   114  C    6.000015
   115  C    6.000209
   116  C    5.999913
   117  C    6.000129
   118  O    8.000268
   119  C    5.999995
   120  C    6.000012
   121  O    8.000016
   122  O    8.000021
   123  C    5.999974
   124  H    0.999920
   125  H    0.999977
   126  H    1.000067
   127  H    0.999955
   128  H    0.999940
   129  H    0.999857
   130  H    1.000014
   131  H    0.999947
   132  H    1.000076
   133  H    0.999988
   134  H    0.999965
   135  H    0.999999
   136  H    0.999859
   137  H    0.999823
   138  H    0.999873
   139  H    0.999832
   140  H    0.999905
   141  H    0.999924
   142  H    0.999989
   143  H    1.000000
   144  H    1.000001
   145  H    0.999904
   146  H    0.999972
   147  H    1.000079
   148  H    1.000018
   149  H    1.000080
   150  H    0.999997
   151  H    1.000080
   152  H    1.000194
   153  H    1.000147
   154  H    1.000152
   155  H    1.000111
   156  H    1.000037
   157  H    1.000055
   158  H    0.999997
 Sum of Mulliken charges = 624.00000

 Dipole moment (field-independent basis, Debye):
    X=             -8.1795    Y=              1.3464    Z=              6.7148  Tot=             10.6680
 Quadrupole moment (field-independent basis, Debye-Ang):
   XX=            353.3364   YY=              1.2895   ZZ=             -4.8271
   XY=            -23.9703   XZ=           -146.7856   YZ=             -4.0751

 Normal termination of Gaussian 16 at Fri Oct 15 14:09:10 2021.
