 Gaussian 16, Revision A.03,
 Gaussian 16:  ES64L-G16RevA.03 25-Dec-2016

 --------------------------------------------------------
 #p PBE1PBE/Def2SVP td=(nstates=5) density=(transition=1)
 --------------------------------------------------------

 --------------------------------
 TDDFT excited states in gaussian
 --------------------------------
 Symbolic Z-matrix:
 Charge =  0 Multiplicity = 1

                         Standard orientation:
 ---------------------------------------------------------------------
 Center     Atomic      Atomic             Coordinates (Angstroms)
 Number     Number       Type             X           Y           Z
 ---------------------------------------------------------------------
      1         12           0       11.105035    0.135647    0.022793
      2          6           0        7.886716    1.084795    1.282930
      3          6           0       10.215890   -3.210171    0.753543
      4          6           0       13.725699   -0.868800   -1.816636
      5          6           0       11.471768    3.342386   -1.200200
      6          7           0        9.258327   -0.969545    0.932715
      7          6           0        8.118260   -0.314975    1.306834
      8          6           0        7.010061   -1.324844    1.559634
      9          6           0        7.900181   -2.634453    1.649058
     10          6           0        9.230399   -2.316805    1.080166
     11          6           0        8.078190   -3.285494    3.061751
     12          6           0        5.916635   -1.211775    0.449331
     13          6           0        4.383796   -1.217074    0.848274
     14          1           0        3.465788   -2.340735    0.334445
     15          7           0       11.967501   -1.671273   -0.314129
     16          6           0       11.480539   -2.948159    0.071111
     17          6           0       12.405986   -3.989004   -0.336742
     18          6           0       13.426131   -3.284779   -1.096962
     19          6           0       13.049656   -1.883673   -1.079510
     20          6           0       12.125734   -5.413775   -0.096630
     21          6           0       14.637239   -3.996652   -1.724505
     22          8           0       14.652402   -5.259073   -1.635451
     23          6           0       15.814373   -3.300518   -2.440074
     24          7           0       12.327577    1.009947   -1.573558
     25          6           0       13.434116    0.456378   -2.031223
     26          6           0       14.100322    1.422302   -2.956966
     27          6           0       13.381629    2.769892   -2.680188
     28          6           0       12.239088    2.347744   -1.808539
     29          6           0       15.680962    1.578760   -2.937416
     30          6           0       12.893538    3.574170   -3.993138
     31          6           0       13.532987    4.951394   -4.296139
     32          7           0       10.078703    1.890971    0.177093
     33          6           0       10.333420    3.097514   -0.356723
     34          6           0        9.337509    4.042773   -0.006681
     35          6           0        8.381047    3.291000    0.679670
     36          6           0        8.851222    1.954617    0.736925
     37          6           0        9.245019    5.493357   -0.262612
     38          6           0        7.095951    3.433774    1.291397
     39          8           0        6.391218    4.416721    1.343496
     40          6           0        6.677530    1.882823    1.699287
     41          6           0        6.449755    1.791982    3.146395
     42          8           0        7.160333    2.305058    4.020094
     43          8           0        5.327257    1.010936    3.320993
     44          6           0        4.902432    0.783696    4.701278
     45          1           0       10.002299   -4.260455    0.957795
     46          1           0       14.520173   -1.148410   -2.511170
     47          1           0       11.649056    4.407684   -1.363091
     48          1           0        6.656999   -1.141379    2.574745
     49          1           0        7.369731   -3.223594    0.900048
     50          1           0        9.149388   -3.338901    3.261334
     51          1           0        7.701179   -4.305396    3.134383
     52          1           0        7.677638   -2.712652    3.898676
     53          1           0        6.152759   -2.110692   -0.119703
     54          1           0        6.029640   -0.382161   -0.248212
     55          1           0        4.011439   -0.246947    0.519689
     56          1           0        4.317106   -1.102935    1.929801
     57          1           0       11.128538   -5.600082   -0.496059
     58          1           0       12.057314   -5.603790    0.974296
     59          1           0       12.868740   -6.142296   -0.422186
     60          1           0       15.451690   -2.929242   -3.398713
     61          1           0       16.645189   -3.994728   -2.318253
     62          1           0       16.028473   -2.458419   -1.781084
     63          1           0       13.897348    1.071679   -3.968121
     64          1           0       14.084103    3.259884   -2.005874
     65          1           0       15.933163    1.881006   -3.954161
     66          1           0       16.118607    0.624209   -2.645597
     67          1           0       15.901765    2.384860   -2.237522
     68          1           0       11.817186    3.666421   -3.848969
     69          1           0       12.971780    2.892234   -4.839761
     70          1           0       12.793536    5.723672   -4.503797
     71          1           0       14.203520    4.841781   -5.148883
     72          1           0       14.198617    5.307856   -3.509806
     73          1           0        8.534313    5.977078    0.406722
     74          1           0        8.888545    5.434202   -1.291137
     75          1           0       10.255498    5.872230   -0.415350
     76          1           0        5.867518    1.513272    1.071487
     77          1           0        4.812227    1.718457    5.255085
     78          1           0        5.604020    0.110969    5.196745
     79          1           0        3.916317    0.319368    4.689642
     80         12           0      -10.639468   -0.015688   -0.475796
     81          6           0       -8.090705   -1.096842    1.500567
     82          6           0      -10.487680    3.119406    0.933115
     83          6           0      -13.299426    0.864944   -2.375765
     84          6           0      -11.076301   -3.355864   -1.545450
     85          7           0       -9.560277    0.841714    1.213697
     86          6           0       -8.377201    0.304220    1.614299
     87          6           0       -7.508823    1.264835    2.353661
     88          6           0       -8.478755    2.557218    2.352466
     89          6           0       -9.596977    2.171837    1.440543
     90          6           0       -9.007020    2.933091    3.810439
     91          6           0       -6.174421    1.511769    1.506762
     92          6           0       -4.943776    2.011679    2.266507
     93          1           0       -4.976926    2.584092    3.705516
     94          7           0      -11.708994    1.752158   -0.800192
     95          6           0      -11.493864    2.942119   -0.085910
     96          6           0      -12.459720    3.902968   -0.566106
     97          6           0      -13.257946    3.274266   -1.543312
     98          6           0      -12.718082    1.924100   -1.625879
     99          6           0      -12.458709    5.362151   -0.053662
    100          6           0      -14.542250    3.886621   -2.312861
    101          8           0      -15.093783    3.307723   -3.257400
    102          6           0      -15.172845    5.230699   -1.987995
    103          7           0      -11.966325   -1.130832   -1.852710
    104          6           0      -13.000677   -0.503374   -2.461808
    105          6           0      -13.948718   -1.502723   -3.122604
    106          6           0      -13.035550   -2.860083   -3.135995
    107          6           0      -11.879641   -2.446333   -2.211710
    108          6           0      -15.410881   -1.610418   -2.489281
    109          6           0      -12.349347   -3.250489   -4.541795
    110          6           0      -12.470737   -4.666787   -5.073315
    111          7           0       -9.773182   -1.894261   -0.187084
    112          6           0      -10.036693   -3.129389   -0.648426
    113          6           0       -9.004239   -4.089026   -0.145684
    114          6           0       -8.193435   -3.263170    0.668580
    115          6           0       -8.802022   -1.984402    0.686715
    116          6           0       -8.793977   -5.534541   -0.428230
    117          6           0       -7.041890   -3.341723    1.486883
    118          8           0       -6.301801   -4.312477    1.747415
    119          6           0       -6.920193   -1.937176    2.072503
    120          6           0       -7.014569   -2.022439    3.511948
    121          8           0       -7.855748   -2.495134    4.210589
    122          8           0       -5.930335   -1.308558    4.013606
    123          6           0       -5.710330   -1.111570    5.497577
    124          1           0      -10.355289    4.178353    1.162833
    125          1           0      -14.213721    1.132548   -2.910178
    126          1           0      -11.266861   -4.422762   -1.674548
    127          1           0       -7.171226    1.064199    3.370264
    128          1           0       -7.969766    3.434197    1.952586
    129          1           0       -9.117481    3.997417    4.016775
    130          1           0       -8.407466    2.406706    4.552949
    131          1           0      -10.012960    2.518864    3.885676
    132          1           0       -6.344227    2.211655    0.688345
    133          1           0       -5.941078    0.545038    1.059854
    134          1           0       -4.484507    2.758013    1.617074
    135          1           0       -4.205686    1.210941    2.292853
    136          1           0      -11.649420    5.594039    0.638585
    137          1           0      -13.431757    5.529175    0.407084
    138          1           0      -12.404451    6.007326   -0.930838
    139          1           0      -14.431533    5.961813   -2.308403
    140          1           0      -15.177391    5.442702   -0.918633
    141          1           0      -16.203300    5.263411   -2.341233
    142          1           0      -14.074141   -1.198904   -4.162551
    143          1           0      -13.611494   -3.720799   -2.795492
    144          1           0      -15.624520   -2.626372   -2.156334
    145          1           0      -16.156861   -1.283789   -3.212904
    146          1           0      -15.484031   -1.003378   -1.586607
    147          1           0      -11.298132   -2.964370   -4.572934
    148          1           0      -12.790497   -2.586284   -5.284365
    149          1           0      -11.453714   -5.027304   -5.223586
    150          1           0      -13.060869   -4.729807   -5.987154
    151          1           0      -12.899483   -5.311218   -4.304584
    152          1           0       -9.466204   -5.959191   -1.173625
    153          1           0       -8.928371   -6.130671    0.474732
    154          1           0       -7.771189   -5.668722   -0.779796
    155          1           0       -5.974931   -1.461511    1.809497
    156          1           0       -6.531489   -1.550644    6.064571
    157          1           0       -5.714151   -0.045582    5.728972
    158          1           0       -4.760838   -1.600338    5.715749
 ---------------------------------------------------------------------

 SCF Done:  E(RPBE1PBE) =  -4067.35861199     A.U. after   16 cycles

 Excitation energies and oscillator strengths:

 Excited State   1:      Singlet-A      1.8543 eV  668.64 nm  f=0.0000  <S**2>=0.000
     312 -> 313        0.70709
 This state for optimization and/or second-order correction.
 Total Energy, E(TD-HF/TD-DFT) =  -4067.29046917
 Copying the excited state density for this state as the 1-particle RhoCI density.

 Excited State   2:      Singlet-A      1.8629 eV  665.56 nm  f=0.3629  <S**2>=0.000
     309 -> 315        0.18020
     311 -> 313        0.69238
     311 <- 313       -0.10917

 Excited State   3:      Singlet-A      1.8920 eV  655.32 nm  f=0.3978  <S**2>=0.000
     310 -> 316       -0.18618
     312 -> 314        0.68952
     312 <- 314       -0.10201

 Excited State   4:      Singlet-A      1.9914 eV  622.60 nm  f=0.0000  <S**2>=0.000
     311 -> 314        0.70709

 Excited State   5:      Singlet-A      2.2343 eV  554.92 nm  f=0.1040  <S**2>=0.000
     310 -> 314        0.65106
     312 -> 316        0.26640

 The electronic state is 1-A.
 Alpha  occ. eigenvalues --  -46.92778 -46.92284 -19.26866 -19.24359 -19.20729
 Alpha  occ. eigenvalues --  -19.19978 -19.19748 -19.19495 -19.18962 -19.18412
 Alpha  occ. eigenvalues --  -14.42002 -14.41377 -14.41147 -14.40961 -14.39594
 Alpha  occ. eigenvalues --  -14.39444 -14.39230 -14.38959 -10.37035 -10.35605
 Alpha  occ. eigenvalues --  -10.33494 -10.32592 -10.32465 -10.31536 -10.29630
 Alpha  occ. eigenvalues --  -10.29401 -10.29142 -10.28916 -10.28488 -10.28446
 Alpha  occ. eigenvalues --  -10.28343 -10.28274 -10.28108 -10.28042 -10.28020
 Alpha  occ. eigenvalues --  -10.28000 -10.27721 -10.27611 -10.27497 -10.27430
 Alpha  occ. eigenvalues --  -10.26752 -10.26491 -10.26427 -10.26393 -10.26331
 Alpha  occ. eigenvalues --  -10.26317 -10.26297 -10.26129 -10.26126 -10.26053
 Alpha  occ. eigenvalues --  -10.25999 -10.25835 -10.25785 -10.25669 -10.25577
 Alpha  occ. eigenvalues --  -10.25557 -10.25421 -10.25411 -10.25361 -10.25346
 Alpha  occ. eigenvalues --  -10.25192 -10.25082 -10.25065 -10.25065 -10.25061
 Alpha  occ. eigenvalues --  -10.24907 -10.24905 -10.24893 -10.24794 -10.24296
 Alpha  occ. eigenvalues --  -10.24151 -10.24005 -10.23996 -10.23976 -10.23860
 Alpha  occ. eigenvalues --  -10.23766 -10.23711 -10.23690 -10.23590 -10.23565
 Alpha  occ. eigenvalues --  -10.23552 -10.23525 -10.22784 -10.22507 -10.22381
 Alpha  occ. eigenvalues --  -10.22288  -3.14770  -3.14417  -1.87631  -1.87246
 Alpha  occ. eigenvalues --   -1.87126  -1.87004  -1.86779  -1.86657  -1.11250
 Alpha  occ. eigenvalues --   -1.10344  -1.05590  -1.04320  -1.02982  -1.02915
 Alpha  occ. eigenvalues --   -1.02019  -1.01973  -1.00202  -1.00110  -0.99400
 Alpha  occ. eigenvalues --   -0.99102  -0.98322  -0.98297  -0.97283  -0.97024
 Alpha  occ. eigenvalues --   -0.87823  -0.87482  -0.83668  -0.82951  -0.82605
 Alpha  occ. eigenvalues --   -0.82500  -0.82401  -0.82279  -0.81841  -0.81809
 Alpha  occ. eigenvalues --   -0.81339  -0.81192  -0.80528  -0.80330  -0.78935
 Alpha  occ. eigenvalues --   -0.78654  -0.78105  -0.77740  -0.76974  -0.76627
 Alpha  occ. eigenvalues --   -0.76193  -0.75817  -0.75693  -0.75455  -0.74783
 Alpha  occ. eigenvalues --   -0.74672  -0.72756  -0.72578  -0.71955  -0.71806
 Alpha  occ. eigenvalues --   -0.71390  -0.71175  -0.70572  -0.70487  -0.69695
 Alpha  occ. eigenvalues --   -0.69553  -0.67664  -0.67032  -0.66655  -0.66448
 Alpha  occ. eigenvalues --   -0.64165  -0.63837  -0.63728  -0.63002  -0.62822
 Alpha  occ. eigenvalues --   -0.62616  -0.61206  -0.60586  -0.60436  -0.60142
 Alpha  occ. eigenvalues --   -0.59717  -0.59662  -0.59641  -0.59278  -0.59073
 Alpha  occ. eigenvalues --   -0.58804  -0.57500  -0.56348  -0.55073  -0.54714
 Alpha  occ. eigenvalues --   -0.54548  -0.54456  -0.54048  -0.53796  -0.53463
 Alpha  occ. eigenvalues --   -0.53386  -0.52915  -0.52905  -0.52317  -0.52219
 Alpha  occ. eigenvalues --   -0.50772  -0.50661  -0.50422  -0.50161  -0.50149
 Alpha  occ. eigenvalues --   -0.49813  -0.49433  -0.49110  -0.48680  -0.48326
 Alpha  occ. eigenvalues --   -0.48297  -0.47968  -0.47691  -0.47555  -0.47505
 Alpha  occ. eigenvalues --   -0.47344  -0.47088  -0.46735  -0.46626  -0.46603
 Alpha  occ. eigenvalues --   -0.46321  -0.46239  -0.46149  -0.45994  -0.45911
 Alpha  occ. eigenvalues --   -0.45879  -0.45391  -0.45153  -0.45114  -0.44957
 Alpha  occ. eigenvalues --   -0.44575  -0.44516  -0.44461  -0.44216  -0.44216
 Alpha  occ. eigenvalues --   -0.44052  -0.44026  -0.43725  -0.43541  -0.43478
 Alpha  occ. eigenvalues --   -0.43156  -0.42943  -0.42789  -0.42602  -0.42553
 Alpha  occ. eigenvalues --   -0.42431  -0.42344  -0.42317  -0.42307  -0.42162
 Alpha  occ. eigenvalues --   -0.41950  -0.41745  -0.41619  -0.41357  -0.41285
 Alpha  occ. eigenvalues --   -0.41172  -0.41125  -0.40950  -0.40878  -0.40795
 Alpha  occ. eigenvalues --   -0.40676  -0.40359  -0.40357  -0.40054  -0.39898
 Alpha  occ. eigenvalues --   -0.39777  -0.39441  -0.39291  -0.39151  -0.39031
 Alpha  occ. eigenvalues --   -0.38781  -0.38745  -0.38568  -0.38538  -0.38423
 Alpha  occ. eigenvalues --   -0.38351  -0.38095  -0.38073  -0.37919  -0.37761
 Alpha  occ. eigenvalues --   -0.37641  -0.37507  -0.37226  -0.37142  -0.36643
 Alpha  occ. eigenvalues --   -0.36481  -0.36423  -0.36154  -0.36119  -0.35991
 Alpha  occ. eigenvalues --   -0.35899  -0.35897  -0.35683  -0.35676  -0.35262
 Alpha  occ. eigenvalues --   -0.35175  -0.35088  -0.34686  -0.34332  -0.33918
 Alpha  occ. eigenvalues --   -0.33735  -0.33406  -0.33205  -0.32799  -0.32639
 Alpha  occ. eigenvalues --   -0.32575  -0.32552  -0.31832  -0.31597  -0.31509
 Alpha  occ. eigenvalues --   -0.31058  -0.30854  -0.29929  -0.29423  -0.29357
 Alpha  occ. eigenvalues --   -0.29264  -0.28681  -0.28634  -0.26987  -0.26810
 Alpha  occ. eigenvalues --   -0.26127  -0.26117  -0.25998  -0.25719  -0.25680
 Alpha  occ. eigenvalues --   -0.25491  -0.25191  -0.24895  -0.21142  -0.20793
 Alpha  occ. eigenvalues --   -0.18940  -0.18777
 Alpha virt. eigenvalues --   -0.11348  -0.11003  -0.05216  -0.05190  -0.04206
 Alpha virt. eigenvalues --   -0.03925  -0.02125  -0.02039  -0.00553  -0.00192
 Alpha virt. eigenvalues --   -0.00087   0.00783   0.00946   0.01355   0.01584

 Mulliken charges:
               1
     1  Mg  12.000000
     2  C    6.000000
     3  C    6.000000
     4  C    6.000000
     5  C    6.000000
     6  N    7.000000
     7  C    6.000000
     8  C    6.000000
     9  C    6.000000
    10  C    6.000000
    11  C    6.000000
    12  C    6.000000
    13  C    6.000000
    14  H    1.000000
    15  N    7.000000
    16  C    6.000000
    17  C    6.000000
    18  C    6.000000
    19  C    6.000000
    20  C    6.000000
    21  C    6.000000
    22  O    8.000000
    23  C    6.000000
    24  N    7.000000
    25  C    6.000000
    26  C    6.000000
    27  C    6.000000
    28  C    6.000000
    29  C    6.000000
    30  C    6.000000
    31  C    6.000000
    32  N    7.000000
    33  C    6.000000
    34  C    6.000000
    35  C    6.000000
    36  C    6.000000
    37  C    6.000000
    38  C    6.000000
    39  O    8.000000
    40  C    6.000000
    41  C    6.000000
    42  O    8.000000
    43  O    8.000000
    44  C    6.000000
    45  H    1.000000
    46  H    1.000000
    47  H    1.000000
    48  H    1.000000
    49  H    1.000000
    50  H    1.000000
    51  H    1.000000
    52  H    1.000000
    53  H    1.000000
    54  H    1.000000
    55  H    1.000000
    56  H    1.000000
    57  H    1.000000
    58  H    1.000000
    59  H    1.000000
    60  H    1.000000
    61  H    1.000000
    62  H    1.000000
    63  H    1.000000
    64  H    1.000000
    65  H    1.000000
    66  H    1.000000
    67  H    1.000000
    68  H    1.000000
    69  H    1.000000
    70  H    1.000000
    71  H    1.000000
    72  H    1.000000
    73  H    1.000000
    74  H    1.000000
    75  H    1.000000
    76  H    1.000000
    77  H    1.000000
    78  H    1.000000
    79  H    1.000000
    80  Mg  12.000000
    81  C    6.000000
    82  C    6.000000
    83  C    6.000000
    84  C    6.000000
    85  N    7.000000
    86  C    6.000000
    87  C    6.000000
    88  C    6.000000
    89  C    6.000000
    90  C    6.000000
    91  C    6.000000
    92  C    6.000000
    93  H    1.000000
    94  N    7.000000
    95  C    6.000000
    96  C    6.000000
    97  C    6.000000
    98  C    6.000000
    99  C    6.000000
   100  C    6.000000
   101  O    8.000000
   102  C    6.000000
   103  N    7.000000
   104  C    6.000000
   105  C    6.000000
   106  C    6.000000
   107  C    6.000000
   108  C    6.000000
   109  C    6.000000
   110  C    6.000000
   111  N    7.000000
   112  C    6.000000
   113  C    6.000000
   114  C    6.000000
   115  C    6.000000
   116  C    6.000000
   117  C    6.000000
   118  O    8.000000
   119  C    6.000000
   120  C    6.000000
   121  O    8.000000
   122  O    8.000000
   123  C    6.000000
   124  H    1.000000
   125  H    1.000000
   126  H    1.000000
   127  H    1.000000
   128  H    1.000000
   129  H    1.000000
   130  H    1.000000
   131  H    1.000000
   132  H    1.000000
   133  H    1.000000
   134  H    1.000000
   135  H    1.000000
   136  H    1.000000
   137  H    1.000000
   138  H    1.000000
   139  H    1.000000
   140  H    1.000000
   141  H    1.000000
   142  H    1.000000
   143  H    1.000000
   144  H    1.000000
   145  H    1.000000
   146  H    1.000000
   147  H    1.000000
   148  H    1.000000
   149  H    1.000000
   150  H    1.000000
   151  H    1.000000
   152  H    1.000000
   153  H    1.000000
   154  H    1.000000
   155  H    1.000000
   156  H    1.000000
   157  H    1.000000
   158  H    1.000000
 Sum of Mulliken charges = 624.00000

 Dipole moment (field-independent basis, Debye):
    X=             -0.0000    Y=              0.0000    Z=             -0.0000  Tot=              0.0000
 Quadrupole moment (field-independent basis, Debye-Ang):
   XX=             -0.0000   YY=              0.0000   ZZ=             -0.0000
   XY=              0.0000   XZ=              0.0000   YZ=             -0.0000

 Normal termination of Gaussian 16 at Thu Oct 14 10:23:02 2021.
