 Gaussian 16, Revision A.03,
 Gaussian 16:  ES64L-G16RevA.03 25-Dec-2016

 --------------------------------------------------------
 #p PBE1PBE/Def2SVP td=(nstates=5) density=(transition=1)
 --------------------------------------------------------

 --------------------------------
 TDDFT excited states in gaussian
 --------------------------------
 Symbolic Z-matrix:
 Charge =  0 Multiplicity = 1

                         Standard orientation:
 ---------------------------------------------------------------------
 Center     Atomic      Atomic             Coordinates (Angstroms)
 Number     Number       Type             X           Y           Z
 ---------------------------------------------------------------------
      1         12           0      -16.318910   -0.863953    0.075542
      2          6           0      -18.159667    2.110096    0.929268
      3          6           0      -13.695532    1.180318   -0.694322
      4          6           0      -14.720245   -3.608289   -1.003510
      5          6           0      -19.198117   -2.632885    0.439145
      6          7           0      -15.966395    1.486246    0.175307
      7          6           0      -16.875926    2.411163    0.599232
      8          6           0      -16.167778    3.709293    0.692635
      9          6           0      -14.776194    3.464873    0.046012
     10          6           0      -14.752935    1.940971   -0.253415
     11          6           0      -14.591399    4.289987   -1.267188
     12          6           0      -16.081205    4.314778    2.071275
     13          6           0      -15.586101    5.743924    2.224105
     14          1           0      -16.405149    6.645908    3.048431
     15          7           0      -14.452667   -1.178341   -0.620608
     16          6           0      -13.515997   -0.168293   -0.974499
     17          6           0      -12.273945   -0.865309   -1.358022
     18          6           0      -12.622372   -2.203480   -1.521730
     19          6           0      -14.023248   -2.371446   -1.094543
     20          6           0      -11.007220   -0.096806   -1.671561
     21          6           0      -11.753870   -3.399919   -1.966882
     22          8           0      -12.211357   -4.510093   -2.296944
     23          6           0      -10.293328   -3.199522   -1.965032
     24          7           0      -16.881191   -2.869486   -0.313037
     25          6           0      -16.094667   -3.839580   -0.731852
     26          6           0      -16.825043   -5.201088   -0.892828
     27          6           0      -18.151137   -4.894766   -0.193297
     28          6           0      -18.060919   -3.402688    0.030948
     29          6           0      -17.004946   -5.583414   -2.400751
     30          6           0      -18.440847   -5.650187    1.084117
     31          6           0      -19.873509   -6.184018    1.260517
     32          7           0      -18.231279   -0.382017    0.663975
     33          6           0      -19.302196   -1.242130    0.771707
     34          6           0      -20.515556   -0.537670    1.285274
     35          6           0      -20.035378    0.756204    1.309711
     36          6           0      -18.701685    0.831217    0.890272
     37          6           0      -21.800071   -1.126180    1.773819
     38          6           0      -20.449458    2.114931    1.627314
     39          8           0      -21.531424    2.482573    2.071040
     40          6           0      -19.254462    3.069024    1.400287
     41          6           0      -19.741442    4.146095    0.576700
     42          8           0      -19.966292    4.110001   -0.657100
     43          8           0      -19.776077    5.305895    1.289533
     44          6           0      -19.972552    6.551380    0.580403
     45          1           0      -12.820796    1.811490   -0.862841
     46          1           0      -14.263649   -4.464592   -1.503921
     47          1           0      -20.098996   -3.233561    0.298861
     48          1           0      -16.762719    4.352617    0.045671
     49          1           0      -13.955476    3.735181    0.710660
     50          1           0      -13.726500    4.924795   -1.462297
     51          1           0      -15.460503    4.947261   -1.289516
     52          1           0      -14.744263    3.730029   -2.190173
     53          1           0      -15.369432    3.774111    2.695330
     54          1           0      -16.965704    4.095675    2.668760
     55          1           0      -15.511003    6.230915    1.252993
     56          1           0      -14.700471    5.671626    2.854866
     57          1           0      -10.505435   -0.414042   -2.585476
     58          1           0      -10.265233   -0.120002   -0.873682
     59          1           0      -11.152915    0.964231   -1.875721
     60          1           0      -10.002612   -2.797929   -0.994202
     61          1           0      -10.163221   -2.450234   -2.745115
     62          1           0       -9.848634   -4.191122   -2.040681
     63          1           0      -16.225032   -5.931009   -0.348334
     64          1           0      -19.051072   -5.023967   -0.793888
     65          1           0      -18.052349   -5.554919   -2.699681
     66          1           0      -16.679700   -6.606165   -2.591339
     67          1           0      -16.441767   -4.833024   -2.955798
     68          1           0      -18.189674   -5.063525    1.967197
     69          1           0      -17.619555   -6.362331    1.157475
     70          1           0      -19.801730   -7.064863    1.897787
     71          1           0      -20.397605   -6.323847    0.314565
     72          1           0      -20.349093   -5.339091    1.758086
     73          1           0      -21.876841   -1.196599    2.858990
     74          1           0      -21.923691   -2.049433    1.208479
     75          1           0      -22.633553   -0.569772    1.343282
     76          1           0      -19.095321    3.535447    2.372473
     77          1           0      -19.966312    6.462011   -0.506236
     78          1           0      -19.274209    7.309304    0.934272
     79          1           0      -20.936846    7.004906    0.811136
     80         12           0       16.723444   -0.587031    0.250487
     81          6           0       15.512068    2.354327   -1.069702
     82          6           0       18.566736    1.354687    2.616980
     83          6           0       18.197467   -3.311053    1.331982
     84          6           0       15.036863   -2.425572   -2.186469
     85          7           0       16.944810    1.603856    0.656201
     86          6           0       16.333378    2.604854    0.016099
     87          6           0       16.686278    3.951186    0.728506
     88          6           0       17.783016    3.561574    1.822405
     89          6           0       17.818125    2.029389    1.662406
     90          6           0       19.201559    4.038300    1.576215
     91          6           0       15.478659    4.727781    1.274594
     92          6           0       15.495995    6.175483    0.813559
     93          1           0       14.821432    7.279010    1.641392
     94          7           0       18.119656   -0.918916    1.819826
     95          6           0       18.710372   -0.049419    2.690792
     96          6           0       19.521037   -0.698816    3.621391
     97          6           0       19.551527   -2.078991    3.217011
     98          6           0       18.578805   -2.167154    2.073511
     99          6           0       20.244822    0.003976    4.760729
    100          6           0       20.397511   -3.217375    3.763585
    101          8           0       20.394180   -4.304407    3.153914
    102          6           0       21.303731   -3.035906    4.912141
    103          7           0       16.584745   -2.529849   -0.334525
    104          6           0       17.254905   -3.552427    0.305006
    105          6           0       17.012364   -4.980319   -0.310865
    106          6           0       15.775259   -4.646231   -1.249290
    107          6           0       15.801548   -3.107192   -1.283806
    108          6           0       18.150284   -5.745806   -1.094827
    109          6           0       14.375900   -5.351535   -0.946486
    110          6           0       13.590655   -4.770527    0.199606
    111          7           0       15.645535   -0.196496   -1.377264
    112          6           0       15.006230   -0.999329   -2.302675
    113          6           0       14.291925   -0.251811   -3.255021
    114          6           0       14.443707    1.053141   -2.772249
    115          6           0       15.276096    1.061404   -1.615206
    116          6           0       13.503164   -0.886555   -4.319871
    117          6           0       14.124484    2.374092   -3.156482
    118          8           0       13.546102    2.741941   -4.180975
    119          6           0       14.784439    3.341348   -2.041201
    120          6           0       15.682803    4.276238   -2.695525
    121          8           0       16.780488    4.035217   -3.143400
    122          8           0       15.090773    5.453997   -2.851087
    123          6           0       15.765402    6.480226   -3.586982
    124          1           0       19.165415    1.958248    3.301741
    125          1           0       18.606117   -4.293040    1.577983
    126          1           0       14.527537   -3.038970   -2.932713
    127          1           0       17.179132    4.474320   -0.090341
    128          1           0       17.469049    4.070569    2.734381
    129          1           0       19.314931    4.699708    0.716746
    130          1           0       19.851060    3.190348    1.360563
    131          1           0       19.624044    4.433595    2.500478
    132          1           0       15.369728    4.706649    2.359072
    133          1           0       14.578726    4.231483    0.912161
    134          1           0       14.921913    6.197960   -0.113446
    135          1           0       16.546441    6.433440    0.680267
    136          1           0       19.889709    1.025872    4.894253
    137          1           0       21.289810    0.138505    4.480575
    138          1           0       20.244180   -0.607053    5.662588
    139          1           0       22.078850   -3.803052    4.919470
    140          1           0       20.707034   -3.189887    5.811755
    141          1           0       21.769964   -2.051628    4.875529
    142          1           0       16.572356   -5.672049    0.408176
    143          1           0       15.974078   -5.056396   -2.238624
    144          1           0       19.041215   -5.119283   -1.078809
    145          1           0       17.914556   -5.729648   -2.159653
    146          1           0       18.394777   -6.763719   -0.789845
    147          1           0       14.615894   -6.368679   -0.637740
    148          1           0       13.736602   -5.464455   -1.821239
    149          1           0       12.536927   -4.911313   -0.038555
    150          1           0       13.750889   -3.744573    0.528656
    151          1           0       13.864428   -5.349255    1.081789
    152          1           0       13.055117   -1.861425   -4.129240
    153          1           0       13.938867   -0.862350   -5.317981
    154          1           0       12.692918   -0.165991   -4.428246
    155          1           0       13.975410    3.888428   -1.557563
    156          1           0       16.399845    7.098247   -2.950633
    157          1           0       14.994995    7.143037   -3.980576
    158          1           0       16.386044    6.032247   -4.363158
 ---------------------------------------------------------------------

 SCF Done:  E(RPBE1PBE) =  -4067.40233909     A.U. after   16 cycles

 Excitation energies and oscillator strengths:

 Excited State   1:      Singlet-A      1.8148 eV  683.18 nm  f=0.0000  <S**2>=0.000
     312 -> 313        0.70710
 This state for optimization and/or second-order correction.
 Total Energy, E(TD-HF/TD-DFT) =  -4067.33564635
 Copying the excited state density for this state as the 1-particle RhoCI density.

 Excited State   2:      Singlet-A      1.8680 eV  663.72 nm  f=0.4072  <S**2>=0.000
     309 -> 316       -0.16553
     311 -> 313        0.69303
     311 <- 313       -0.11109

 Excited State   3:      Singlet-A      1.9172 eV  646.71 nm  f=0.3643  <S**2>=0.000
     310 -> 315        0.19064
     312 -> 314        0.68767

 Excited State   4:      Singlet-A      2.1880 eV  566.66 nm  f=0.0000  <S**2>=0.000
     311 -> 314        0.70710

 Excited State   5:      Singlet-A      2.2397 eV  553.57 nm  f=0.1482  <S**2>=0.000
     309 -> 313        0.65944
     311 -> 316        0.23503

 The electronic state is 1-A.
 Alpha  occ. eigenvalues --  -46.91904 -46.91150 -19.25822 -19.25462 -19.19217
 Alpha  occ. eigenvalues --  -19.19090 -19.18960 -19.18860 -19.18849 -19.18462
 Alpha  occ. eigenvalues --  -14.41886 -14.41723 -14.41411 -14.40621 -14.39426
 Alpha  occ. eigenvalues --  -14.39379 -14.39264 -14.38719 -10.36124 -10.35268
 Alpha  occ. eigenvalues --  -10.32334 -10.31983 -10.31746 -10.31649 -10.29267
 Alpha  occ. eigenvalues --  -10.28968 -10.28948 -10.28458 -10.28456 -10.28440
 Alpha  occ. eigenvalues --  -10.28431 -10.28408 -10.28264 -10.28220 -10.28152
 Alpha  occ. eigenvalues --  -10.28044 -10.27987 -10.27821 -10.27035 -10.26845
 Alpha  occ. eigenvalues --  -10.26838 -10.26639 -10.26437 -10.26180 -10.26129
 Alpha  occ. eigenvalues --  -10.26083 -10.26036 -10.25950 -10.25924 -10.25911
 Alpha  occ. eigenvalues --  -10.25841 -10.25831 -10.25778 -10.25589 -10.25546
 Alpha  occ. eigenvalues --  -10.25524 -10.25386 -10.25243 -10.25100 -10.25040
 Alpha  occ. eigenvalues --  -10.25016 -10.24966 -10.24950 -10.24921 -10.24874
 Alpha  occ. eigenvalues --  -10.24698 -10.24501 -10.24498 -10.24213 -10.23965
 Alpha  occ. eigenvalues --  -10.23876 -10.23873 -10.23700 -10.23683 -10.23599
 Alpha  occ. eigenvalues --  -10.23563 -10.23491 -10.23485 -10.23418 -10.23325
 Alpha  occ. eigenvalues --  -10.23274 -10.23175 -10.23092 -10.22498 -10.22433
 Alpha  occ. eigenvalues --  -10.22354  -3.14088  -3.13508  -1.86938  -1.86453
 Alpha  occ. eigenvalues --   -1.86349  -1.86324  -1.85901  -1.85736  -1.12739
 Alpha  occ. eigenvalues --   -1.10893  -1.04233  -1.03723  -1.03699  -1.03205
 Alpha  occ. eigenvalues --   -1.02617  -1.00744  -1.00438  -0.99333  -0.99319
 Alpha  occ. eigenvalues --   -0.98414  -0.97981  -0.97683  -0.97256  -0.96814
 Alpha  occ. eigenvalues --   -0.87558  -0.86493  -0.84433  -0.83712  -0.83587
 Alpha  occ. eigenvalues --   -0.83072  -0.82783  -0.82664  -0.81993  -0.81937
 Alpha  occ. eigenvalues --   -0.81868  -0.81398  -0.81114  -0.80980  -0.78987
 Alpha  occ. eigenvalues --   -0.78911  -0.78345  -0.78175  -0.77277  -0.77220
 Alpha  occ. eigenvalues --   -0.76751  -0.76565  -0.75603  -0.75596  -0.75280
 Alpha  occ. eigenvalues --   -0.75021  -0.72942  -0.72648  -0.72041  -0.71767
 Alpha  occ. eigenvalues --   -0.71710  -0.71270  -0.70879  -0.70319  -0.69674
 Alpha  occ. eigenvalues --   -0.69609  -0.67970  -0.67472  -0.66415  -0.65933
 Alpha  occ. eigenvalues --   -0.64049  -0.63936  -0.63657  -0.63353  -0.62503
 Alpha  occ. eigenvalues --   -0.62216  -0.61518  -0.60942  -0.60860  -0.59901
 Alpha  occ. eigenvalues --   -0.59856  -0.59662  -0.59476  -0.59192  -0.59125
 Alpha  occ. eigenvalues --   -0.58941  -0.57148  -0.56946  -0.54990  -0.54930
 Alpha  occ. eigenvalues --   -0.54638  -0.54508  -0.54069  -0.53629  -0.53411
 Alpha  occ. eigenvalues --   -0.53208  -0.52881  -0.52861  -0.52257  -0.52237
 Alpha  occ. eigenvalues --   -0.51179  -0.51067  -0.50657  -0.50260  -0.50098
 Alpha  occ. eigenvalues --   -0.49710  -0.49212  -0.48974  -0.48970  -0.48578
 Alpha  occ. eigenvalues --   -0.48449  -0.48166  -0.47948  -0.47845  -0.47751
 Alpha  occ. eigenvalues --   -0.47472  -0.47356  -0.46966  -0.46842  -0.46692
 Alpha  occ. eigenvalues --   -0.46655  -0.46499  -0.46432  -0.46239  -0.45922
 Alpha  occ. eigenvalues --   -0.45799  -0.45429  -0.45043  -0.44976  -0.44874
 Alpha  occ. eigenvalues --   -0.44835  -0.44597  -0.44562  -0.44336  -0.44247
 Alpha  occ. eigenvalues --   -0.44122  -0.43948  -0.43793  -0.43641  -0.43595
 Alpha  occ. eigenvalues --   -0.43287  -0.43125  -0.43036  -0.42999  -0.42870
 Alpha  occ. eigenvalues --   -0.42578  -0.42490  -0.42400  -0.42052  -0.42024
 Alpha  occ. eigenvalues --   -0.41907  -0.41712  -0.41680  -0.41288  -0.41287
 Alpha  occ. eigenvalues --   -0.41168  -0.40968  -0.40854  -0.40851  -0.40395
 Alpha  occ. eigenvalues --   -0.40282  -0.40256  -0.39960  -0.39924  -0.39883
 Alpha  occ. eigenvalues --   -0.39750  -0.39363  -0.39336  -0.39262  -0.38773
 Alpha  occ. eigenvalues --   -0.38721  -0.38568  -0.38519  -0.38455  -0.38332
 Alpha  occ. eigenvalues --   -0.38128  -0.38116  -0.38034  -0.37573  -0.37431
 Alpha  occ. eigenvalues --   -0.37354  -0.37213  -0.36926  -0.36916  -0.36597
 Alpha  occ. eigenvalues --   -0.36471  -0.36388  -0.36380  -0.36369  -0.36152
 Alpha  occ. eigenvalues --   -0.36082  -0.35989  -0.35988  -0.35907  -0.35747
 Alpha  occ. eigenvalues --   -0.35443  -0.35047  -0.34905  -0.34181  -0.33862
 Alpha  occ. eigenvalues --   -0.33747  -0.33170  -0.32920  -0.32789  -0.32255
 Alpha  occ. eigenvalues --   -0.32130  -0.31671  -0.31393  -0.31214  -0.31075
 Alpha  occ. eigenvalues --   -0.30995  -0.30597  -0.29489  -0.29078  -0.28917
 Alpha  occ. eigenvalues --   -0.28584  -0.28515  -0.28191  -0.27174  -0.27154
 Alpha  occ. eigenvalues --   -0.26203  -0.25911  -0.25882  -0.25745  -0.25544
 Alpha  occ. eigenvalues --   -0.25474  -0.25409  -0.25320  -0.21142  -0.21014
 Alpha  occ. eigenvalues --   -0.19141  -0.18611
 Alpha virt. eigenvalues --   -0.11545  -0.10700  -0.05245  -0.05081  -0.03760
 Alpha virt. eigenvalues --   -0.03511  -0.01954  -0.01922  -0.00135   0.00201
 Alpha virt. eigenvalues --    0.00371   0.01192   0.01442   0.01722   0.02234

 Mulliken charges:
               1
     1  Mg  12.000000
     2  C    6.000000
     3  C    6.000000
     4  C    6.000000
     5  C    6.000000
     6  N    7.000000
     7  C    6.000000
     8  C    6.000000
     9  C    6.000000
    10  C    6.000000
    11  C    6.000000
    12  C    6.000000
    13  C    6.000000
    14  H    1.000000
    15  N    7.000000
    16  C    6.000000
    17  C    6.000000
    18  C    6.000000
    19  C    6.000000
    20  C    6.000000
    21  C    6.000000
    22  O    8.000000
    23  C    6.000000
    24  N    7.000000
    25  C    6.000000
    26  C    6.000000
    27  C    6.000000
    28  C    6.000000
    29  C    6.000000
    30  C    6.000000
    31  C    6.000000
    32  N    7.000000
    33  C    6.000000
    34  C    6.000000
    35  C    6.000000
    36  C    6.000000
    37  C    6.000000
    38  C    6.000000
    39  O    8.000000
    40  C    6.000000
    41  C    6.000000
    42  O    8.000000
    43  O    8.000000
    44  C    6.000000
    45  H    1.000000
    46  H    1.000000
    47  H    1.000000
    48  H    1.000000
    49  H    1.000000
    50  H    1.000000
    51  H    1.000000
    52  H    1.000000
    53  H    1.000000
    54  H    1.000000
    55  H    1.000000
    56  H    1.000000
    57  H    1.000000
    58  H    1.000000
    59  H    1.000000
    60  H    1.000000
    61  H    1.000000
    62  H    1.000000
    63  H    1.000000
    64  H    1.000000
    65  H    1.000000
    66  H    1.000000
    67  H    1.000000
    68  H    1.000000
    69  H    1.000000
    70  H    1.000000
    71  H    1.000000
    72  H    1.000000
    73  H    1.000000
    74  H    1.000000
    75  H    1.000000
    76  H    1.000000
    77  H    1.000000
    78  H    1.000000
    79  H    1.000000
    80  Mg  12.000000
    81  C    6.000000
    82  C    6.000000
    83  C    6.000000
    84  C    6.000000
    85  N    7.000000
    86  C    6.000000
    87  C    6.000000
    88  C    6.000000
    89  C    6.000000
    90  C    6.000000
    91  C    6.000000
    92  C    6.000000
    93  H    1.000000
    94  N    7.000000
    95  C    6.000000
    96  C    6.000000
    97  C    6.000000
    98  C    6.000000
    99  C    6.000000
   100  C    6.000000
   101  O    8.000000
   102  C    6.000000
   103  N    7.000000
   104  C    6.000000
   105  C    6.000000
   106  C    6.000000
   107  C    6.000000
   108  C    6.000000
   109  C    6.000000
   110  C    6.000000
   111  N    7.000000
   112  C    6.000000
   113  C    6.000000
   114  C    6.000000
   115  C    6.000000
   116  C    6.000000
   117  C    6.000000
   118  O    8.000000
   119  C    6.000000
   120  C    6.000000
   121  O    8.000000
   122  O    8.000000
   123  C    6.000000
   124  H    1.000000
   125  H    1.000000
   126  H    1.000000
   127  H    1.000000
   128  H    1.000000
   129  H    1.000000
   130  H    1.000000
   131  H    1.000000
   132  H    1.000000
   133  H    1.000000
   134  H    1.000000
   135  H    1.000000
   136  H    1.000000
   137  H    1.000000
   138  H    1.000000
   139  H    1.000000
   140  H    1.000000
   141  H    1.000000
   142  H    1.000000
   143  H    1.000000
   144  H    1.000000
   145  H    1.000000
   146  H    1.000000
   147  H    1.000000
   148  H    1.000000
   149  H    1.000000
   150  H    1.000000
   151  H    1.000000
   152  H    1.000000
   153  H    1.000000
   154  H    1.000000
   155  H    1.000000
   156  H    1.000000
   157  H    1.000000
   158  H    1.000000
 Sum of Mulliken charges = 624.00000

 Dipole moment (field-independent basis, Debye):
    X=             -0.0000    Y=              0.0000    Z=             -0.0000  Tot=              0.0000
 Quadrupole moment (field-independent basis, Debye-Ang):
   XX=             -0.0000   YY=             -0.0000   ZZ=             -0.0000
   XY=              0.0000   XZ=             -0.0000   YZ=              0.0000

 Normal termination of Gaussian 16 at Fri Oct 15 05:39:01 2021.
