 Gaussian 16, Revision A.03,
 Gaussian 16:  ES64L-G16RevA.03 25-Dec-2016

 --------------------------------------------------------
 #p PBE1PBE/Def2SVP td=(nstates=5) density=(transition=1)
 --------------------------------------------------------

 --------------------------------
 TDDFT excited states in gaussian
 --------------------------------
 Symbolic Z-matrix:
 Charge =  0 Multiplicity = 1

                         Standard orientation:
 ---------------------------------------------------------------------
 Center     Atomic      Atomic             Coordinates (Angstroms)
 Number     Number       Type             X           Y           Z
 ---------------------------------------------------------------------
      1         12           0       -8.934691    0.328867    0.494854
      2          6           0       -8.581843   -2.268215   -1.696157
      3          6           0       -6.414115   -1.207343    2.482158
      4          6           0       -8.965549    3.061065    2.474767
      5          6           0      -10.651567    2.119575   -1.951130
      6          7           0       -7.332395   -1.421776    0.180649
      7          6           0       -7.598929   -2.442244   -0.682092
      8          6           0       -6.584243   -3.537666   -0.504855
      9          6           0       -5.844697   -3.175023    0.855699
     10          6           0       -6.552191   -1.844004    1.263167
     11          6           0       -5.560093   -4.305399    1.775901
     12          6           0       -5.611750   -3.927301   -1.716393
     13          6           0       -5.200518   -2.845909   -2.671092
     14          1           0       -3.717636   -2.739028   -2.998094
     15          7           0       -8.019096    0.729760    2.344293
     16          6           0       -7.070913    0.001277    2.993151
     17          6           0       -6.649713    0.627238    4.211505
     18          6           0       -7.493611    1.852628    4.286079
     19          6           0       -8.219305    1.924685    2.999061
     20          6           0       -5.670549    0.162714    5.180749
     21          6           0       -7.616079    2.859250    5.421010
     22          8           0       -6.883695    2.813787    6.344724
     23          6           0       -8.548903    4.037307    5.474302
     24          7           0       -9.574176    2.309176    0.235365
     25          6           0       -9.628828    3.160815    1.270776
     26          6           0      -10.145497    4.615663    0.787598
     27          6           0      -11.006087    4.147625   -0.485108
     28          6           0      -10.334127    2.824499   -0.765085
     29          6           0      -10.956549    5.410595    1.814712
     30          6           0      -11.034077    5.201209   -1.607077
     31          6           0      -12.354530    5.598019   -2.277733
     32          7           0       -9.418366    0.052679   -1.482035
     33          6           0      -10.154680    0.827638   -2.369477
     34          6           0      -10.435211    0.126935   -3.561913
     35          6           0       -9.895393   -1.133240   -3.364135
     36          6           0       -9.272317   -1.147011   -2.066099
     37          6           0      -11.219551    0.603671   -4.745137
     38          6           0       -9.708825   -2.442647   -3.833738
     39          8           0      -10.077162   -2.905134   -4.911565
     40          6           0       -8.721278   -3.184401   -2.888535
     41          6           0       -9.438397   -4.495309   -2.601187
     42          8           0       -8.921837   -5.623527   -2.746318
     43          8           0      -10.653402   -4.185606   -2.036887
     44          6           0      -11.514388   -5.215666   -1.405891
     45          1           0       -5.553930   -1.662218    2.977638
     46          1           0       -8.807231    3.998164    3.012349
     47          1           0      -11.251343    2.662632   -2.683997
     48          1           0       -7.115953   -4.484482   -0.403532
     49          1           0       -4.861311   -2.803514    0.568994
     50          1           0       -5.855989   -4.110822    2.806699
     51          1           0       -4.533794   -4.661645    1.686880
     52          1           0       -6.181220   -5.157601    1.499960
     53          1           0       -6.014331   -4.682698   -2.391329
     54          1           0       -4.644890   -4.236272   -1.317901
     55          1           0       -5.654669   -1.873583   -2.483158
     56          1           0       -5.560396   -3.144283   -3.656307
     57          1           0       -5.667075   -0.926832    5.178986
     58          1           0       -5.848433    0.513420    6.196644
     59          1           0       -4.700839    0.532679    4.845799
     60          1           0       -9.342298    3.556106    4.901905
     61          1           0       -8.161740    4.909953    4.949211
     62          1           0       -8.879032    4.367488    6.459374
     63          1           0       -9.258778    5.135954    0.424212
     64          1           0      -12.049055    3.868946   -0.336623
     65          1           0      -11.998059    5.368573    1.494812
     66          1           0      -10.495247    6.381506    1.992999
     67          1           0      -10.940613    4.966617    2.809622
     68          1           0      -10.364687    4.839008   -2.387808
     69          1           0      -10.516132    6.088377   -1.242396
     70          1           0      -12.591221    6.657299   -2.378895
     71          1           0      -13.215285    5.065592   -1.870992
     72          1           0      -12.271725    5.097365   -3.241876
     73          1           0      -11.800070   -0.169433   -5.249112
     74          1           0      -10.526176    1.041976   -5.463300
     75          1           0      -11.973277    1.349855   -4.490351
     76          1           0       -7.834015   -3.296030   -3.510566
     77          1           0      -12.005714   -4.854884   -0.502435
     78          1           0      -10.888021   -6.071690   -1.154396
     79          1           0      -12.336682   -5.668208   -1.958679
     80         12           0        9.041850    0.728207   -0.033799
     81          6           0        7.710294   -2.467077    0.664302
     82          6           0        5.891729    2.050109    0.052633
     83          6           0       10.286404    3.488270   -1.338875
     84          6           0       12.177950   -0.838934   -0.576751
     85          7           0        7.047379   -0.129650    0.438524
     86          6           0        6.784525   -1.397024    0.689202
     87          6           0        5.389979   -1.485286    1.282370
     88          6           0        4.669501   -0.209192    0.699044
     89          6           0        5.938638    0.655677    0.353399
     90          6           0        3.700655   -0.586765   -0.485238
     91          6           0        5.396432   -1.403366    2.830502
     92          6           0        4.103887   -1.981529    3.557799
     93          1           0        2.917484   -2.547311    2.772626
     94          7           0        8.261090    2.548041   -0.367412
     95          6           0        6.917783    2.975663   -0.209937
     96          6           0        6.857092    4.427331   -0.499921
     97          6           0        8.150199    4.828494   -0.993649
     98          6           0        9.009006    3.625953   -0.930886
     99          6           0        5.642407    5.262612   -0.297536
    100          6           0        8.726088    6.209833   -1.494826
    101          8           0        9.910942    6.397489   -1.802937
    102          6           0        7.761659    7.332267   -1.747326
    103          7           0       10.957811    1.232584   -0.962972
    104          6           0       11.234217    2.443393   -1.368798
    105          6           0       12.639754    2.650670   -1.859323
    106          6           0       13.279326    1.236858   -1.626106
    107          6           0       12.100163    0.493975   -0.921226
    108          6           0       12.668600    3.250402   -3.268222
    109          6           0       14.528920    1.238217   -0.754523
    110          6           0       15.692274    0.276058   -1.188191
    111          7           0        9.901304   -1.260863    0.082836
    112          6           0       11.215415   -1.721363   -0.130250
    113          6           0       11.291306   -3.084308    0.269968
    114          6           0        9.929333   -3.496621    0.424324
    115          6           0        9.149956   -2.369878    0.352930
    116          6           0       12.555825   -3.858610    0.508486
    117          6           0        8.961808   -4.556010    0.798533
    118          8           0        9.145219   -5.732190    1.033951
    119          6           0        7.489653   -3.931147    0.698092
    120          6           0        6.570212   -4.585520    1.676621
    121          8           0        6.678920   -4.588976    2.867352
    122          8           0        5.562385   -5.317358    1.021222
    123          6           0        5.053369   -6.515481    1.721832
    124          1           0        4.913039    2.500486   -0.128021
    125          1           0       10.830954    4.382979   -1.645800
    126          1           0       13.174478   -1.273480   -0.680219
    127          1           0        5.074931   -2.492324    1.009222
    128          1           0        4.081048    0.302737    1.461203
    129          1           0        3.736738   -1.658996   -0.674974
    130          1           0        4.183419   -0.143447   -1.356190
    131          1           0        2.653638   -0.334270   -0.317132
    132          1           0        5.464749   -0.335101    3.040059
    133          1           0        6.302701   -1.902921    3.172695
    134          1           0        3.759194   -1.160996    4.188935
    135          1           0        4.488316   -2.743032    4.236782
    136          1           0        4.793771    4.844414    0.242587
    137          1           0        5.186213    5.564678   -1.239852
    138          1           0        6.006919    6.107763    0.286907
    139          1           0        7.549283    7.941885   -0.869183
    140          1           0        6.910721    6.752030   -2.106273
    141          1           0        8.187890    7.913499   -2.564544
    142          1           0       13.022437    3.369592   -1.135005
    143          1           0       13.544418    0.714210   -2.544340
    144          1           0       11.776378    3.037064   -3.857694
    145          1           0       13.500787    2.757324   -3.769101
    146          1           0       12.809323    4.331492   -3.262918
    147          1           0       14.289751    0.973282    0.275245
    148          1           0       14.779152    2.294763   -0.659817
    149          1           0       15.384513   -0.381403   -2.001111
    150          1           0       15.883386   -0.330572   -0.303238
    151          1           0       16.649679    0.707184   -1.482620
    152          1           0       13.167235   -3.670901   -0.374281
    153          1           0       12.417256   -4.935300    0.608347
    154          1           0       13.090549   -3.441864    1.362598
    155          1           0        7.042825   -4.252133   -0.242329
    156          1           0        4.003951   -6.340666    1.959495
    157          1           0        5.627056   -6.745416    2.620345
    158          1           0        5.150621   -7.328147    1.002004
 ---------------------------------------------------------------------

 SCF Done:  E(RPBE1PBE) =  -4067.31479694     A.U. after   17 cycles

 Excitation energies and oscillator strengths:

 Excited State   1:      Singlet-A      1.6270 eV  762.03 nm  f=0.0000  <S**2>=0.000
     312 -> 313        0.70705
 This state for optimization and/or second-order correction.
 Total Energy, E(TD-HF/TD-DFT) =  -4067.25500457
 Copying the excited state density for this state as the 1-particle RhoCI density.

 Excited State   2:      Singlet-A      1.7943 eV  691.00 nm  f=0.3689  <S**2>=0.000
     309 -> 315        0.16540
     311 -> 313        0.69585
     311 <- 313       -0.11761

 Excited State   3:      Singlet-A      1.8895 eV  656.17 nm  f=0.3507  <S**2>=0.000
     310 -> 316        0.18728
     312 -> 314        0.68563

 Excited State   4:      Singlet-A      2.0817 eV  595.58 nm  f=0.0000  <S**2>=0.000
     310 -> 313        0.70707

 Excited State   5:      Singlet-A      2.0941 eV  592.07 nm  f=0.0000  <S**2>=0.000
     311 -> 314        0.70709

 The electronic state is 1-A.
 Alpha  occ. eigenvalues --  -46.93453 -46.91904 -19.26838 -19.24059 -19.20575
 Alpha  occ. eigenvalues --  -19.20163 -19.19869 -19.18887 -19.18605 -19.17721
 Alpha  occ. eigenvalues --  -14.42217 -14.41608 -14.41448 -14.41104 -14.39933
 Alpha  occ. eigenvalues --  -14.39322 -14.39276 -14.37883 -10.37510 -10.35681
 Alpha  occ. eigenvalues --  -10.33594 -10.32256 -10.31342 -10.31017 -10.29999
 Alpha  occ. eigenvalues --  -10.29756 -10.29622 -10.29304 -10.28991 -10.28884
 Alpha  occ. eigenvalues --  -10.28771 -10.28755 -10.28337 -10.28278 -10.28208
 Alpha  occ. eigenvalues --  -10.28146 -10.28015 -10.27972 -10.27818 -10.27745
 Alpha  occ. eigenvalues --  -10.26960 -10.26876 -10.26470 -10.26336 -10.26328
 Alpha  occ. eigenvalues --  -10.26243 -10.26222 -10.26046 -10.25995 -10.25920
 Alpha  occ. eigenvalues --  -10.25908 -10.25908 -10.25879 -10.25828 -10.25782
 Alpha  occ. eigenvalues --  -10.25509 -10.25508 -10.25502 -10.25422 -10.25399
 Alpha  occ. eigenvalues --  -10.25351 -10.25243 -10.25147 -10.25112 -10.25062
 Alpha  occ. eigenvalues --  -10.24851 -10.24565 -10.24503 -10.24405 -10.24137
 Alpha  occ. eigenvalues --  -10.23936 -10.23910 -10.23880 -10.23798 -10.23741
 Alpha  occ. eigenvalues --  -10.23652 -10.23638 -10.23448 -10.23367 -10.23300
 Alpha  occ. eigenvalues --  -10.23227 -10.23076 -10.22845 -10.22807 -10.22725
 Alpha  occ. eigenvalues --  -10.22554  -3.15505  -3.13947  -1.88301  -1.87915
 Alpha  occ. eigenvalues --   -1.87702  -1.86800  -1.86321  -1.86167  -1.10396
 Alpha  occ. eigenvalues --   -1.10058  -1.06487  -1.04848  -1.04575  -1.03998
 Alpha  occ. eigenvalues --   -1.02052  -1.01954  -0.99854  -0.99674  -0.99099
 Alpha  occ. eigenvalues --   -0.99040  -0.97733  -0.97014  -0.96650  -0.95261
 Alpha  occ. eigenvalues --   -0.88031  -0.86339  -0.84214  -0.83543  -0.83103
 Alpha  occ. eigenvalues --   -0.83071  -0.82842  -0.82279  -0.81974  -0.81679
 Alpha  occ. eigenvalues --   -0.81582  -0.81460  -0.80461  -0.80041  -0.78970
 Alpha  occ. eigenvalues --   -0.78324  -0.78161  -0.78096  -0.77478  -0.76765
 Alpha  occ. eigenvalues --   -0.76521  -0.75908  -0.75405  -0.75045  -0.74974
 Alpha  occ. eigenvalues --   -0.74207  -0.72893  -0.72695  -0.72215  -0.71490
 Alpha  occ. eigenvalues --   -0.71485  -0.71046  -0.70789  -0.69972  -0.69757
 Alpha  occ. eigenvalues --   -0.69398  -0.68167  -0.66994  -0.66314  -0.66132
 Alpha  occ. eigenvalues --   -0.64474  -0.64188  -0.63928  -0.62973  -0.62822
 Alpha  occ. eigenvalues --   -0.61747  -0.61273  -0.60950  -0.60764  -0.60398
 Alpha  occ. eigenvalues --   -0.60186  -0.59577  -0.59332  -0.59037  -0.58938
 Alpha  occ. eigenvalues --   -0.58202  -0.58042  -0.55728  -0.54943  -0.54492
 Alpha  occ. eigenvalues --   -0.54107  -0.53738  -0.53623  -0.53088  -0.52723
 Alpha  occ. eigenvalues --   -0.52653  -0.52189  -0.52075  -0.51936  -0.51485
 Alpha  occ. eigenvalues --   -0.51242  -0.50904  -0.50461  -0.50031  -0.49969
 Alpha  occ. eigenvalues --   -0.49750  -0.49725  -0.49072  -0.48762  -0.48589
 Alpha  occ. eigenvalues --   -0.48050  -0.47826  -0.47760  -0.47723  -0.47642
 Alpha  occ. eigenvalues --   -0.47366  -0.47168  -0.46767  -0.46606  -0.46586
 Alpha  occ. eigenvalues --   -0.46489  -0.46481  -0.46297  -0.46101  -0.45924
 Alpha  occ. eigenvalues --   -0.45752  -0.45705  -0.45473  -0.45330  -0.45274
 Alpha  occ. eigenvalues --   -0.45026  -0.44832  -0.44733  -0.44496  -0.44407
 Alpha  occ. eigenvalues --   -0.44239  -0.44007  -0.43937  -0.43730  -0.43704
 Alpha  occ. eigenvalues --   -0.43052  -0.42954  -0.42929  -0.42659  -0.42576
 Alpha  occ. eigenvalues --   -0.42456  -0.42419  -0.42148  -0.42107  -0.42025
 Alpha  occ. eigenvalues --   -0.41935  -0.41934  -0.41772  -0.41748  -0.41283
 Alpha  occ. eigenvalues --   -0.41052  -0.41030  -0.41021  -0.40893  -0.40386
 Alpha  occ. eigenvalues --   -0.40365  -0.40288  -0.40243  -0.40230  -0.39857
 Alpha  occ. eigenvalues --   -0.39841  -0.39740  -0.39655  -0.39114  -0.39073
 Alpha  occ. eigenvalues --   -0.38899  -0.38640  -0.38511  -0.38429  -0.38055
 Alpha  occ. eigenvalues --   -0.38014  -0.37944  -0.37609  -0.37568  -0.37507
 Alpha  occ. eigenvalues --   -0.37375  -0.37193  -0.37001  -0.36961  -0.36850
 Alpha  occ. eigenvalues --   -0.36846  -0.36632  -0.36565  -0.36513  -0.36428
 Alpha  occ. eigenvalues --   -0.36303  -0.36276  -0.36023  -0.35832  -0.35577
 Alpha  occ. eigenvalues --   -0.35226  -0.35096  -0.34886  -0.34039  -0.33945
 Alpha  occ. eigenvalues --   -0.33778  -0.33656  -0.33151  -0.32732  -0.32511
 Alpha  occ. eigenvalues --   -0.32419  -0.31911  -0.31448  -0.31253  -0.30801
 Alpha  occ. eigenvalues --   -0.30770  -0.30407  -0.29902  -0.29373  -0.29075
 Alpha  occ. eigenvalues --   -0.29005  -0.28677  -0.28425  -0.27255  -0.26635
 Alpha  occ. eigenvalues --   -0.26428  -0.26341  -0.25746  -0.25359  -0.25328
 Alpha  occ. eigenvalues --   -0.25046  -0.24233  -0.23847  -0.21513  -0.20558
 Alpha  occ. eigenvalues --   -0.19457  -0.18863
 Alpha virt. eigenvalues --   -0.12154  -0.11008  -0.05584  -0.05476  -0.04162
 Alpha virt. eigenvalues --   -0.03984  -0.01981  -0.01892  -0.01733  -0.00123
 Alpha virt. eigenvalues --   -0.00002   0.00281   0.00510   0.01352   0.01707

 Mulliken charges:
               1
     1  Mg  12.000000
     2  C    6.000000
     3  C    6.000000
     4  C    6.000000
     5  C    6.000000
     6  N    7.000000
     7  C    6.000000
     8  C    6.000000
     9  C    6.000000
    10  C    6.000000
    11  C    6.000000
    12  C    6.000000
    13  C    6.000000
    14  H    1.000000
    15  N    7.000000
    16  C    6.000000
    17  C    6.000000
    18  C    6.000000
    19  C    6.000000
    20  C    6.000000
    21  C    6.000000
    22  O    8.000000
    23  C    6.000000
    24  N    7.000000
    25  C    6.000000
    26  C    6.000000
    27  C    6.000000
    28  C    6.000000
    29  C    6.000000
    30  C    6.000000
    31  C    6.000000
    32  N    7.000000
    33  C    6.000000
    34  C    6.000000
    35  C    6.000000
    36  C    6.000000
    37  C    6.000000
    38  C    6.000000
    39  O    8.000000
    40  C    6.000000
    41  C    6.000000
    42  O    8.000000
    43  O    8.000000
    44  C    6.000000
    45  H    1.000000
    46  H    1.000000
    47  H    1.000000
    48  H    1.000000
    49  H    1.000000
    50  H    1.000000
    51  H    1.000000
    52  H    1.000000
    53  H    1.000000
    54  H    1.000000
    55  H    1.000000
    56  H    1.000000
    57  H    1.000000
    58  H    1.000000
    59  H    1.000000
    60  H    1.000000
    61  H    1.000000
    62  H    1.000000
    63  H    1.000000
    64  H    1.000000
    65  H    1.000000
    66  H    1.000000
    67  H    1.000000
    68  H    1.000000
    69  H    1.000000
    70  H    1.000000
    71  H    1.000000
    72  H    1.000000
    73  H    1.000000
    74  H    1.000000
    75  H    1.000000
    76  H    1.000000
    77  H    1.000000
    78  H    1.000000
    79  H    1.000000
    80  Mg  12.000000
    81  C    6.000000
    82  C    6.000000
    83  C    6.000000
    84  C    6.000000
    85  N    7.000000
    86  C    6.000000
    87  C    6.000000
    88  C    6.000000
    89  C    6.000000
    90  C    6.000000
    91  C    6.000000
    92  C    6.000000
    93  H    1.000000
    94  N    7.000000
    95  C    6.000000
    96  C    6.000000
    97  C    6.000000
    98  C    6.000000
    99  C    6.000000
   100  C    6.000000
   101  O    8.000000
   102  C    6.000000
   103  N    7.000000
   104  C    6.000000
   105  C    6.000000
   106  C    6.000000
   107  C    6.000000
   108  C    6.000000
   109  C    6.000000
   110  C    6.000000
   111  N    7.000000
   112  C    6.000000
   113  C    6.000000
   114  C    6.000000
   115  C    6.000000
   116  C    6.000000
   117  C    6.000000
   118  O    8.000000
   119  C    6.000000
   120  C    6.000000
   121  O    8.000000
   122  O    8.000000
   123  C    6.000000
   124  H    1.000000
   125  H    1.000000
   126  H    1.000000
   127  H    1.000000
   128  H    1.000000
   129  H    1.000000
   130  H    1.000000
   131  H    1.000000
   132  H    1.000000
   133  H    1.000000
   134  H    1.000000
   135  H    1.000000
   136  H    1.000000
   137  H    1.000000
   138  H    1.000000
   139  H    1.000000
   140  H    1.000000
   141  H    1.000000
   142  H    1.000000
   143  H    1.000000
   144  H    1.000000
   145  H    1.000000
   146  H    1.000000
   147  H    1.000000
   148  H    1.000000
   149  H    1.000000
   150  H    1.000000
   151  H    1.000000
   152  H    1.000000
   153  H    1.000000
   154  H    1.000000
   155  H    1.000000
   156  H    1.000000
   157  H    1.000000
   158  H    1.000000
 Sum of Mulliken charges = 624.00000

 Dipole moment (field-independent basis, Debye):
    X=             -0.0000    Y=              0.0000    Z=              0.0000  Tot=              0.0000
 Quadrupole moment (field-independent basis, Debye-Ang):
   XX=             -0.0000   YY=              0.0000   ZZ=              0.0000
   XY=              0.0000   XZ=             -0.0000   YZ=              0.0000

 Normal termination of Gaussian 16 at Thu Oct 14 04:51:36 2021.
