 Gaussian 16, Revision A.03,
 Gaussian 16:  ES64L-G16RevA.03 25-Dec-2016

 --------------------------------------------------------
 #p PBE1PBE/Def2SVP td=(nstates=5) density=(transition=1)
 --------------------------------------------------------

 --------------------------------
 TDDFT excited states in gaussian
 --------------------------------
 Symbolic Z-matrix:
 Charge =  0 Multiplicity = 1

                         Standard orientation:
 ---------------------------------------------------------------------
 Center     Atomic      Atomic             Coordinates (Angstroms)
 Number     Number       Type             X           Y           Z
 ---------------------------------------------------------------------
      1         12           0       -8.585984   -0.399584   -0.271185
      2          6           0       -6.931653    2.660996    0.592322
      3          6           0      -10.770917    1.327690   -2.010199
      4          6           0      -10.391657   -3.178788   -0.272522
      5          6           0       -6.234468   -2.026015    2.042651
      6          7           0       -8.782423    1.749865   -0.692571
      7          6           0       -8.033265    2.848710   -0.226903
      8          6           0       -8.551964    4.240446   -0.752411
      9          6           0       -9.802907    3.686925   -1.674574
     10          6           0       -9.813343    2.172835   -1.489031
     11          6           0      -11.196193    4.315274   -1.240540
     12          6           0       -7.494432    5.126757   -1.498089
     13          6           0       -8.059845    6.254810   -2.352758
     14          1           0       -7.729360    7.671342   -1.847983
     15          7           0      -10.301948   -0.881388   -1.127202
     16          6           0      -11.127260   -0.063862   -1.863018
     17          6           0      -12.278919   -0.768431   -2.385615
     18          6           0      -12.129885   -2.113058   -1.860839
     19          6           0      -10.833905   -2.105905   -1.093126
     20          6           0      -13.291365   -0.238951   -3.288377
     21          6           0      -13.008280   -3.337647   -2.049738
     22          8           0      -12.722989   -4.435798   -1.661934
     23          6           0      -14.339647   -3.063296   -2.697151
     24          7           0       -8.380572   -2.319892    0.796688
     25          6           0       -9.279315   -3.309924    0.566038
     26          6           0       -8.868172   -4.615315    1.298176
     27          6           0       -7.473755   -4.233678    1.906033
     28          6           0       -7.310260   -2.775287    1.523471
     29          6           0       -9.848067   -5.201996    2.370654
     30          6           0       -6.246904   -5.073820    1.403819
     31          6           0       -6.156070   -6.472568    2.053016
     32          7           0       -6.957392    0.118763    1.062899
     33          6           0       -6.090112   -0.618103    1.836113
     34          6           0       -5.098213    0.237711    2.354284
     35          6           0       -5.378271    1.497092    1.976040
     36          6           0       -6.562095    1.423079    1.181130
     37          6           0       -3.912510   -0.311359    3.136950
     38          6           0       -5.057818    2.926274    2.046924
     39          8           0       -4.178114    3.503298    2.632397
     40          6           0       -6.106919    3.732409    1.142244
     41          6           0       -6.962311    4.537808    2.067447
     42          8           0       -7.975802    4.266211    2.670860
     43          8           0       -6.372550    5.786130    2.089790
     44          6           0       -7.024379    6.824043    2.923516
     45          1           0      -11.572974    1.817771   -2.565847
     46          1           0      -11.100788   -4.006055   -0.190915
     47          1           0       -5.558683   -2.673484    2.606198
     48          1           0       -9.006064    4.762601    0.089920
     49          1           0       -9.623788    4.001155   -2.703078
     50          1           0      -11.751889    4.609848   -2.130646
     51          1           0      -11.206411    5.143149   -0.532085
     52          1           0      -11.839234    3.546437   -0.813285
     53          1           0       -6.958159    4.351051   -2.046257
     54          1           0       -6.689519    5.575106   -0.915267
     55          1           0       -9.144564    6.159818   -2.393605
     56          1           0       -7.564661    6.236841   -3.323224
     57          1           0      -13.084159   -0.854180   -4.163939
     58          1           0      -13.163341    0.833235   -3.437927
     59          1           0      -14.338825   -0.387840   -3.026940
     60          1           0      -14.258200   -3.228207   -3.771437
     61          1           0      -14.868904   -2.212967   -2.266142
     62          1           0      -15.003773   -3.759780   -2.186120
     63          1           0       -8.574687   -5.301583    0.503259
     64          1           0       -7.558907   -4.200984    2.992437
     65          1           0       -9.450775   -5.310758    3.380244
     66          1           0      -10.009892   -6.237080    2.070624
     67          1           0      -10.791230   -4.667555    2.484252
     68          1           0       -5.325474   -4.549205    1.654004
     69          1           0       -6.353374   -5.101395    0.318489
     70          1           0       -6.707582   -6.492313    2.993187
     71          1           0       -5.091767   -6.675714    2.171134
     72          1           0       -6.613294   -7.268744    1.464760
     73          1           0       -3.047147    0.346359    3.054623
     74          1           0       -3.692395   -1.317161    2.779018
     75          1           0       -4.189892   -0.478087    4.178033
     76          1           0       -5.605775    4.351670    0.397908
     77          1           0       -6.208680    7.371613    3.395478
     78          1           0       -7.693595    6.430703    3.688574
     79          1           0       -7.526574    7.388448    2.137189
     80         12           0        8.104571   -0.938442   -0.397049
     81          6           0        9.988697    2.136009   -0.071176
     82          6           0        5.462874    0.895794   -0.089811
     83          6           0        6.590436   -3.865654   -0.434061
     84          6           0       11.155087   -2.852591    0.092889
     85          7           0        7.792987    1.331672   -0.231879
     86          6           0        8.649826    2.405475   -0.106886
     87          6           0        7.878686    3.665544    0.055728
     88          6           0        6.485522    3.179091    0.531209
     89          6           0        6.572360    1.698400    0.091882
     90          6           0        6.257821    3.288134    2.054874
     91          6           0        7.730106    4.372620   -1.325900
     92          6           0        7.962695    5.933113   -1.345131
     93          1           0        8.300895    6.665458   -2.704292
     94          7           0        6.167421   -1.398188   -0.319103
     95          6           0        5.198142   -0.522396   -0.305871
     96          6           0        3.940662   -1.237603   -0.414981
     97          6           0        4.320920   -2.582175   -0.636829
     98          6           0        5.743272   -2.651609   -0.438465
     99          6           0        2.600929   -0.480632   -0.460962
    100          6           0        3.400373   -3.728950   -0.949090
    101          8           0        3.839070   -4.831797   -1.085617
    102          6           0        1.950855   -3.456437   -1.186822
    103          7           0        8.824466   -3.099798    0.097942
    104          6           0        7.940037   -4.056509   -0.176146
    105          6           0        8.577647   -5.390290   -0.288309
    106          6           0       10.051054   -5.039282    0.091521
    107          6           0       10.064269   -3.533612    0.114029
    108          6           0        7.930487   -6.584173    0.501676
    109          6           0       11.070728   -5.684678   -0.926137
    110          6           0       11.916087   -6.915072   -0.493774
    111          7           0       10.078314   -0.559270   -0.068778
    112          6           0       11.224983   -1.378123    0.034560
    113          6           0       12.427036   -0.526925    0.151106
    114          6           0       11.972354    0.783697    0.093066
    115          6           0       10.590613    0.752570    0.009868
    116          6           0       13.858057   -1.039130    0.444215
    117          6           0       12.466461    2.197915    0.121592
    118          8           0       13.564225    2.701106    0.164932
    119          6           0       11.167859    3.147514    0.189668
    120          6           0       11.281399    4.257819   -0.683111
    121          8           0       10.845654    4.230163   -1.842595
    122          8           0       11.947409    5.376275   -0.191698
    123          6           0       11.923692    6.641128   -0.988598
    124          1           0        4.495243    1.398526   -0.043317
    125          1           0        6.094154   -4.835218   -0.510950
    126          1           0       12.081091   -3.412771    0.231348
    127          1           0        8.298754    4.255113    0.871041
    128          1           0        5.620830    3.677708    0.093705
    129          1           0        5.412791    3.943231    2.268781
    130          1           0        7.170377    3.703108    2.481811
    131          1           0        6.098618    2.335316    2.560527
    132          1           0        6.701004    4.175429   -1.626736
    133          1           0        8.398318    3.841350   -2.003347
    134          1           0        8.733301    6.158965   -0.608569
    135          1           0        7.007600    6.309576   -0.976908
    136          1           0        2.156688   -0.628457   -1.446144
    137          1           0        2.642160    0.578828   -0.210428
    138          1           0        1.871846   -0.970231    0.184028
    139          1           0        1.783727   -2.812803   -2.050081
    140          1           0        1.425967   -2.885957   -0.420647
    141          1           0        1.453666   -4.396800   -1.426082
    142          1           0        8.560445   -5.674140   -1.340569
    143          1           0       10.234292   -5.330138    1.126121
    144          1           0        7.004641   -6.199502    0.928124
    145          1           0        8.557070   -7.102255    1.228540
    146          1           0        7.702119   -7.379608   -0.207913
    147          1           0       11.809730   -4.934045   -1.207686
    148          1           0       10.514335   -5.757731   -1.860576
    149          1           0       11.897376   -7.670901   -1.278763
    150          1           0       11.525605   -7.312568    0.443196
    151          1           0       12.960214   -6.633446   -0.352258
    152          1           0       13.960171   -2.018814   -0.021730
    153          1           0       13.959341   -1.219325    1.514688
    154          1           0       14.622490   -0.355176    0.074773
    155          1           0       11.071242    3.506350    1.213942
    156          1           0       10.906565    7.022462   -1.089272
    157          1           0       12.538162    6.561187   -1.884531
    158          1           0       12.327582    7.419463   -0.341289
 ---------------------------------------------------------------------

 SCF Done:  E(RPBE1PBE) =  -4067.35494877     A.U. after   16 cycles

 Excitation energies and oscillator strengths:

 Excited State   1:      Singlet-A      1.8081 eV  685.70 nm  f=0.0000  <S**2>=0.000
     312 -> 313        0.70704
 This state for optimization and/or second-order correction.
 Total Energy, E(TD-HF/TD-DFT) =  -4067.28850097
 Copying the excited state density for this state as the 1-particle RhoCI density.

 Excited State   2:      Singlet-A      1.8554 eV  668.23 nm  f=0.6339  <S**2>=0.000
     309 -> 315        0.15571
     311 -> 313        0.25267
     312 -> 314        0.64652
     312 <- 314       -0.10034

 Excited State   3:      Singlet-A      1.8839 eV  658.13 nm  f=0.1505  <S**2>=0.000
     310 -> 316        0.14915
     311 -> 313        0.64834
     312 -> 314       -0.25069
     311 <- 313       -0.10298

 Excited State   4:      Singlet-A      1.9225 eV  644.90 nm  f=0.0000  <S**2>=0.000
     311 -> 314        0.70704

 Excited State   5:      Singlet-A      2.2030 eV  562.79 nm  f=0.1618  <S**2>=0.000
     310 -> 313        0.67572
     311 -> 316       -0.18927

 The electronic state is 1-A.
 Alpha  occ. eigenvalues --  -46.92744 -46.92204 -19.24715 -19.24580 -19.20298
 Alpha  occ. eigenvalues --  -19.19988 -19.19553 -19.19350 -19.19174 -19.18708
 Alpha  occ. eigenvalues --  -14.41917 -14.41092 -14.41079 -14.39647 -14.39597
 Alpha  occ. eigenvalues --  -14.39482 -14.39141 -14.38745 -10.36157 -10.35433
 Alpha  occ. eigenvalues --  -10.33246 -10.32670 -10.32072 -10.31965 -10.28884
 Alpha  occ. eigenvalues --  -10.28823 -10.28809 -10.28618 -10.28423 -10.28399
 Alpha  occ. eigenvalues --  -10.28322 -10.28176 -10.28063 -10.28033 -10.27916
 Alpha  occ. eigenvalues --  -10.27840 -10.27824 -10.27438 -10.27371 -10.27065
 Alpha  occ. eigenvalues --  -10.27017 -10.26938 -10.26892 -10.26648 -10.26562
 Alpha  occ. eigenvalues --  -10.26549 -10.26419 -10.26364 -10.25897 -10.25802
 Alpha  occ. eigenvalues --  -10.25737 -10.25687 -10.25633 -10.25586 -10.25320
 Alpha  occ. eigenvalues --  -10.25189 -10.24974 -10.24930 -10.24878 -10.24792
 Alpha  occ. eigenvalues --  -10.24644 -10.24642 -10.24636 -10.24604 -10.24574
 Alpha  occ. eigenvalues --  -10.24557 -10.24543 -10.24434 -10.24369 -10.23843
 Alpha  occ. eigenvalues --  -10.23838 -10.23602 -10.23597 -10.23544 -10.23536
 Alpha  occ. eigenvalues --  -10.23467 -10.23433 -10.23336 -10.23331 -10.23175
 Alpha  occ. eigenvalues --  -10.23172 -10.23153 -10.23124 -10.23050 -10.22967
 Alpha  occ. eigenvalues --  -10.22636  -3.14847  -3.14326  -1.87673  -1.87227
 Alpha  occ. eigenvalues --   -1.87163  -1.87072  -1.86681  -1.86573  -1.10626
 Alpha  occ. eigenvalues --   -1.08874  -1.06648  -1.06307  -1.05792  -1.05730
 Alpha  occ. eigenvalues --   -1.02471  -1.00811  -1.00410  -0.99532  -0.99377
 Alpha  occ. eigenvalues --   -0.98683  -0.98214  -0.97336  -0.96416  -0.95838
 Alpha  occ. eigenvalues --   -0.87579  -0.85616  -0.83422  -0.83417  -0.83160
 Alpha  occ. eigenvalues --   -0.82724  -0.82512  -0.82232  -0.81867  -0.81700
 Alpha  occ. eigenvalues --   -0.81686  -0.81398  -0.80612  -0.79644  -0.78559
 Alpha  occ. eigenvalues --   -0.78401  -0.77657  -0.77310  -0.76632  -0.76403
 Alpha  occ. eigenvalues --   -0.76235  -0.75995  -0.75258  -0.75231  -0.74640
 Alpha  occ. eigenvalues --   -0.74635  -0.72827  -0.72625  -0.71482  -0.71373
 Alpha  occ. eigenvalues --   -0.71161  -0.70991  -0.70401  -0.70050  -0.69650
 Alpha  occ. eigenvalues --   -0.69401  -0.67444  -0.67277  -0.65937  -0.65444
 Alpha  occ. eigenvalues --   -0.64154  -0.63433  -0.63307  -0.63142  -0.62412
 Alpha  occ. eigenvalues --   -0.62321  -0.61636  -0.61580  -0.60372  -0.60003
 Alpha  occ. eigenvalues --   -0.59737  -0.59515  -0.59336  -0.59023  -0.58732
 Alpha  occ. eigenvalues --   -0.58673  -0.56233  -0.55802  -0.55557  -0.54829
 Alpha  occ. eigenvalues --   -0.54578  -0.54288  -0.53575  -0.53570  -0.52898
 Alpha  occ. eigenvalues --   -0.52697  -0.52485  -0.52113  -0.51749  -0.51713
 Alpha  occ. eigenvalues --   -0.50975  -0.50911  -0.50379  -0.50248  -0.50030
 Alpha  occ. eigenvalues --   -0.49798  -0.49203  -0.49034  -0.48697  -0.48488
 Alpha  occ. eigenvalues --   -0.48472  -0.48326  -0.47852  -0.47511  -0.47283
 Alpha  occ. eigenvalues --   -0.47169  -0.47020  -0.46919  -0.46721  -0.46569
 Alpha  occ. eigenvalues --   -0.46449  -0.46247  -0.46106  -0.45908  -0.45702
 Alpha  occ. eigenvalues --   -0.45332  -0.45020  -0.44882  -0.44855  -0.44622
 Alpha  occ. eigenvalues --   -0.44545  -0.44456  -0.44364  -0.44245  -0.44208
 Alpha  occ. eigenvalues --   -0.43973  -0.43964  -0.43778  -0.43631  -0.43459
 Alpha  occ. eigenvalues --   -0.43280  -0.43266  -0.42892  -0.42855  -0.42675
 Alpha  occ. eigenvalues --   -0.42618  -0.42405  -0.42262  -0.42143  -0.42051
 Alpha  occ. eigenvalues --   -0.41955  -0.41619  -0.41232  -0.41045  -0.40847
 Alpha  occ. eigenvalues --   -0.40825  -0.40630  -0.40503  -0.40410  -0.40294
 Alpha  occ. eigenvalues --   -0.40207  -0.40159  -0.40142  -0.40004  -0.39838
 Alpha  occ. eigenvalues --   -0.39712  -0.39597  -0.39541  -0.39304  -0.39000
 Alpha  occ. eigenvalues --   -0.38961  -0.38842  -0.38713  -0.38466  -0.38193
 Alpha  occ. eigenvalues --   -0.38166  -0.38082  -0.37838  -0.37833  -0.37643
 Alpha  occ. eigenvalues --   -0.37575  -0.37258  -0.37148  -0.37083  -0.36931
 Alpha  occ. eigenvalues --   -0.36653  -0.36644  -0.36127  -0.36124  -0.35987
 Alpha  occ. eigenvalues --   -0.35827  -0.35811  -0.35543  -0.35341  -0.35223
 Alpha  occ. eigenvalues --   -0.35028  -0.34760  -0.34668  -0.34532  -0.33993
 Alpha  occ. eigenvalues --   -0.33278  -0.33205  -0.32986  -0.32593  -0.32287
 Alpha  occ. eigenvalues --   -0.31961  -0.31701  -0.31639  -0.31449  -0.31088
 Alpha  occ. eigenvalues --   -0.30875  -0.30609  -0.29623  -0.29342  -0.28718
 Alpha  occ. eigenvalues --   -0.28476  -0.28264  -0.27625  -0.27155  -0.27085
 Alpha  occ. eigenvalues --   -0.26494  -0.26077  -0.25973  -0.25955  -0.25937
 Alpha  occ. eigenvalues --   -0.25742  -0.25574  -0.25415  -0.20783  -0.20441
 Alpha  occ. eigenvalues --   -0.19034  -0.18812
 Alpha virt. eigenvalues --   -0.11340  -0.11193  -0.04927  -0.03944  -0.03533
 Alpha virt. eigenvalues --   -0.03242  -0.01993  -0.01723  -0.00466  -0.00395
 Alpha virt. eigenvalues --    0.00030   0.00614   0.01133   0.01182   0.01864

 Mulliken charges:
               1
     1  Mg  11.999999
     2  C    6.000014
     3  C    5.999998
     4  C    5.999990
     5  C    6.000003
     6  N    7.000006
     7  C    5.999986
     8  C    6.000008
     9  C    5.999993
    10  C    6.000016
    11  C    6.000000
    12  C    6.000001
    13  C    5.999999
    14  H    1.000001
    15  N    6.999998
    16  C    6.000022
    17  C    6.000010
    18  C    6.000010
    19  C    6.000017
    20  C    5.999998
    21  C    6.000009
    22  O    8.000016
    23  C    5.999996
    24  N    6.999998
    25  C    6.000020
    26  C    5.999994
    27  C    6.000005
    28  C    5.999989
    29  C    6.000001
    30  C    6.000004
    31  C    5.999999
    32  N    6.999998
    33  C    5.999988
    34  C    5.999986
    35  C    6.000001
    36  C    5.999979
    37  C    6.000001
    38  C    5.999990
    39  O    7.999985
    40  C    5.999996
    41  C    6.000000
    42  O    7.999996
    43  O    8.000000
    44  C    6.000001
    45  H    1.000005
    46  H    1.000003
    47  H    0.999995
    48  H    0.999998
    49  H    1.000003
    50  H    1.000000
    51  H    1.000006
    52  H    0.999997
    53  H    0.999999
    54  H    1.000003
    55  H    0.999997
    56  H    0.999999
    57  H    1.000009
    58  H    1.000009
    59  H    1.000010
    60  H    1.000005
    61  H    1.000003
    62  H    1.000007
    63  H    1.000000
    64  H    1.000001
    65  H    1.000004
    66  H    1.000000
    67  H    0.999998
    68  H    1.000001
    69  H    0.999995
    70  H    0.999999
    71  H    1.000000
    72  H    0.999997
    73  H    0.999985
    74  H    0.999988
    75  H    0.999994
    76  H    0.999996
    77  H    0.999999
    78  H    0.999999
    79  H    0.999997
    80  Mg  11.999999
    81  C    6.000004
    82  C    5.999999
    83  C    5.999993
    84  C    6.000000
    85  N    7.000003
    86  C    5.999992
    87  C    6.000002
    88  C    5.999998
    89  C    6.000006
    90  C    5.999999
    91  C    6.000001
    92  C    6.000001
    93  H    0.999999
    94  N    6.999998
    95  C    6.000010
    96  C    6.000010
    97  C    5.999999
    98  C    6.000009
    99  C    5.999998
   100  C    6.000003
   101  O    8.000006
   102  C    5.999998
   103  N    6.999998
   104  C    6.000008
   105  C    5.999997
   106  C    6.000003
   107  C    5.999995
   108  C    6.000000
   109  C    6.000000
   110  C    6.000000
   111  N    6.999999
   112  C    5.999989
   113  C    5.999990
   114  C    5.999999
   115  C    5.999990
   116  C    6.000000
   117  C    5.999996
   118  O    7.999992
   119  C    5.999999
   120  C    5.999999
   121  O    7.999998
   122  O    8.000000
   123  C    6.000001
   124  H    1.000004
   125  H    1.000002
   126  H    0.999997
   127  H    1.000000
   128  H    1.000001
   129  H    1.000001
   130  H    1.000003
   131  H    1.000000
   132  H    0.999997
   133  H    1.000001
   134  H    1.000001
   135  H    0.999999
   136  H    1.000007
   137  H    1.000005
   138  H    0.999999
   139  H    1.000002
   140  H    1.000003
   141  H    1.000003
   142  H    1.000000
   143  H    0.999999
   144  H    0.999999
   145  H    1.000002
   146  H    1.000000
   147  H    1.000002
   148  H    0.999998
   149  H    0.999999
   150  H    0.999999
   151  H    1.000001
   152  H    0.999995
   153  H    0.999994
   154  H    0.999996
   155  H    0.999998
   156  H    0.999999
   157  H    0.999999
   158  H    0.999999
 Sum of Mulliken charges = 624.00000

 Dipole moment (field-independent basis, Debye):
    X=             -0.0091    Y=             -0.0020    Z=             -0.0030  Tot=              0.0098
 Quadrupole moment (field-independent basis, Debye-Ang):
   XX=              0.0389   YY=             -0.0009   ZZ=              0.0001
   XY=              0.0138   XZ=              0.0250   YZ=              0.0011

 Normal termination of Gaussian 16 at Thu Oct 14 13:05:54 2021.
