 Gaussian 16, Revision A.03,
 Gaussian 16:  ES64L-G16RevA.03 25-Dec-2016

 --------------------------------------------------------
 #p PBE1PBE/Def2SVP td=(nstates=5) density=(transition=1)
 --------------------------------------------------------

 --------------------------------
 TDDFT excited states in gaussian
 --------------------------------
 Symbolic Z-matrix:
 Charge =  0 Multiplicity = 1

                         Standard orientation:
 ---------------------------------------------------------------------
 Center     Atomic      Atomic             Coordinates (Angstroms)
 Number     Number       Type             X           Y           Z
 ---------------------------------------------------------------------
      1         12           0      -27.706038   -0.698480    0.240805
      2          6           0      -28.521685    2.610445    0.116772
      3          6           0      -24.702240    0.064459   -1.464785
      4          6           0      -26.974287   -3.964426    0.134158
      5          6           0      -30.621530   -1.309322    1.951231
      6          7           0      -26.866686    1.045276   -0.852072
      7          6           0      -27.352708    2.342567   -0.645000
      8          6           0      -26.466198    3.413655   -1.341295
      9          6           0      -25.332198    2.489501   -1.859156
     10          6           0      -25.668598    1.074222   -1.425396
     11          6           0      -24.876649    2.504494   -3.380428
     12          6           0      -25.922857    4.598731   -0.427553
     13          6           0      -25.023210    5.580799   -1.224837
     14          1           0      -25.687750    6.933537   -1.484319
     15          7           0      -25.997010   -1.808440   -0.535336
     16          6           0      -24.807728   -1.261916   -0.967364
     17          6           0      -23.969642   -2.392334   -1.349683
     18          6           0      -24.649326   -3.563638   -0.884042
     19          6           0      -25.922219   -3.161227   -0.374073
     20          6           0      -22.655533   -2.180897   -1.997007
     21          6           0      -24.095372   -5.015881   -1.095490
     22          8           0      -24.765374   -6.048153   -0.889476
     23          6           0      -22.708096   -5.218612   -1.646720
     24          7           0      -28.620053   -2.305458    0.877824
     25          6           0      -28.134171   -3.633948    0.720295
     26          6           0      -29.206365   -4.645548    1.056385
     27          6           0      -30.059865   -3.814519    2.012480
     28          6           0      -29.737364   -2.370853    1.653960
     29          6           0      -30.000410   -5.135950   -0.200695
     30          6           0      -29.682308   -4.032443    3.494791
     31          6           0      -30.310021   -5.184327    4.232777
     32          7           0      -29.347759    0.350500    0.915278
     33          6           0      -30.375916    0.029108    1.716963
     34          6           0      -31.193309    1.187039    1.928874
     35          6           0      -30.514301    2.236327    1.346836
     36          6           0      -29.359444    1.684807    0.770572
     37          6           0      -32.445383    1.147910    2.733682
     38          6           0      -30.564417    3.620030    1.136122
     39          8           0      -31.360908    4.465135    1.496371
     40          6           0      -29.234264    3.939401    0.305318
     41          6           0      -29.636863    4.605940   -0.962304
     42          8           0      -30.243668    4.115938   -1.883427
     43          8           0      -29.110513    5.830925   -1.053104
     44          6           0      -29.404070    6.595564   -2.326057
     45          1           0      -23.735424    0.397182   -1.847836
     46          1           0      -26.746132   -5.031956    0.112859
     47          1           0      -31.496626   -1.401852    2.597289
     48          1           0      -27.022354    3.826880   -2.182804
     49          1           0      -24.412708    2.704225   -1.313787
     50          1           0      -23.810527    2.372348   -3.566792
     51          1           0      -25.340920    3.345203   -3.896256
     52          1           0      -25.302799    1.589150   -3.790870
     53          1           0      -25.429576    4.076973    0.391615
     54          1           0      -26.780259    5.130422   -0.015120
     55          1           0      -24.644995    5.092608   -2.123018
     56          1           0      -24.164546    5.795912   -0.589495
     57          1           0      -22.728661   -2.535718   -3.025220
     58          1           0      -21.922791   -2.646121   -1.337628
     59          1           0      -22.388021   -1.124140   -1.993684
     60          1           0      -22.469905   -6.282045   -1.668722
     61          1           0      -22.058965   -4.801593   -0.875545
     62          1           0      -22.484693   -4.758091   -2.608711
     63          1           0      -28.779846   -5.527937    1.534233
     64          1           0      -31.130364   -3.979897    1.892635
     65          1           0      -30.687918   -4.368693   -0.554584
     66          1           0      -30.539221   -6.055971    0.027449
     67          1           0      -29.241870   -5.356188   -0.951027
     68          1           0      -29.827760   -3.141826    4.104820
     69          1           0      -28.600589   -4.135471    3.581771
     70          1           0      -29.491563   -5.820515    4.568451
     71          1           0      -30.795713   -5.748509    3.436446
     72          1           0      -31.015325   -4.894096    5.011672
     73          1           0      -32.249983    1.474784    3.754251
     74          1           0      -33.055920    0.245040    2.700263
     75          1           0      -33.081956    1.919589    2.300452
     76          1           0      -28.614895    4.612223    0.898885
     77          1           0      -29.152192    5.936510   -3.157195
     78          1           0      -28.790380    7.489259   -2.442157
     79          1           0      -30.465617    6.843966   -2.326039
     80         12           0       28.430936    0.451366    0.140716
     81          6           0       25.156140    0.405509   -0.956118
     82          6           0       27.261893    1.159895    3.300090
     83          6           0       31.599953   -0.089022    1.350887
     84          6           0       29.512373   -0.369372   -3.022838
     85          7           0       26.453426    0.548485    1.097610
     86          6           0       25.259107    0.566004    0.404515
     87          6           0       24.068401    0.805863    1.328905
     88          6           0       24.788046    1.379674    2.606002
     89          6           0       26.228601    0.967482    2.340508
     90          6           0       24.561997    2.922695    2.943965
     91          6           0       23.129014   -0.415958    1.583170
     92          6           0       21.643952   -0.130681    1.507197
     93          1           0       20.972620   -0.219727    2.868882
     94          7           0       29.258351    0.517758    2.045704
     95          6           0       28.639068    0.847173    3.184854
     96          6           0       29.581482    0.894293    4.289325
     97          6           0       30.850127    0.550764    3.852873
     98          6           0       30.625302    0.252975    2.373308
     99          6           0       29.130257    1.203929    5.795509
    100          6           0       32.172564    0.557524    4.691685
    101          8           0       32.105179    0.820017    5.925851
    102          6           0       33.483194    0.217038    4.092568
    103          7           0       30.322884   -0.404224   -0.688194
    104          6           0       31.473481   -0.352659   -0.057444
    105          6           0       32.660331   -0.500620   -0.986384
    106          6           0       32.077611   -0.692066   -2.427691
    107          6           0       30.537231   -0.404343   -2.087823
    108          6           0       33.901618    0.433654   -0.823461
    109          6           0       32.261183   -2.040604   -3.182419
    110          6           0       32.021348   -1.921580   -4.673292
    111          7           0       27.509745    0.070531   -1.669394
    112          6           0       28.092337   -0.177054   -2.933889
    113          6           0       27.036725   -0.192818   -3.909538
    114          6           0       25.837890    0.066038   -3.201368
    115          6           0       26.215845    0.167202   -1.865369
    116          6           0       27.200823   -0.208295   -5.422040
    117          6           0       24.484345    0.246370   -3.387135
    118          8           0       23.723568    0.136453   -4.309742
    119          6           0       23.916626    0.337865   -1.876470
    120          6           0       23.339629   -1.052963   -1.617198
    121          8           0       23.979047   -2.040765   -1.310648
    122          8           0       21.972004   -0.961060   -1.819492
    123          6           0       21.228822   -2.213756   -1.729640
    124          1           0       26.979062    1.576402    4.268935
    125          1           0       32.584755   -0.230612    1.800277
    126          1           0       29.718905   -0.484805   -4.088881
    127          1           0       23.489004    1.626299    0.906476
    128          1           0       24.526240    0.717843    3.432357
    129          1           0       25.449025    3.147800    3.535986
    130          1           0       23.747231    3.113682    3.642819
    131          1           0       24.442824    3.599617    2.098100
    132          1           0       23.399230   -0.728588    2.592011
    133          1           0       23.368912   -1.341250    1.059759
    134          1           0       21.211527   -0.852581    0.814024
    135          1           0       21.429543    0.870137    1.131854
    136          1           0       28.058283    1.344941    5.939966
    137          1           0       29.639368    2.091644    6.172317
    138          1           0       29.297800    0.367387    6.472493
    139          1           0       33.706409    0.914523    3.285850
    140          1           0       33.553231   -0.844716    3.855826
    141          1           0       34.204040    0.540186    4.842579
    142          1           0       33.181370   -1.456829   -0.934333
    143          1           0       32.254104    0.172865   -3.067538
    144          1           0       33.775203    0.931149    0.139098
    145          1           0       34.068605    1.097624   -1.672393
    146          1           0       34.851659   -0.094616   -0.741836
    147          1           0       31.604418   -2.754202   -2.685071
    148          1           0       33.275410   -2.350677   -2.931040
    149          1           0       32.664266   -2.650624   -5.167130
    150          1           0       32.248210   -0.946670   -5.106410
    151          1           0       31.009385   -2.259155   -4.897207
    152          1           0       26.278245   -0.011652   -5.968266
    153          1           0       27.622973   -1.174027   -5.696947
    154          1           0       27.922598    0.540215   -5.749150
    155          1           0       23.247233    1.189919   -1.754137
    156          1           0       21.532853   -2.875154   -2.541115
    157          1           0       20.152210   -2.047017   -1.723605
    158          1           0       21.505682   -2.733966   -0.813105
 ---------------------------------------------------------------------

 SCF Done:  E(RPBE1PBE) =  -4067.39646568     A.U. after   17 cycles

 Excitation energies and oscillator strengths:

 Excited State   1:      Singlet-A      1.8106 eV  684.79 nm  f=0.3740  <S**2>=0.000
     309 -> 316       -0.15513
     312 -> 313        0.69952
     312 <- 313       -0.12511
 This state for optimization and/or second-order correction.
 Total Energy, E(TD-HF/TD-DFT) =  -4067.32992905
 Copying the excited state density for this state as the 1-particle RhoCI density.

 Excited State   2:      Singlet-A      1.8858 eV  657.46 nm  f=0.3599  <S**2>=0.000
     310 -> 315        0.14504
     311 -> 314        0.69237

 Excited State   3:      Singlet-A      1.9619 eV  631.96 nm  f=0.0000  <S**2>=0.000
     311 -> 313        0.70711

 Excited State   4:      Singlet-A      2.0249 eV  612.31 nm  f=0.0000  <S**2>=0.000
     312 -> 314        0.70711

 Excited State   5:      Singlet-A      2.2300 eV  555.98 nm  f=0.1176  <S**2>=0.000
     310 -> 314        0.65852
     311 -> 315       -0.22035
     311 -> 317        0.11516

 The electronic state is 1-A.
 Alpha  occ. eigenvalues --  -46.92810 -46.90903 -19.25494 -19.25339 -19.20291
 Alpha  occ. eigenvalues --  -19.20090 -19.19478 -19.18885 -19.18884 -19.18490
 Alpha  occ. eigenvalues --  -14.42145 -14.41736 -14.41602 -14.41369 -14.39993
 Alpha  occ. eigenvalues --  -14.38597 -14.38460 -14.38434 -10.36318 -10.35452
 Alpha  occ. eigenvalues --  -10.33845 -10.32480 -10.31953 -10.30959 -10.30238
 Alpha  occ. eigenvalues --  -10.29763 -10.29700 -10.29476 -10.29029 -10.29028
 Alpha  occ. eigenvalues --  -10.28556 -10.28493 -10.28371 -10.28136 -10.27863
 Alpha  occ. eigenvalues --  -10.27843 -10.27335 -10.27154 -10.26972 -10.26881
 Alpha  occ. eigenvalues --  -10.26856 -10.26565 -10.26526 -10.26390 -10.26379
 Alpha  occ. eigenvalues --  -10.26191 -10.26141 -10.26065 -10.26032 -10.25851
 Alpha  occ. eigenvalues --  -10.25610 -10.25607 -10.25603 -10.25596 -10.25544
 Alpha  occ. eigenvalues --  -10.25422 -10.25341 -10.25280 -10.25220 -10.25154
 Alpha  occ. eigenvalues --  -10.25074 -10.24959 -10.24944 -10.24576 -10.24570
 Alpha  occ. eigenvalues --  -10.24553 -10.24547 -10.24543 -10.24522 -10.24468
 Alpha  occ. eigenvalues --  -10.24301 -10.24274 -10.24058 -10.24014 -10.23852
 Alpha  occ. eigenvalues --  -10.23647 -10.23518 -10.23355 -10.23276 -10.23255
 Alpha  occ. eigenvalues --  -10.23198 -10.23195 -10.23134 -10.22557 -10.22520
 Alpha  occ. eigenvalues --  -10.21457  -3.14831  -3.13257  -1.87655  -1.87209
 Alpha  occ. eigenvalues --   -1.87058  -1.86103  -1.85650  -1.85479  -1.11619
 Alpha  occ. eigenvalues --   -1.10385  -1.05071  -1.05053  -1.03498  -1.03096
 Alpha  occ. eigenvalues --   -1.02908  -1.01895  -1.00054  -0.99181  -0.98523
 Alpha  occ. eigenvalues --   -0.98393  -0.97915  -0.97735  -0.97227  -0.96723
 Alpha  occ. eigenvalues --   -0.87613  -0.86250  -0.83489  -0.83389  -0.83125
 Alpha  occ. eigenvalues --   -0.82933  -0.82778  -0.82194  -0.82192  -0.81493
 Alpha  occ. eigenvalues --   -0.81394  -0.80896  -0.80592  -0.80376  -0.78665
 Alpha  occ. eigenvalues --   -0.78640  -0.78268  -0.77949  -0.77249  -0.76805
 Alpha  occ. eigenvalues --   -0.76370  -0.75821  -0.75503  -0.75208  -0.74910
 Alpha  occ. eigenvalues --   -0.74617  -0.72743  -0.71999  -0.71862  -0.71519
 Alpha  occ. eigenvalues --   -0.71364  -0.70947  -0.70472  -0.69768  -0.69590
 Alpha  occ. eigenvalues --   -0.69498  -0.67640  -0.66958  -0.66261  -0.66131
 Alpha  occ. eigenvalues --   -0.64102  -0.63871  -0.63499  -0.63319  -0.62669
 Alpha  occ. eigenvalues --   -0.62499  -0.61628  -0.60561  -0.60240  -0.60042
 Alpha  occ. eigenvalues --   -0.59927  -0.59403  -0.59234  -0.59193  -0.58727
 Alpha  occ. eigenvalues --   -0.58698  -0.56626  -0.56415  -0.54812  -0.54582
 Alpha  occ. eigenvalues --   -0.54373  -0.54165  -0.53713  -0.53585  -0.53499
 Alpha  occ. eigenvalues --   -0.53006  -0.52897  -0.52545  -0.52409  -0.52084
 Alpha  occ. eigenvalues --   -0.51147  -0.50850  -0.50458  -0.50146  -0.49711
 Alpha  occ. eigenvalues --   -0.49663  -0.49234  -0.48823  -0.48736  -0.48359
 Alpha  occ. eigenvalues --   -0.48111  -0.48043  -0.48021  -0.47985  -0.47780
 Alpha  occ. eigenvalues --   -0.47398  -0.47279  -0.47230  -0.46806  -0.46623
 Alpha  occ. eigenvalues --   -0.46309  -0.46284  -0.46217  -0.45899  -0.45724
 Alpha  occ. eigenvalues --   -0.45492  -0.45243  -0.45011  -0.44889  -0.44766
 Alpha  occ. eigenvalues --   -0.44586  -0.44558  -0.44448  -0.44283  -0.44272
 Alpha  occ. eigenvalues --   -0.43995  -0.43823  -0.43762  -0.43578  -0.43407
 Alpha  occ. eigenvalues --   -0.43396  -0.43271  -0.42968  -0.42884  -0.42734
 Alpha  occ. eigenvalues --   -0.42370  -0.42273  -0.42146  -0.42036  -0.41842
 Alpha  occ. eigenvalues --   -0.41621  -0.41605  -0.41329  -0.41279  -0.41123
 Alpha  occ. eigenvalues --   -0.41056  -0.40848  -0.40836  -0.40616  -0.40560
 Alpha  occ. eigenvalues --   -0.40181  -0.40101  -0.40041  -0.39947  -0.39946
 Alpha  occ. eigenvalues --   -0.39591  -0.39460  -0.39430  -0.38996  -0.38895
 Alpha  occ. eigenvalues --   -0.38820  -0.38571  -0.38560  -0.38529  -0.38347
 Alpha  occ. eigenvalues --   -0.38264  -0.38214  -0.37873  -0.37706  -0.37519
 Alpha  occ. eigenvalues --   -0.37398  -0.37197  -0.37088  -0.36880  -0.36877
 Alpha  occ. eigenvalues --   -0.36710  -0.36543  -0.36475  -0.36356  -0.35988
 Alpha  occ. eigenvalues --   -0.35864  -0.35785  -0.35586  -0.35379  -0.35329
 Alpha  occ. eigenvalues --   -0.35113  -0.34922  -0.34914  -0.34739  -0.34204
 Alpha  occ. eigenvalues --   -0.33970  -0.33363  -0.33049  -0.32978  -0.32473
 Alpha  occ. eigenvalues --   -0.32457  -0.31980  -0.31678  -0.31564  -0.31498
 Alpha  occ. eigenvalues --   -0.31434  -0.30498  -0.29663  -0.29494  -0.29278
 Alpha  occ. eigenvalues --   -0.29112  -0.28716  -0.28471  -0.27234  -0.27064
 Alpha  occ. eigenvalues --   -0.26784  -0.26409  -0.26201  -0.25988  -0.25412
 Alpha  occ. eigenvalues --   -0.25322  -0.24950  -0.24812  -0.21466  -0.20883
 Alpha  occ. eigenvalues --   -0.18962  -0.18785
 Alpha virt. eigenvalues --   -0.11515  -0.11109  -0.05488  -0.05109  -0.03930
 Alpha virt. eigenvalues --   -0.03836  -0.02532  -0.02068  -0.00946   0.00193
 Alpha virt. eigenvalues --    0.00871   0.00995   0.01246   0.01368   0.01724

 Mulliken charges:
               1
     1  Mg  11.998523
     2  C    5.975251
     3  C    5.995558
     4  C    6.029543
     5  C    6.013778
     6  N    6.988219
     7  C    6.039075
     8  C    5.985232
     9  C    6.006601
    10  C    5.975221
    11  C    6.004218
    12  C    5.997167
    13  C    6.002520
    14  H    0.995902
    15  N    7.005948
    16  C    5.963842
    17  C    5.976360
    18  C    5.992621
    19  C    5.955314
    20  C    6.004709
    21  C    5.987407
    22  O    7.974793
    23  C    6.005550
    24  N    7.017464
    25  C    5.961328
    26  C    6.008023
    27  C    5.994780
    28  C    6.020789
    29  C    6.001075
    30  C    5.992648
    31  C    5.999378
    32  N    6.996481
    33  C    6.022642
    34  C    6.035386
    35  C    5.998492
    36  C    6.031306
    37  C    5.995931
    38  C    6.015458
    39  O    8.026146
    40  C    6.002801
    41  C    6.001767
    42  O    8.003931
    43  O    8.001697
    44  C    5.999113
    45  H    0.983619
    46  H    0.995749
    47  H    1.013933
    48  H    1.001914
    49  H    0.998926
    50  H    0.999781
    51  H    0.985475
    52  H    1.001613
    53  H    1.005237
    54  H    0.992610
    55  H    1.006922
    56  H    1.002286
    57  H    0.981694
    58  H    0.982780
    59  H    0.984826
    60  H    0.986371
    61  H    0.994330
    62  H    0.994519
    63  H    1.001550
    64  H    1.001156
    65  H    0.987889
    66  H    0.994442
    67  H    1.007441
    68  H    0.995326
    69  H    1.015132
    70  H    1.007173
    71  H    1.004566
    72  H    0.999446
    73  H    1.021994
    74  H    1.017611
    75  H    1.015831
    76  H    1.007655
    77  H    1.005018
    78  H    1.004984
    79  H    1.000214
    80  Mg  11.999995
    81  C    6.000057
    82  C    6.000133
    83  C    6.000018
    84  C    5.999864
    85  N    7.000084
    86  C    6.000010
    87  C    5.999994
    88  C    6.000030
    89  C    5.999838
    90  C    6.000016
    91  C    5.999983
    92  C    5.999968
    93  H    1.000059
    94  N    7.000005
    95  C    5.999821
    96  C    5.999958
    97  C    5.999958
    98  C    5.999925
    99  C    6.000030
   100  C    5.999972
   101  O    7.999914
   102  C    6.000050
   103  N    6.999965
   104  C    5.999900
   105  C    6.000039
   106  C    6.000001
   107  C    6.000113
   108  C    6.000006
   109  C    5.999973
   110  C    6.000003
   111  N    7.000020
   112  C    6.000145
   113  C    6.000049
   114  C    6.000092
   115  C    6.000013
   116  C    5.999985
   117  C    6.000047
   118  O    8.000108
   119  C    6.000006
   120  C    6.000031
   121  O    7.999988
   122  O    8.000012
   123  C    5.999978
   124  H    0.999982
   125  H    0.999938
   126  H    1.000018
   127  H    1.000005
   128  H    1.000009
   129  H    0.999996
   130  H    0.999993
   131  H    0.999970
   132  H    1.000028
   133  H    0.999995
   134  H    1.000021
   135  H    1.000011
   136  H    0.999951
   137  H    0.999932
   138  H    0.999940
   139  H    0.999955
   140  H    0.999963
   141  H    0.999930
   142  H    0.999962
   143  H    0.999979
   144  H    1.000014
   145  H    0.999961
   146  H    0.999971
   147  H    1.000018
   148  H    1.000011
   149  H    1.000001
   150  H    0.999994
   151  H    1.000000
   152  H    1.000056
   153  H    1.000049
   154  H    1.000039
   155  H    1.000053
   156  H    1.000014
   157  H    1.000067
   158  H    1.000018
 Sum of Mulliken charges = 624.00000

 Dipole moment (field-independent basis, Debye):
    X=             -8.3910    Y=              4.7409    Z=              4.0071  Tot=             10.4375
 Quadrupole moment (field-independent basis, Debye-Ang):
   XX=            459.6075   YY=             -4.2988   ZZ=              3.0852
   XY=           -125.5672   XZ=           -114.4334   YZ=             -3.0870

 Normal termination of Gaussian 16 at Fri Oct 15 05:06:46 2021.
