 Gaussian 16, Revision A.03,
 Gaussian 16:  ES64L-G16RevA.03 25-Dec-2016

 --------------------------------------------------------
 #p PBE1PBE/Def2SVP td=(nstates=5) density=(transition=1)
 --------------------------------------------------------

 --------------------------------
 TDDFT excited states in gaussian
 --------------------------------
 Symbolic Z-matrix:
 Charge =  0 Multiplicity = 1

                         Standard orientation:
 ---------------------------------------------------------------------
 Center     Atomic      Atomic             Coordinates (Angstroms)
 Number     Number       Type             X           Y           Z
 ---------------------------------------------------------------------
      1         12           0       -8.628106   -0.954866    0.640694
      2          6           0       -9.994978    1.941554   -0.505390
      3          6           0       -7.001550    0.733735    3.158597
      4          6           0       -7.199436   -3.884506    1.555507
      5          6           0       -9.921729   -2.567202   -2.226128
      6          7           0       -8.340040    1.152814    1.119111
      7          6           0       -9.250665    2.077596    0.713413
      8          6           0       -9.247645    3.317101    1.542350
      9          6           0       -8.054850    2.949302    2.568503
     10          6           0       -7.759470    1.513384    2.283140
     11          6           0       -6.766031    3.869082    2.371073
     12          6           0      -10.660220    3.447192    2.281640
     13          6           0      -11.085303    4.843359    2.741678
     14          1           0      -10.135147    6.063898    2.825273
     15          7           0       -7.366009   -1.567926    2.191716
     16          6           0       -6.781875   -0.691956    3.121205
     17          6           0       -5.945976   -1.491253    3.986708
     18          6           0       -6.017820   -2.830967    3.553849
     19          6           0       -6.930782   -2.787800    2.419893
     20          6           0       -5.206953   -0.860499    5.189957
     21          6           0       -5.191115   -4.098847    4.124516
     22          8           0       -5.425896   -5.262174    3.773783
     23          6           0       -4.084068   -4.001162    5.161162
     24          7           0       -8.643819   -2.993962   -0.220600
     25          6           0       -7.928594   -3.986338    0.360974
     26          6           0       -7.840802   -5.214763   -0.543126
     27          6           0       -9.017238   -4.901263   -1.635921
     28          6           0       -9.326943   -3.429368   -1.320919
     29          6           0       -6.390482   -5.569062   -1.110278
     30          6           0      -10.409566   -5.690032   -1.438866
     31          6           0      -11.048697   -6.399271   -2.618544
     32          7           0       -9.783266   -0.504632   -1.040299
     33          6           0      -10.214296   -1.212592   -2.098987
     34          6           0      -11.091160   -0.356511   -2.957968
     35          6           0      -11.048176    0.889481   -2.288548
     36          6           0      -10.136970    0.744170   -1.214051
     37          6           0      -11.875865   -0.678677   -4.180261
     38          6           0      -11.569775    2.199884   -2.400904
     39          8           0      -12.342009    2.690979   -3.249699
     40          6           0      -10.907046    2.950908   -1.248833
     41          6           0      -10.123275    4.037522   -1.790270
     42          8           0       -9.252244    4.039962   -2.602931
     43          8           0      -10.494122    5.174240   -1.078093
     44          6           0       -9.844909    6.520844   -1.311663
     45          1           0       -6.642574    1.153664    4.100118
     46          1           0       -6.659124   -4.801645    1.800583
     47          1           0      -10.185605   -2.941309   -3.216917
     48          1           0       -9.061170    4.297267    1.103934
     49          1           0       -8.376797    3.054982    3.604479
     50          1           0       -6.224358    4.130584    3.279793
     51          1           0       -7.034526    4.732080    1.761967
     52          1           0       -6.064049    3.285203    1.774860
     53          1           0      -10.715150    2.798025    3.155737
     54          1           0      -11.390686    3.078575    1.561025
     55          1           0      -11.538235    4.700568    3.723599
     56          1           0      -11.920163    5.171101    2.123418
     57          1           0       -5.419606    0.197512    5.342655
     58          1           0       -4.143565   -1.028911    5.023077
     59          1           0       -5.487841   -1.435379    6.072708
     60          1           0       -4.597618   -3.719295    6.079612
     61          1           0       -3.463772   -3.114600    5.027957
     62          1           0       -3.435635   -4.875555    5.109632
     63          1           0       -8.173990   -6.075394    0.038103
     64          1           0       -8.667174   -5.090834   -2.650812
     65          1           0       -6.382879   -5.578434   -2.200468
     66          1           0       -6.061386   -6.531651   -0.720510
     67          1           0       -5.671718   -4.796445   -0.836216
     68          1           0      -11.166868   -5.063865   -0.967383
     69          1           0      -10.221821   -6.440727   -0.671793
     70          1           0      -12.051439   -5.985592   -2.719868
     71          1           0      -11.068270   -7.482772   -2.504651
     72          1           0      -10.525603   -6.127862   -3.536570
     73          1           0      -11.862372   -1.728982   -4.470959
     74          1           0      -11.502075   -0.122110   -5.040080
     75          1           0      -12.912137   -0.389023   -4.007223
     76          1           0      -11.636823    3.358381   -0.548589
     77          1           0       -9.046153    6.434377   -2.048604
     78          1           0       -9.374574    6.864378   -0.389352
     79          1           0      -10.647414    7.171566   -1.658903
     80         12           0        8.942706   -0.349559   -0.047848
     81          6           0        6.995866    2.538408   -0.350507
     82          6           0       11.576063    1.660334    0.917808
     83          6           0       11.056615   -3.004690   -0.412168
     84          6           0        6.430551   -2.119792   -1.644198
     85          7           0        9.163488    1.796910    0.313751
     86          6           0        8.194324    2.720852    0.332923
     87          6           0        8.590332    4.052595    0.987159
     88          6           0       10.133084    3.833191    1.228373
     89          6           0       10.340697    2.254639    0.881681
     90          6           0       11.107118    4.733068    0.437693
     91          6           0        7.801376    4.402608    2.249049
     92          6           0        7.721422    5.916669    2.516078
     93          1           0        8.425904    6.886714    1.557113
     94          7           0       10.990816   -0.685274    0.313604
     95          6           0       11.919553    0.272511    0.782076
     96          6           0       13.198724   -0.384331    0.961811
     97          6           0       13.085421   -1.752204    0.510807
     98          6           0       11.675738   -1.884285    0.146127
     99          6           0       14.351085    0.328915    1.613899
    100          6           0       14.141645   -2.946021    0.550053
    101          8           0       13.873865   -4.089056    0.269236
    102          6           0       15.553608   -2.578638    0.951855
    103          7           0        8.800164   -2.232797   -0.981314
    104          6           0        9.780153   -3.181837   -0.975249
    105          6           0        9.309408   -4.529627   -1.635973
    106          6           0        7.844492   -4.217075   -1.936810
    107          6           0        7.692521   -2.772484   -1.499001
    108          6           0       10.113212   -5.191869   -2.826579
    109          6           0        6.898932   -5.167175   -1.165099
    110          6           0        6.561068   -4.849364    0.308417
    111          7           0        6.996440    0.006584   -0.735631
    112          6           0        6.086308   -0.803427   -1.363890
    113          6           0        4.880517   -0.100936   -1.650080
    114          6           0        5.186125    1.281071   -1.264252
    115          6           0        6.431326    1.265334   -0.768159
    116          6           0        3.609943   -0.542805   -2.229077
    117          6           0        4.724168    2.661777   -1.299309
    118          8           0        3.620705    3.122382   -1.610797
    119          6           0        5.853609    3.555672   -0.707767
    120          6           0        6.273297    4.584508   -1.653802
    121          8           0        7.010028    4.419527   -2.620368
    122          8           0        5.538660    5.722848   -1.435155
    123          6           0        5.457527    6.754500   -2.487386
    124          1           0       12.355069    2.375264    1.191477
    125          1           0       11.669634   -3.906964   -0.362118
    126          1           0        5.600994   -2.696179   -2.058915
    127          1           0        8.554585    4.875982    0.274176
    128          1           0       10.411418    3.839007    2.281616
    129          1           0       11.713442    5.125241    1.253999
    130          1           0       10.567849    5.533669   -0.068034
    131          1           0       11.660370    4.145913   -0.295391
    132          1           0        8.198928    3.903833    3.132123
    133          1           0        6.777621    4.036965    2.165087
    134          1           0        8.156868    5.964648    3.514384
    135          1           0        6.694095    6.248554    2.672914
    136          1           0       14.044455    1.372707    1.682530
    137          1           0       15.240729    0.205378    0.995979
    138          1           0       14.593326   -0.065285    2.601967
    139          1           0       16.161446   -2.057514    0.211501
    140          1           0       16.047243   -3.488629    1.292926
    141          1           0       15.377955   -1.935990    1.814484
    142          1           0        9.424871   -5.215379   -0.796929
    143          1           0        7.721103   -4.336869   -3.012553
    144          1           0        9.501835   -5.494358   -3.675949
    145          1           0       10.564113   -6.112322   -2.457058
    146          1           0       10.918687   -4.509641   -3.100007
    147          1           0        7.357482   -6.152189   -1.243292
    148          1           0        5.987074   -5.191153   -1.762514
    149          1           0        6.591877   -5.817267    0.808082
    150          1           0        5.554358   -4.455250    0.445465
    151          1           0        7.204905   -4.098843    0.765639
    152          1           0        2.808285   -0.067287   -1.665065
    153          1           0        3.448284   -1.620685   -2.244393
    154          1           0        3.478049   -0.099165   -3.216100
    155          1           0        5.411260    3.972068    0.197119
    156          1           0        6.073913    6.509388   -3.353006
    157          1           0        5.839430    7.685307   -2.067323
    158          1           0        4.389914    6.741139   -2.703919
 ---------------------------------------------------------------------

 SCF Done:  E(RPBE1PBE) =  -4067.39054716     A.U. after   16 cycles

 Excitation energies and oscillator strengths:

 Excited State   1:      Singlet-A      1.8031 eV  687.62 nm  f=0.0000  <S**2>=0.000
     312 -> 313        0.70706
 This state for optimization and/or second-order correction.
 Total Energy, E(TD-HF/TD-DFT) =  -4067.32428522
 Copying the excited state density for this state as the 1-particle RhoCI density.

 Excited State   2:      Singlet-A      1.8747 eV  661.35 nm  f=0.5191  <S**2>=0.000
     310 -> 316       -0.17159
     311 -> 313        0.67939
     312 -> 314        0.12582
     311 <- 313       -0.10738

 Excited State   3:      Singlet-A      1.8926 eV  655.09 nm  f=0.2694  <S**2>=0.000
     309 -> 315        0.18346
     311 -> 313       -0.12552
     312 -> 314        0.67808
     312 <- 314       -0.10036

 Excited State   4:      Singlet-A      1.9698 eV  629.42 nm  f=0.0000  <S**2>=0.000
     311 -> 314        0.70705

 Excited State   5:      Singlet-A      2.1491 eV  576.92 nm  f=0.1300  <S**2>=0.000
     310 -> 313        0.66636
     311 -> 316        0.21061

 The electronic state is 1-A.
 Alpha  occ. eigenvalues --  -46.92689 -46.91689 -19.24575 -19.24217 -19.20091
 Alpha  occ. eigenvalues --  -19.19608 -19.19442 -19.19226 -19.19021 -19.18857
 Alpha  occ. eigenvalues --  -14.41909 -14.41723 -14.41497 -14.41062 -14.39147
 Alpha  occ. eigenvalues --  -14.39111 -14.38867 -14.37943 -10.35674 -10.35467
 Alpha  occ. eigenvalues --  -10.33442 -10.33288 -10.32306 -10.31429 -10.29309
 Alpha  occ. eigenvalues --  -10.28982 -10.28625 -10.28618 -10.28469 -10.28467
 Alpha  occ. eigenvalues --  -10.28407 -10.28351 -10.28261 -10.28002 -10.27918
 Alpha  occ. eigenvalues --  -10.27633 -10.27537 -10.27523 -10.27415 -10.26620
 Alpha  occ. eigenvalues --  -10.26436 -10.26428 -10.26301 -10.26248 -10.26237
 Alpha  occ. eigenvalues --  -10.26058 -10.26035 -10.26001 -10.25959 -10.25921
 Alpha  occ. eigenvalues --  -10.25893 -10.25805 -10.25770 -10.25625 -10.25569
 Alpha  occ. eigenvalues --  -10.25524 -10.25509 -10.25446 -10.25270 -10.25269
 Alpha  occ. eigenvalues --  -10.25247 -10.24994 -10.24989 -10.24829 -10.24827
 Alpha  occ. eigenvalues --  -10.24737 -10.24638 -10.24369 -10.24161 -10.24001
 Alpha  occ. eigenvalues --  -10.23969 -10.23890 -10.23705 -10.23580 -10.23560
 Alpha  occ. eigenvalues --  -10.23533 -10.23485 -10.23484 -10.23467 -10.23457
 Alpha  occ. eigenvalues --  -10.23352 -10.23248 -10.22902 -10.22727 -10.22581
 Alpha  occ. eigenvalues --  -10.22286  -3.14681  -3.13794  -1.87542  -1.87037
 Alpha  occ. eigenvalues --   -1.86915  -1.86636  -1.86165  -1.86023  -1.10203
 Alpha  occ. eigenvalues --   -1.09867  -1.06280  -1.04269  -1.03673  -1.02874
 Alpha  occ. eigenvalues --   -1.01877  -1.01477  -1.00109  -0.99063  -0.99009
 Alpha  occ. eigenvalues --   -0.98213  -0.98001  -0.97201  -0.97171  -0.95653
 Alpha  occ. eigenvalues --   -0.87721  -0.86494  -0.83470  -0.83086  -0.82865
 Alpha  occ. eigenvalues --   -0.82470  -0.82413  -0.81753  -0.81421  -0.81260
 Alpha  occ. eigenvalues --   -0.81116  -0.80736  -0.80443  -0.80429  -0.78559
 Alpha  occ. eigenvalues --   -0.78509  -0.77713  -0.77659  -0.76617  -0.76543
 Alpha  occ. eigenvalues --   -0.76111  -0.75752  -0.75374  -0.75345  -0.74585
 Alpha  occ. eigenvalues --   -0.74563  -0.72674  -0.72467  -0.71725  -0.71438
 Alpha  occ. eigenvalues --   -0.71286  -0.71167  -0.70382  -0.70235  -0.69469
 Alpha  occ. eigenvalues --   -0.69406  -0.66941  -0.66917  -0.66356  -0.65561
 Alpha  occ. eigenvalues --   -0.64182  -0.63631  -0.62926  -0.62878  -0.62541
 Alpha  occ. eigenvalues --   -0.62157  -0.60481  -0.60363  -0.59644  -0.59572
 Alpha  occ. eigenvalues --   -0.59280  -0.59146  -0.58985  -0.58969  -0.58720
 Alpha  occ. eigenvalues --   -0.58310  -0.56222  -0.56006  -0.54991  -0.54367
 Alpha  occ. eigenvalues --   -0.54309  -0.53709  -0.53690  -0.53624  -0.53291
 Alpha  occ. eigenvalues --   -0.52870  -0.52791  -0.52328  -0.52234  -0.52002
 Alpha  occ. eigenvalues --   -0.50579  -0.50428  -0.50076  -0.50012  -0.49711
 Alpha  occ. eigenvalues --   -0.49705  -0.49214  -0.48555  -0.48269  -0.48238
 Alpha  occ. eigenvalues --   -0.47850  -0.47612  -0.47487  -0.47425  -0.47282
 Alpha  occ. eigenvalues --   -0.47248  -0.46807  -0.46717  -0.46621  -0.46571
 Alpha  occ. eigenvalues --   -0.46428  -0.46278  -0.46178  -0.46070  -0.45890
 Alpha  occ. eigenvalues --   -0.45530  -0.45291  -0.45164  -0.45049  -0.44788
 Alpha  occ. eigenvalues --   -0.44393  -0.44227  -0.44120  -0.44095  -0.43968
 Alpha  occ. eigenvalues --   -0.43961  -0.43681  -0.43632  -0.43630  -0.43432
 Alpha  occ. eigenvalues --   -0.43191  -0.42923  -0.42862  -0.42778  -0.42718
 Alpha  occ. eigenvalues --   -0.42517  -0.42339  -0.42225  -0.41869  -0.41812
 Alpha  occ. eigenvalues --   -0.41539  -0.41448  -0.41188  -0.41081  -0.41016
 Alpha  occ. eigenvalues --   -0.40893  -0.40877  -0.40769  -0.40539  -0.40406
 Alpha  occ. eigenvalues --   -0.40279  -0.40020  -0.39808  -0.39802  -0.39421
 Alpha  occ. eigenvalues --   -0.39344  -0.39089  -0.39081  -0.38942  -0.38702
 Alpha  occ. eigenvalues --   -0.38667  -0.38661  -0.38471  -0.38461  -0.38259
 Alpha  occ. eigenvalues --   -0.38022  -0.37992  -0.37905  -0.37664  -0.37484
 Alpha  occ. eigenvalues --   -0.37412  -0.37269  -0.37045  -0.36867  -0.36553
 Alpha  occ. eigenvalues --   -0.36380  -0.36373  -0.36103  -0.35966  -0.35909
 Alpha  occ. eigenvalues --   -0.35813  -0.35752  -0.35570  -0.35565  -0.35131
 Alpha  occ. eigenvalues --   -0.35013  -0.34847  -0.34614  -0.34250  -0.33515
 Alpha  occ. eigenvalues --   -0.33351  -0.33337  -0.32842  -0.32712  -0.32712
 Alpha  occ. eigenvalues --   -0.32470  -0.31754  -0.31743  -0.31500  -0.31220
 Alpha  occ. eigenvalues --   -0.30926  -0.30621  -0.29574  -0.29340  -0.29234
 Alpha  occ. eigenvalues --   -0.28990  -0.28579  -0.28500  -0.26724  -0.26627
 Alpha  occ. eigenvalues --   -0.26357  -0.26026  -0.25929  -0.25749  -0.25605
 Alpha  occ. eigenvalues --   -0.25389  -0.25208  -0.24405  -0.20704  -0.20526
 Alpha  occ. eigenvalues --   -0.18908  -0.18690
 Alpha virt. eigenvalues --   -0.11301  -0.10915  -0.05100  -0.04893  -0.04119
 Alpha virt. eigenvalues --   -0.03648  -0.02052  -0.01943  -0.00206  -0.00011
 Alpha virt. eigenvalues --    0.00680   0.00865   0.01048   0.01441   0.01681

 Mulliken charges:
               1
     1  Mg  12.000000
     2  C    6.000000
     3  C    6.000000
     4  C    6.000000
     5  C    6.000000
     6  N    7.000000
     7  C    6.000000
     8  C    6.000000
     9  C    6.000000
    10  C    6.000000
    11  C    6.000000
    12  C    6.000000
    13  C    6.000000
    14  H    1.000000
    15  N    7.000000
    16  C    6.000000
    17  C    6.000000
    18  C    6.000000
    19  C    6.000000
    20  C    6.000000
    21  C    6.000000
    22  O    8.000000
    23  C    6.000000
    24  N    7.000000
    25  C    6.000000
    26  C    6.000000
    27  C    6.000000
    28  C    6.000000
    29  C    6.000000
    30  C    6.000000
    31  C    6.000000
    32  N    7.000000
    33  C    6.000000
    34  C    6.000000
    35  C    6.000000
    36  C    6.000000
    37  C    6.000000
    38  C    6.000000
    39  O    8.000000
    40  C    6.000000
    41  C    6.000000
    42  O    8.000000
    43  O    8.000000
    44  C    6.000000
    45  H    1.000000
    46  H    1.000000
    47  H    1.000000
    48  H    1.000000
    49  H    1.000000
    50  H    1.000000
    51  H    1.000000
    52  H    1.000000
    53  H    1.000000
    54  H    1.000000
    55  H    1.000000
    56  H    1.000000
    57  H    1.000000
    58  H    1.000000
    59  H    1.000000
    60  H    1.000000
    61  H    1.000000
    62  H    1.000000
    63  H    1.000000
    64  H    1.000000
    65  H    1.000000
    66  H    1.000000
    67  H    1.000000
    68  H    1.000000
    69  H    1.000000
    70  H    1.000000
    71  H    1.000000
    72  H    1.000000
    73  H    1.000000
    74  H    1.000000
    75  H    1.000000
    76  H    1.000000
    77  H    1.000000
    78  H    1.000000
    79  H    1.000000
    80  Mg  12.000000
    81  C    6.000000
    82  C    6.000000
    83  C    6.000000
    84  C    6.000000
    85  N    7.000000
    86  C    6.000000
    87  C    6.000000
    88  C    6.000000
    89  C    6.000000
    90  C    6.000000
    91  C    6.000000
    92  C    6.000000
    93  H    1.000000
    94  N    7.000000
    95  C    6.000000
    96  C    6.000000
    97  C    6.000000
    98  C    6.000000
    99  C    6.000000
   100  C    6.000000
   101  O    8.000000
   102  C    6.000000
   103  N    7.000000
   104  C    6.000000
   105  C    6.000000
   106  C    6.000000
   107  C    6.000000
   108  C    6.000000
   109  C    6.000000
   110  C    6.000000
   111  N    7.000000
   112  C    6.000000
   113  C    6.000000
   114  C    6.000000
   115  C    6.000000
   116  C    6.000000
   117  C    6.000000
   118  O    8.000000
   119  C    6.000000
   120  C    6.000000
   121  O    8.000000
   122  O    8.000000
   123  C    6.000000
   124  H    1.000000
   125  H    1.000000
   126  H    1.000000
   127  H    1.000000
   128  H    1.000000
   129  H    1.000000
   130  H    1.000000
   131  H    1.000000
   132  H    1.000000
   133  H    1.000000
   134  H    1.000000
   135  H    1.000000
   136  H    1.000000
   137  H    1.000000
   138  H    1.000000
   139  H    1.000000
   140  H    1.000000
   141  H    1.000000
   142  H    1.000000
   143  H    1.000000
   144  H    1.000000
   145  H    1.000000
   146  H    1.000000
   147  H    1.000000
   148  H    1.000000
   149  H    1.000000
   150  H    1.000000
   151  H    1.000000
   152  H    1.000000
   153  H    1.000000
   154  H    1.000000
   155  H    1.000000
   156  H    1.000000
   157  H    1.000000
   158  H    1.000000
 Sum of Mulliken charges = 624.00000

 Dipole moment (field-independent basis, Debye):
    X=             -0.0000    Y=              0.0000    Z=             -0.0000  Tot=              0.0000
 Quadrupole moment (field-independent basis, Debye-Ang):
   XX=              0.0001   YY=              0.0000   ZZ=             -0.0000
   XY=             -0.0000   XZ=              0.0000   YZ=              0.0000

 Normal termination of Gaussian 16 at Thu Oct 14 18:53:49 2021.
