 Gaussian 16, Revision A.03,
 Gaussian 16:  ES64L-G16RevA.03 25-Dec-2016

 --------------------------------------------------------
 #p PBE1PBE/Def2SVP td=(nstates=5) density=(transition=1)
 --------------------------------------------------------

 --------------------------------
 TDDFT excited states in gaussian
 --------------------------------
 Symbolic Z-matrix:
 Charge =  0 Multiplicity = 1

                         Standard orientation:
 ---------------------------------------------------------------------
 Center     Atomic      Atomic             Coordinates (Angstroms)
 Number     Number       Type             X           Y           Z
 ---------------------------------------------------------------------
      1         12           0      -25.663102   -0.344422    0.525827
      2          6           0      -24.226681    2.042437   -1.555764
      3          6           0      -25.413918   -2.636935   -2.008962
      4          6           0      -27.362647   -2.542306    2.499423
      5          6           0      -26.047430    2.263331    2.910203
      6          7           0      -24.943616   -0.294901   -1.544980
      7          6           0      -24.292381    0.768523   -2.112257
      8          6           0      -23.815538    0.299977   -3.489238
      9          6           0      -24.462093   -1.055871   -3.710410
     10          6           0      -24.947347   -1.368184   -2.299395
     11          6           0      -25.527424   -1.216214   -4.761527
     12          6           0      -22.229255    0.324850   -3.715804
     13          6           0      -21.716968   -0.353108   -5.027133
     14          1           0      -21.555672    0.519666   -6.299263
     15          7           0      -26.155372   -2.349013    0.311091
     16          6           0      -26.001902   -3.105581   -0.804075
     17          6           0      -26.574634   -4.393516   -0.510362
     18          6           0      -27.142377   -4.353400    0.797029
     19          6           0      -26.931771   -3.055658    1.259477
     20          6           0      -26.522270   -5.495143   -1.523503
     21          6           0      -27.976035   -5.479311    1.475261
     22          8           0      -28.706650   -5.254272    2.423485
     23          6           0      -28.048278   -6.841272    0.971559
     24          7           0      -26.510348   -0.154199    2.322302
     25          6           0      -27.132090   -1.204625    2.996669
     26          6           0      -27.622259   -0.797800    4.397184
     27          6           0      -26.942269    0.602335    4.574507
     28          6           0      -26.424551    0.900841    3.177107
     29          6           0      -29.059829   -0.965984    4.669235
     30          6           0      -25.826475    0.806008    5.742260
     31          6           0      -26.031949    1.850470    6.843500
     32          7           0      -25.275119    1.812270    0.667910
     33          6           0      -25.509503    2.688527    1.690198
     34          6           0      -25.072636    4.001678    1.354111
     35          6           0      -24.463601    3.791631    0.058187
     36          6           0      -24.704353    2.445783   -0.336651
     37          6           0      -25.169391    5.171303    2.257814
     38          6           0      -23.674808    4.436370   -0.966376
     39          8           0      -23.166128    5.534689   -1.076144
     40          6           0      -23.500258    3.263733   -2.099626
     41          6           0      -23.882756    3.750039   -3.449812
     42          8           0      -25.014659    4.049076   -3.761427
     43          8           0      -22.836329    3.808118   -4.292105
     44          6           0      -23.138738    4.040079   -5.756653
     45          1           0      -25.288579   -3.386020   -2.793926
     46          1           0      -27.910513   -3.264010    3.108597
     47          1           0      -26.229747    2.907379    3.773210
     48          1           0      -24.270830    1.068431   -4.113815
     49          1           0      -23.702429   -1.768377   -4.030914
     50          1           0      -26.397855   -1.301949   -4.111791
     51          1           0      -25.347028   -2.068907   -5.416264
     52          1           0      -25.689975   -0.301504   -5.332005
     53          1           0      -21.877572   -0.228396   -2.844721
     54          1           0      -21.869456    1.352883   -3.695641
     55          1           0      -22.382905   -1.150564   -5.354426
     56          1           0      -20.755401   -0.817140   -4.807710
     57          1           0      -25.968207   -5.322408   -2.446676
     58          1           0      -27.551475   -5.637969   -1.851135
     59          1           0      -26.216420   -6.451846   -1.099633
     60          1           0      -28.244075   -7.023068   -0.084688
     61          1           0      -28.712408   -7.509360    1.519756
     62          1           0      -27.063039   -7.227463    1.231985
     63          1           0      -27.053815   -1.535582    4.964101
     64          1           0      -27.839510    1.209752    4.692177
     65          1           0      -29.337006   -1.687565    5.438211
     66          1           0      -29.534567   -1.271094    3.736326
     67          1           0      -29.555717   -0.060142    5.017787
     68          1           0      -24.887757    1.062927    5.251811
     69          1           0      -25.553114   -0.068599    6.333765
     70          1           0      -25.443331    2.761013    6.728523
     71          1           0      -25.987558    1.459556    7.859626
     72          1           0      -27.042776    2.242765    6.731148
     73          1           0      -26.164523    5.182499    2.701805
     74          1           0      -24.925420    6.109227    1.759659
     75          1           0      -24.571912    4.945722    3.141709
     76          1           0      -22.431034    3.057688   -2.136468
     77          1           0      -22.181277    4.403927   -6.128777
     78          1           0      -23.934835    4.780233   -5.834718
     79          1           0      -23.365912    3.064070   -6.185739
     80         12           0       25.888692    0.537177   -0.292167
     81          6           0       24.156545   -2.483919   -0.764227
     82          6           0       22.885691    2.202199   -0.470583
     83          6           0       27.473574    3.186325    0.897671
     84          6           0       28.882054   -1.327602    0.132367
     85          7           0       23.773603   -0.099110   -0.327317
     86          6           0       23.271688   -1.410632   -0.530036
     87          6           0       21.857467   -1.424568   -0.942116
     88          6           0       21.490825    0.122154   -0.936872
     89          6           0       22.803601    0.807019   -0.590951
     90          6           0       20.785773    0.570200   -2.240013
     91          6           0       20.931721   -2.106145    0.018808
     92          6           0       21.231463   -1.924624    1.514256
     93          1           0       20.070925   -1.816264    2.578493
     94          7           0       25.296652    2.482560    0.134905
     95          6           0       24.067806    2.966451   -0.128626
     96          6           0       24.078434    4.388523    0.107086
     97          6           0       25.414555    4.726317    0.435300
     98          6           0       26.157397    3.456509    0.478022
     99          6           0       22.884821    5.303161    0.043901
    100          6           0       25.938595    6.138145    0.696313
    101          8           0       25.198548    7.101056    0.645351
    102          6           0       27.315553    6.531403    1.142929
    103          7           0       27.803350    0.832841    0.652140
    104          6           0       28.257287    2.070394    1.023301
    105          6           0       29.799959    2.060822    1.281297
    106          6           0       30.113489    0.534421    1.319160
    107          6           0       28.878364   -0.025986    0.648626
    108          6           0       30.658959    2.770717    0.207108
    109          6           0       30.127654   -0.145167    2.769114
    110          6           0       31.266960   -1.048321    3.075612
    111          7           0       26.471330   -1.396755   -0.397431
    112          6           0       27.698291   -1.935045   -0.392069
    113          6           0       27.662872   -3.313161   -1.012085
    114          6           0       26.259442   -3.512438   -1.209870
    115          6           0       25.572760   -2.380701   -0.686122
    116          6           0       28.789069   -4.290581   -1.316383
    117          6           0       25.299554   -4.514661   -1.573013
    118          8           0       25.454743   -5.671296   -1.931700
    119          6           0       23.882461   -3.858078   -1.321154
    120          6           0       23.237248   -4.624896   -0.185456
    121          8           0       23.564521   -4.644288    0.954941
    122          8           0       22.101906   -5.233341   -0.676901
    123          6           0       21.223110   -5.771470    0.366391
    124          1           0       21.968309    2.737358   -0.723749
    125          1           0       28.056090    4.081433    1.122031
    126          1           0       29.864137   -1.804862    0.145195
    127          1           0       21.801513   -1.921080   -1.910844
    128          1           0       20.891939    0.469161   -0.094899
    129          1           0       19.943331    1.124532   -1.825977
    130          1           0       20.503069   -0.336214   -2.775476
    131          1           0       21.385163    1.260360   -2.834074
    132          1           0       20.719303   -3.145403   -0.233437
    133          1           0       19.896954   -1.765741   -0.025549
    134          1           0       21.862347   -1.036547    1.564809
    135          1           0       21.882182   -2.775186    1.718017
    136          1           0       22.854078    5.967108    0.908441
    137          1           0       21.974758    4.715554   -0.076331
    138          1           0       23.054435    5.894233   -0.856399
    139          1           0       27.596934    6.199729    2.141870
    140          1           0       27.196159    7.609011    1.256201
    141          1           0       28.065325    6.437942    0.356576
    142          1           0       29.978878    2.560940    2.233036
    143          1           0       31.010376    0.262191    0.762156
    144          1           0       31.244969    2.018011   -0.319961
    145          1           0       31.161636    3.651052    0.607307
    146          1           0       29.991689    3.197333   -0.540936
    147          1           0       29.192030   -0.668327    2.965281
    148          1           0       30.157443    0.704634    3.451275
    149          1           0       31.813333   -0.756249    3.972185
    150          1           0       31.973964   -1.152523    2.252253
    151          1           0       30.931840   -2.062310    3.292152
    152          1           0       28.562171   -5.201758   -0.762846
    153          1           0       29.733253   -3.775958   -1.133901
    154          1           0       28.665812   -4.555941   -2.366301
    155          1           0       23.260113   -3.860846   -2.215735
    156          1           0       21.280453   -5.214296    1.301367
    157          1           0       21.591348   -6.787876    0.506098
    158          1           0       20.245595   -5.884487   -0.101646
 ---------------------------------------------------------------------

 SCF Done:  E(RPBE1PBE) =  -4067.37166195     A.U. after   16 cycles

 Excitation energies and oscillator strengths:

 Excited State   1:      Singlet-A      1.8294 eV  677.74 nm  f=0.3557  <S**2>=0.000
     309 -> 316        0.16662
     312 -> 313        0.69537
     312 <- 313       -0.11481
 This state for optimization and/or second-order correction.
 Total Energy, E(TD-HF/TD-DFT) =  -4067.30443345
 Copying the excited state density for this state as the 1-particle RhoCI density.

 Excited State   2:      Singlet-A      1.8570 eV  667.66 nm  f=0.3874  <S**2>=0.000
     310 -> 315       -0.17288
     311 -> 314        0.69303
     311 <- 314       -0.11171

 Excited State   3:      Singlet-A      1.9634 eV  631.47 nm  f=0.0000  <S**2>=0.000
     312 -> 314        0.70711

 Excited State   4:      Singlet-A      1.9809 eV  625.90 nm  f=0.0000  <S**2>=0.000
     311 -> 313        0.70711

 Excited State   5:      Singlet-A      2.2290 eV  556.23 nm  f=0.0891  <S**2>=0.000
     310 -> 314        0.64388
     311 -> 315        0.27284

 The electronic state is 1-A.
 Alpha  occ. eigenvalues --  -46.91966 -46.91267 -19.25264 -19.25064 -19.20596
 Alpha  occ. eigenvalues --  -19.19363 -19.19278 -19.18927 -19.18477 -19.18426
 Alpha  occ. eigenvalues --  -14.42220 -14.41887 -14.41547 -14.41414 -14.39253
 Alpha  occ. eigenvalues --  -14.39123 -14.38731 -14.38104 -10.36244 -10.34954
 Alpha  occ. eigenvalues --  -10.32693 -10.32141 -10.31812 -10.31728 -10.29360
 Alpha  occ. eigenvalues --  -10.29332 -10.29001 -10.28931 -10.28851 -10.28671
 Alpha  occ. eigenvalues --  -10.28618 -10.28493 -10.28441 -10.28356 -10.28093
 Alpha  occ. eigenvalues --  -10.28070 -10.27589 -10.27446 -10.27324 -10.27134
 Alpha  occ. eigenvalues --  -10.27077 -10.26741 -10.26493 -10.26332 -10.26150
 Alpha  occ. eigenvalues --  -10.26122 -10.25992 -10.25943 -10.25938 -10.25937
 Alpha  occ. eigenvalues --  -10.25806 -10.25801 -10.25759 -10.25645 -10.25355
 Alpha  occ. eigenvalues --  -10.25335 -10.25329 -10.25133 -10.25065 -10.25014
 Alpha  occ. eigenvalues --  -10.24917 -10.24768 -10.24724 -10.24723 -10.24714
 Alpha  occ. eigenvalues --  -10.24671 -10.24514 -10.24509 -10.24448 -10.24357
 Alpha  occ. eigenvalues --  -10.24125 -10.24085 -10.24058 -10.24044 -10.23971
 Alpha  occ. eigenvalues --  -10.23695 -10.23601 -10.23417 -10.23203 -10.23041
 Alpha  occ. eigenvalues --  -10.23031 -10.22953 -10.22916 -10.22900 -10.22800
 Alpha  occ. eigenvalues --  -10.22781  -3.14188  -3.13505  -1.86990  -1.86567
 Alpha  occ. eigenvalues --   -1.86429  -1.86363  -1.85882  -1.85730  -1.11999
 Alpha  occ. eigenvalues --   -1.10615  -1.05696  -1.05120  -1.04707  -1.04276
 Alpha  occ. eigenvalues --   -1.03785  -1.01553  -0.99859  -0.99215  -0.98802
 Alpha  occ. eigenvalues --   -0.98685  -0.97949  -0.97914  -0.97263  -0.97002
 Alpha  occ. eigenvalues --   -0.87540  -0.86804  -0.84147  -0.83741  -0.83482
 Alpha  occ. eigenvalues --   -0.83026  -0.82701  -0.82649  -0.81884  -0.81845
 Alpha  occ. eigenvalues --   -0.81257  -0.80998  -0.80638  -0.80111  -0.79010
 Alpha  occ. eigenvalues --   -0.78906  -0.78463  -0.77997  -0.76999  -0.76797
 Alpha  occ. eigenvalues --   -0.76712  -0.75894  -0.75716  -0.75158  -0.75100
 Alpha  occ. eigenvalues --   -0.74808  -0.73131  -0.72294  -0.72120  -0.71799
 Alpha  occ. eigenvalues --   -0.71576  -0.71134  -0.70358  -0.70208  -0.69524
 Alpha  occ. eigenvalues --   -0.69508  -0.67240  -0.67171  -0.66273  -0.66093
 Alpha  occ. eigenvalues --   -0.63940  -0.63682  -0.63291  -0.63272  -0.63032
 Alpha  occ. eigenvalues --   -0.62724  -0.61526  -0.61350  -0.60295  -0.60096
 Alpha  occ. eigenvalues --   -0.59914  -0.59623  -0.59115  -0.59063  -0.58903
 Alpha  occ. eigenvalues --   -0.58758  -0.56660  -0.56006  -0.55072  -0.54518
 Alpha  occ. eigenvalues --   -0.54288  -0.54077  -0.53594  -0.53523  -0.53449
 Alpha  occ. eigenvalues --   -0.53408  -0.52692  -0.52575  -0.52011  -0.51696
 Alpha  occ. eigenvalues --   -0.51113  -0.50976  -0.50535  -0.50331  -0.49969
 Alpha  occ. eigenvalues --   -0.49764  -0.49670  -0.49358  -0.49198  -0.49086
 Alpha  occ. eigenvalues --   -0.48688  -0.48405  -0.47792  -0.47615  -0.47569
 Alpha  occ. eigenvalues --   -0.47367  -0.47136  -0.46906  -0.46890  -0.46771
 Alpha  occ. eigenvalues --   -0.46737  -0.46622  -0.46260  -0.45946  -0.45880
 Alpha  occ. eigenvalues --   -0.45775  -0.45612  -0.45536  -0.45437  -0.45072
 Alpha  occ. eigenvalues --   -0.44812  -0.44619  -0.44562  -0.44229  -0.44058
 Alpha  occ. eigenvalues --   -0.43999  -0.43942  -0.43939  -0.43698  -0.43603
 Alpha  occ. eigenvalues --   -0.43525  -0.43425  -0.43224  -0.43198  -0.43073
 Alpha  occ. eigenvalues --   -0.42861  -0.42415  -0.42228  -0.42144  -0.41890
 Alpha  occ. eigenvalues --   -0.41809  -0.41807  -0.41604  -0.41588  -0.41457
 Alpha  occ. eigenvalues --   -0.41348  -0.41221  -0.41102  -0.40981  -0.40791
 Alpha  occ. eigenvalues --   -0.40696  -0.40601  -0.40250  -0.39975  -0.39910
 Alpha  occ. eigenvalues --   -0.39833  -0.39577  -0.39479  -0.39242  -0.39167
 Alpha  occ. eigenvalues --   -0.39052  -0.38871  -0.38845  -0.38701  -0.38527
 Alpha  occ. eigenvalues --   -0.38418  -0.38076  -0.38035  -0.37674  -0.37658
 Alpha  occ. eigenvalues --   -0.37549  -0.37378  -0.37171  -0.37040  -0.37005
 Alpha  occ. eigenvalues --   -0.36775  -0.36719  -0.36646  -0.36332  -0.36142
 Alpha  occ. eigenvalues --   -0.36068  -0.35817  -0.35657  -0.35296  -0.35272
 Alpha  occ. eigenvalues --   -0.35089  -0.34793  -0.34464  -0.34212  -0.34036
 Alpha  occ. eigenvalues --   -0.33758  -0.33425  -0.32838  -0.32734  -0.32304
 Alpha  occ. eigenvalues --   -0.32254  -0.32092  -0.31922  -0.31457  -0.31347
 Alpha  occ. eigenvalues --   -0.30993  -0.30746  -0.29910  -0.29488  -0.29411
 Alpha  occ. eigenvalues --   -0.29255  -0.28669  -0.27886  -0.27001  -0.26617
 Alpha  occ. eigenvalues --   -0.26090  -0.26064  -0.25506  -0.25348  -0.25251
 Alpha  occ. eigenvalues --   -0.25199  -0.25132  -0.24680  -0.21227  -0.21122
 Alpha  occ. eigenvalues --   -0.18774  -0.18705
 Alpha virt. eigenvalues --   -0.11238  -0.11233  -0.05374  -0.05319  -0.04003
 Alpha virt. eigenvalues --   -0.03595  -0.01907  -0.01724  -0.01325   0.00555
 Alpha virt. eigenvalues --    0.00807   0.00880   0.01012   0.01344   0.01406

 Mulliken charges:
               1
     1  Mg  12.000028
     2  C    6.000141
     3  C    5.999920
     4  C    5.999830
     5  C    6.000027
     6  N    6.999993
     7  C    5.999731
     8  C    6.000058
     9  C    5.999955
    10  C    6.000224
    11  C    5.999982
    12  C    6.000037
    13  C    5.999984
    14  H    0.999996
    15  N    6.999994
    16  C    6.000260
    17  C    6.000280
    18  C    6.000029
    19  C    6.000343
    20  C    5.999920
    21  C    6.000132
    22  O    8.000195
    23  C    5.999923
    24  N    6.999999
    25  C    6.000357
    26  C    5.999895
    27  C    6.000113
    28  C    5.999716
    29  C    5.999990
    30  C    6.000033
    31  C    6.000010
    32  N    6.999988
    33  C    5.999786
    34  C    5.999718
    35  C    5.999968
    36  C    5.999757
    37  C    6.000034
    38  C    5.999809
    39  O    7.999687
    40  C    5.999986
    41  C    5.999972
    42  O    7.999960
    43  O    7.999983
    44  C    6.000010
    45  H    1.000091
    46  H    1.000105
    47  H    0.999896
    48  H    1.000002
    49  H    1.000001
    50  H    0.999963
    51  H    1.000018
    52  H    1.000107
    53  H    0.999948
    54  H    1.000035
    55  H    0.999959
    56  H    0.999983
    57  H    1.000191
    58  H    1.000211
    59  H    1.000204
    60  H    1.000056
    61  H    1.000146
    62  H    1.000081
    63  H    1.000002
    64  H    0.999985
    65  H    1.000023
    66  H    0.999972
    67  H    1.000105
    68  H    1.000019
    69  H    0.999905
    70  H    1.000018
    71  H    0.999949
    72  H    0.999984
    73  H    0.999836
    74  H    0.999856
    75  H    0.999793
    76  H    0.999917
    77  H    0.999947
    78  H    0.999979
    79  H    0.999956
    80  Mg  12.002019
    81  C    6.027555
    82  C    5.992327
    83  C    5.978696
    84  C    6.007268
    85  N    7.006567
    86  C    5.960460
    87  C    6.013876
    88  C    5.991485
    89  C    6.029137
    90  C    5.998144
    91  C    6.003501
    92  C    6.005652
    93  H    0.991545
    94  N    6.991897
    95  C    6.039823
    96  C    6.021688
    97  C    6.005673
    98  C    6.042731
    99  C    5.997253
   100  C    6.010589
   101  O    8.018515
   102  C    5.996361
   103  N    6.996099
   104  C    6.032651
   105  C    5.993688
   106  C    6.005464
   107  C    5.976629
   108  C    6.000172
   109  C    6.007178
   110  C    6.000255
   111  N    7.001159
   112  C    5.965761
   113  C    5.961133
   114  C    6.005141
   115  C    5.962741
   116  C    6.000405
   117  C    5.985047
   118  O    7.975041
   119  C    5.998018
   120  C    5.997291
   121  O    7.996313
   122  O    7.997968
   123  C    6.001223
   124  H    1.012218
   125  H    1.007567
   126  H    0.988906
   127  H    0.998702
   128  H    0.998144
   129  H    1.000130
   130  H    1.012241
   131  H    0.998200
   132  H    1.003501
   133  H    0.991450
   134  H    0.990516
   135  H    1.006635
   136  H    1.015901
   137  H    1.017134
   138  H    1.017456
   139  H    1.010468
   140  H    1.010666
   141  H    1.011117
   142  H    0.999621
   143  H    1.000260
   144  H    1.012028
   145  H    1.000090
   146  H    0.995353
   147  H    1.000769
   148  H    0.986125
   149  H    0.994720
   150  H    0.999432
   151  H    1.002951
   152  H    0.981716
   153  H    0.982664
   154  H    0.981360
   155  H    0.990262
   156  H    0.996043
   157  H    0.998631
   158  H    0.994886
 Sum of Mulliken charges = 624.00000

 Dipole moment (field-independent basis, Debye):
    X=             -2.6929    Y=              9.7020    Z=              1.0823  Tot=             10.1268
 Quadrupole moment (field-independent basis, Debye-Ang):
   XX=           -138.1836   YY=             10.3328   ZZ=             -1.8644
   XY=            253.7248   XZ=             30.3762   YZ=             -2.9264

 Normal termination of Gaussian 16 at Fri Oct 15 03:49:59 2021.
