 Gaussian 16, Revision A.03,
 Gaussian 16:  ES64L-G16RevA.03 25-Dec-2016

 --------------------------------------------------------
 #p PBE1PBE/Def2SVP td=(nstates=5) density=(transition=1)
 --------------------------------------------------------

 --------------------------------
 TDDFT excited states in gaussian
 --------------------------------
 Symbolic Z-matrix:
 Charge =  0 Multiplicity = 1

                         Standard orientation:
 ---------------------------------------------------------------------
 Center     Atomic      Atomic             Coordinates (Angstroms)
 Number     Number       Type             X           Y           Z
 ---------------------------------------------------------------------
      1         12           0      -13.907787   -0.510662    0.279167
      2          6           0      -12.940276    2.888760   -0.870341
      3          6           0      -12.390937    0.391333    3.161785
      4          6           0      -14.526777   -3.522637    1.048896
      5          6           0      -14.605968   -1.206807   -3.141628
      6          7           0      -12.767407    1.394473    0.996440
      7          6           0      -12.681421    2.656319    0.432948
      8          6           0      -12.185262    3.749023    1.386807
      9          6           0      -11.593921    2.834699    2.503800
     10          6           0      -12.267129    1.433089    2.236800
     11          6           0      -10.101107    2.734254    2.521843
     12          6           0      -13.229514    4.815940    1.858118
     13          6           0      -12.738373    6.190531    2.167958
     14          1           0      -13.424470    6.878739    3.343736
     15          7           0      -13.553030   -1.472810    1.944131
     16          6           0      -12.952754   -0.924866    3.097060
     17          6           0      -13.073575   -1.890221    4.151269
     18          6           0      -13.848532   -2.972885    3.546334
     19          6           0      -13.990556   -2.662866    2.169546
     20          6           0      -12.621606   -1.664108    5.641384
     21          6           0      -14.368209   -4.174727    4.274228
     22          8           0      -14.974420   -5.101144    3.682902
     23          6           0      -14.257602   -4.345959    5.745296
     24          7           0      -14.327315   -2.195732   -0.849796
     25          6           0      -14.575164   -3.379923   -0.286580
     26          6           0      -15.000103   -4.488379   -1.302363
     27          6           0      -15.431062   -3.561165   -2.499239
     28          6           0      -14.706404   -2.225045   -2.179581
     29          6           0      -13.808115   -5.419700   -1.694292
     30          6           0      -16.999865   -3.330689   -2.548742
     31          6           0      -17.945260   -4.550265   -2.564719
     32          7           0      -13.849708    0.591892   -1.621207
     33          6           0      -14.231662    0.161740   -2.886834
     34          6           0      -14.023156    1.223597   -3.843234
     35          6           0      -13.558654    2.312318   -3.094283
     36          6           0      -13.380459    1.870519   -1.754493
     37          6           0      -14.383131    1.208467   -5.290826
     38          6           0      -13.152024    3.708300   -3.188025
     39          8           0      -13.127327    4.527017   -4.097446
     40          6           0      -12.825810    4.111786   -1.657606
     41          6           0      -11.511090    4.729255   -1.688516
     42          8           0      -10.442869    4.191651   -2.020428
     43          8           0      -11.689295    6.082586   -1.723924
     44          6           0      -10.549511    6.936669   -1.823418
     45          1           0      -12.019793    0.798249    4.104909
     46          1           0      -14.755839   -4.566846    1.270796
     47          1           0      -14.851727   -1.475878   -4.171398
     48          1           0      -11.367045    4.264709    0.883675
     49          1           0      -11.987475    3.119404    3.479138
     50          1           0       -9.845135    1.746494    2.138501
     51          1           0       -9.743268    2.771448    3.550659
     52          1           0       -9.543320    3.467431    1.939573
     53          1           0      -13.656111    4.446753    2.790322
     54          1           0      -14.031769    4.830175    1.120849
     55          1           0      -12.952512    6.747242    1.255864
     56          1           0      -11.650223    6.254846    2.177100
     57          1           0      -13.426698   -1.500113    6.357037
     58          1           0      -11.877629   -0.871344    5.714921
     59          1           0      -12.105052   -2.601995    5.849192
     60          1           0      -13.227862   -4.616086    5.980718
     61          1           0      -14.934709   -5.162842    5.996435
     62          1           0      -14.616250   -3.419021    6.191564
     63          1           0      -15.799930   -5.046426   -0.814411
     64          1           0      -15.104038   -3.882986   -3.487505
     65          1           0      -14.037470   -6.401967   -1.280444
     66          1           0      -12.817497   -5.075726   -1.398646
     67          1           0      -13.903923   -5.447088   -2.780656
     68          1           0      -17.241000   -2.807760   -3.473909
     69          1           0      -17.226038   -2.633155   -1.742468
     70          1           0      -18.574901   -4.420820   -1.684565
     71          1           0      -17.280486   -5.401864   -2.417147
     72          1           0      -18.563706   -4.590229   -3.461269
     73          1           0      -15.023104    0.332438   -5.398699
     74          1           0      -13.446183    1.074396   -5.831358
     75          1           0      -14.834393    2.134412   -5.647279
     76          1           0      -13.577236    4.814683   -1.298351
     77          1           0       -9.618191    6.369911   -1.827040
     78          1           0      -10.569223    7.539045   -0.915117
     79          1           0      -10.653364    7.640907   -2.647638
     80         12           0       13.137882   -0.824788   -0.448438
     81          6           0       15.424110    1.756279    0.140549
     82          6           0       10.665913    1.118617    0.490865
     83          6           0       11.082539   -3.574599   -0.314620
     84          6           0       15.834595   -3.045533   -0.959854
     85          7           0       13.096671    1.202998    0.124027
     86          6           0       14.103104    2.134759    0.253007
     87          6           0       13.550808    3.534919    0.486956
     88          6           0       12.053778    3.229471    0.813660
     89          6           0       11.898579    1.819317    0.361159
     90          6           0       11.513513    3.524103    2.196347
     91          6           0       13.805597    4.544924   -0.677181
     92          6           0       13.276996    5.963394   -0.437821
     93          1           0       14.276154    7.092105   -0.645643
     94          7           0       11.059402   -1.198263    0.110000
     95          6           0       10.178551   -0.200103    0.330222
     96          6           0        8.857113   -0.752320    0.443437
     97          6           0        8.981922   -2.146615    0.317398
     98          6           0       10.428835   -2.355219    0.038497
     99          6           0        7.618373    0.073264    0.720031
    100          6           0        7.929102   -3.206039    0.329707
    101          8           0        8.125005   -4.450587    0.353809
    102          6           0        6.456067   -2.821053    0.267036
    103          7           0       13.426833   -2.958543   -0.583162
    104          6           0       12.431580   -3.862260   -0.426918
    105          6           0       12.973667   -5.340547   -0.819517
    106          6           0       14.367364   -5.014669   -1.462477
    107          6           0       14.564788   -3.587706   -1.062515
    108          6           0       13.024436   -6.232579    0.482034
    109          6           0       14.278092   -5.038345   -3.032186
    110          6           0       13.197319   -4.226674   -3.729234
    111          7           0       15.277621   -0.703209   -0.484215
    112          6           0       16.184978   -1.701324   -0.711251
    113          6           0       17.447552   -1.126681   -0.640767
    114          6           0       17.284334    0.243237   -0.285522
    115          6           0       15.933458    0.455239   -0.199497
    116          6           0       18.780419   -1.775764   -0.769176
    117          6           0       17.933535    1.532937    0.041889
    118          8           0       19.101709    1.882547    0.166353
    119          6           0       16.719392    2.597656    0.233605
    120          6           0       16.936454    3.423078    1.451530
    121          8           0       17.457081    3.002649    2.527228
    122          8           0       16.647278    4.675566    1.125272
    123          6           0       17.226445    5.666482    2.012020
    124          1           0        9.793996    1.747459    0.683261
    125          1           0       10.436123   -4.455463   -0.311402
    126          1           0       16.633092   -3.730092   -1.250210
    127          1           0       14.154586    3.921597    1.308171
    128          1           0       11.359337    3.776148    0.174773
    129          1           0       12.079762    4.227815    2.806439
    130          1           0       11.385933    2.585260    2.735901
    131          1           0       10.458138    3.770039    2.077217
    132          1           0       13.395970    4.144784   -1.605004
    133          1           0       14.877711    4.611685   -0.859248
    134          1           0       13.174174    6.173824    0.626572
    135          1           0       12.343771    6.134717   -0.975139
    136          1           0        7.808652    1.120359    0.955291
    137          1           0        7.072550   -0.179868    1.628605
    138          1           0        6.896016    0.059255   -0.096703
    139          1           0        6.196743   -2.341741    1.210615
    140          1           0        5.803616   -3.690970    0.338721
    141          1           0        6.194506   -2.262983   -0.632716
    142          1           0       12.269630   -5.818150   -1.500951
    143          1           0       15.069583   -5.678014   -0.957580
    144          1           0       12.479014   -5.805583    1.323817
    145          1           0       14.030017   -6.404110    0.866415
    146          1           0       12.550108   -7.205555    0.362167
    147          1           0       14.128146   -6.108546   -3.174988
    148          1           0       15.201218   -4.769737   -3.544902
    149          1           0       12.465638   -3.873851   -3.002103
    150          1           0       12.719912   -4.692743   -4.590503
    151          1           0       13.772204   -3.421115   -4.186118
    152          1           0       18.915657   -2.346262   -1.688401
    153          1           0       18.826784   -2.485756    0.056068
    154          1           0       19.602652   -1.070433   -0.653031
    155          1           0       16.812021    3.249108   -0.634994
    156          1           0       17.637622    6.492679    1.430642
    157          1           0       18.053953    5.331093    2.636740
    158          1           0       16.402760    6.035344    2.624107
 ---------------------------------------------------------------------

 SCF Done:  E(RPBE1PBE) =  -4067.38419534     A.U. after   17 cycles

 Excitation energies and oscillator strengths:

 Excited State   1:      Singlet-A      1.8203 eV  681.11 nm  f=0.3622  <S**2>=0.000
     309 -> 316       -0.15114
     311 -> 313        0.70023
     311 <- 313       -0.12596
 This state for optimization and/or second-order correction.
 Total Energy, E(TD-HF/TD-DFT) =  -4067.31729922
 Copying the excited state density for this state as the 1-particle RhoCI density.

 Excited State   2:      Singlet-A      1.8388 eV  674.25 nm  f=0.0000  <S**2>=0.000
     312 -> 313        0.70710

 Excited State   3:      Singlet-A      1.9381 eV  639.71 nm  f=0.0000  <S**2>=0.000
     311 -> 314        0.70710

 Excited State   4:      Singlet-A      2.2936 eV  540.58 nm  f=0.0000  <S**2>=0.000
     310 -> 313        0.70710

 Excited State   5:      Singlet-A      2.4652 eV  502.95 nm  f=0.0000  <S**2>=0.000
     309 -> 314        0.70710

 The electronic state is 1-A.
 Alpha  occ. eigenvalues --  -46.92761 -46.92400 -19.27344 -19.25466 -19.20112
 Alpha  occ. eigenvalues --  -19.19639 -19.19417 -19.19096 -19.18911 -19.17857
 Alpha  occ. eigenvalues --  -14.42339 -14.41741 -14.41377 -14.41156 -14.39477
 Alpha  occ. eigenvalues --  -14.39287 -14.39236 -14.37871 -10.36323 -10.36123
 Alpha  occ. eigenvalues --  -10.33124 -10.32653 -10.32208 -10.31290 -10.29598
 Alpha  occ. eigenvalues --  -10.29281 -10.29187 -10.28866 -10.28694 -10.28645
 Alpha  occ. eigenvalues --  -10.28508 -10.28448 -10.28389 -10.28378 -10.28172
 Alpha  occ. eigenvalues --  -10.28063 -10.28028 -10.27975 -10.27719 -10.27057
 Alpha  occ. eigenvalues --  -10.26925 -10.26786 -10.26768 -10.26472 -10.26351
 Alpha  occ. eigenvalues --  -10.26222 -10.26143 -10.26142 -10.26090 -10.26087
 Alpha  occ. eigenvalues --  -10.26075 -10.25992 -10.25850 -10.25823 -10.25804
 Alpha  occ. eigenvalues --  -10.25668 -10.25615 -10.25585 -10.25554 -10.25529
 Alpha  occ. eigenvalues --  -10.25314 -10.25217 -10.25193 -10.25103 -10.24978
 Alpha  occ. eigenvalues --  -10.24687 -10.24659 -10.24649 -10.24518 -10.24216
 Alpha  occ. eigenvalues --  -10.24207 -10.24109 -10.23883 -10.23737 -10.23652
 Alpha  occ. eigenvalues --  -10.23548 -10.23536 -10.23256 -10.23243 -10.23193
 Alpha  occ. eigenvalues --  -10.23137 -10.23135 -10.22927 -10.22854 -10.22533
 Alpha  occ. eigenvalues --  -10.22288  -3.14734  -3.14637  -1.87583  -1.87447
 Alpha  occ. eigenvalues --   -1.87077  -1.87008  -1.86970  -1.86883  -1.12968
 Alpha  occ. eigenvalues --   -1.11311  -1.04966  -1.03743  -1.02833  -1.02341
 Alpha  occ. eigenvalues --   -1.01802  -1.00791  -0.99892  -0.99738  -0.98936
 Alpha  occ. eigenvalues --   -0.98676  -0.98417  -0.98096  -0.97238  -0.97214
 Alpha  occ. eigenvalues --   -0.88051  -0.86294  -0.83831  -0.83830  -0.83558
 Alpha  occ. eigenvalues --   -0.83197  -0.82593  -0.82446  -0.82140  -0.81875
 Alpha  occ. eigenvalues --   -0.81441  -0.81232  -0.80613  -0.80219  -0.79103
 Alpha  occ. eigenvalues --   -0.79066  -0.78385  -0.78085  -0.77487  -0.77165
 Alpha  occ. eigenvalues --   -0.76438  -0.76047  -0.75639  -0.75549  -0.75169
 Alpha  occ. eigenvalues --   -0.74843  -0.72965  -0.72927  -0.71946  -0.71823
 Alpha  occ. eigenvalues --   -0.71678  -0.71674  -0.70630  -0.70511  -0.69900
 Alpha  occ. eigenvalues --   -0.69578  -0.67841  -0.67270  -0.66146  -0.65439
 Alpha  occ. eigenvalues --   -0.64174  -0.63719  -0.63571  -0.63112  -0.62637
 Alpha  occ. eigenvalues --   -0.62634  -0.62249  -0.61481  -0.60170  -0.59873
 Alpha  occ. eigenvalues --   -0.59799  -0.59660  -0.59577  -0.59283  -0.59060
 Alpha  occ. eigenvalues --   -0.59048  -0.57359  -0.56663  -0.55476  -0.55400
 Alpha  occ. eigenvalues --   -0.54423  -0.54277  -0.54050  -0.53871  -0.53393
 Alpha  occ. eigenvalues --   -0.53156  -0.52975  -0.52433  -0.52144  -0.51878
 Alpha  occ. eigenvalues --   -0.50785  -0.50544  -0.50478  -0.50327  -0.50221
 Alpha  occ. eigenvalues --   -0.50013  -0.49930  -0.49501  -0.49284  -0.48929
 Alpha  occ. eigenvalues --   -0.48799  -0.48321  -0.48031  -0.47922  -0.47507
 Alpha  occ. eigenvalues --   -0.47384  -0.47289  -0.47119  -0.47088  -0.47058
 Alpha  occ. eigenvalues --   -0.46528  -0.46305  -0.46147  -0.46086  -0.45837
 Alpha  occ. eigenvalues --   -0.45608  -0.45606  -0.45225  -0.44961  -0.44849
 Alpha  occ. eigenvalues --   -0.44685  -0.44625  -0.44480  -0.44417  -0.44114
 Alpha  occ. eigenvalues --   -0.44102  -0.43929  -0.43689  -0.43515  -0.43514
 Alpha  occ. eigenvalues --   -0.43251  -0.43065  -0.43051  -0.42909  -0.42878
 Alpha  occ. eigenvalues --   -0.42710  -0.42584  -0.42352  -0.42016  -0.42004
 Alpha  occ. eigenvalues --   -0.41644  -0.41508  -0.41337  -0.41179  -0.41125
 Alpha  occ. eigenvalues --   -0.41017  -0.40961  -0.40799  -0.40738  -0.40652
 Alpha  occ. eigenvalues --   -0.40199  -0.40167  -0.40000  -0.39992  -0.39717
 Alpha  occ. eigenvalues --   -0.39607  -0.39581  -0.39322  -0.39199  -0.39048
 Alpha  occ. eigenvalues --   -0.38862  -0.38643  -0.38563  -0.38527  -0.38214
 Alpha  occ. eigenvalues --   -0.38168  -0.38033  -0.37952  -0.37708  -0.37589
 Alpha  occ. eigenvalues --   -0.37560  -0.37472  -0.37281  -0.37104  -0.37032
 Alpha  occ. eigenvalues --   -0.36929  -0.36462  -0.36461  -0.36245  -0.36215
 Alpha  occ. eigenvalues --   -0.36151  -0.35768  -0.35685  -0.35583  -0.35328
 Alpha  occ. eigenvalues --   -0.34764  -0.34529  -0.34438  -0.34297  -0.34188
 Alpha  occ. eigenvalues --   -0.33627  -0.33617  -0.33186  -0.32839  -0.32833
 Alpha  occ. eigenvalues --   -0.32333  -0.32318  -0.31983  -0.31629  -0.31568
 Alpha  occ. eigenvalues --   -0.31350  -0.30770  -0.29906  -0.29283  -0.29203
 Alpha  occ. eigenvalues --   -0.29169  -0.28742  -0.28245  -0.27366  -0.27286
 Alpha  occ. eigenvalues --   -0.26351  -0.26347  -0.25814  -0.25597  -0.25569
 Alpha  occ. eigenvalues --   -0.25248  -0.24777  -0.24411  -0.21309  -0.20988
 Alpha  occ. eigenvalues --   -0.19376  -0.19312
 Alpha virt. eigenvalues --   -0.12068  -0.11750  -0.04901  -0.04495  -0.04104
 Alpha virt. eigenvalues --   -0.03999  -0.02304  -0.02049  -0.01085  -0.01027
 Alpha virt. eigenvalues --   -0.00552  -0.00260   0.00538   0.00857   0.01452

 Mulliken charges:
               1
     1  Mg  11.998045
     2  C    5.969068
     3  C    5.978742
     4  C    6.033370
     5  C    6.012534
     6  N    6.972204
     7  C    6.030636
     8  C    5.987434
     9  C    6.001487
    10  C    5.987329
    11  C    6.003494
    12  C    5.998094
    13  C    6.001302
    14  H    1.003391
    15  N    7.003520
    16  C    5.970667
    17  C    5.980727
    18  C    5.986777
    19  C    5.972112
    20  C    5.999503
    21  C    5.989175
    22  O    7.965064
    23  C    6.004452
    24  N    7.024729
    25  C    5.966375
    26  C    6.004810
    27  C    5.995465
    28  C    6.017373
    29  C    5.999931
    30  C    5.995596
    31  C    6.000935
    32  N    6.998695
    33  C    6.026165
    34  C    6.032878
    35  C    5.996343
    36  C    6.037817
    37  C    5.998200
    38  C    6.014038
    39  O    8.023831
    40  C    6.006592
    41  C    6.006240
    42  O    8.003202
    43  O    8.000425
    44  C    5.997129
    45  H    0.979774
    46  H    1.001962
    47  H    1.016430
    48  H    0.998522
    49  H    0.999456
    50  H    0.999995
    51  H    0.998374
    52  H    0.984921
    53  H    1.010165
    54  H    0.993682
    55  H    0.994704
    56  H    1.001666
    57  H    0.982516
    58  H    0.987914
    59  H    0.985825
    60  H    0.992126
    61  H    0.986113
    62  H    0.995517
    63  H    1.005643
    64  H    1.001945
    65  H    1.004755
    66  H    1.003286
    67  H    0.993308
    68  H    0.998354
    69  H    1.006291
    70  H    1.007385
    71  H    1.005298
    72  H    1.002472
    73  H    1.012427
    74  H    1.020099
    75  H    1.018084
    76  H    1.005148
    77  H    1.003417
    78  H    1.005655
    79  H    1.000874
    80  Mg  11.999719
    81  C    6.000824
    82  C    5.999917
    83  C    5.999287
    84  C    6.000078
    85  N    7.000595
    86  C    5.998754
    87  C    6.000333
    88  C    5.999730
    89  C    6.001013
    90  C    5.999916
    91  C    6.000089
    92  C    5.999946
    93  H    0.999979
    94  N    6.999846
    95  C    6.001085
    96  C    6.000592
    97  C    6.000650
    98  C    6.000903
    99  C    5.999762
   100  C    6.000376
   101  O    8.001206
   102  C    5.999707
   103  N    6.999812
   104  C    6.000928
   105  C    5.999824
   106  C    6.000414
   107  C    5.998965
   108  C    5.999923
   109  C    6.000314
   110  C    6.000113
   111  N    7.000066
   112  C    5.999008
   113  C    5.998984
   114  C    6.000063
   115  C    5.998846
   116  C    6.000072
   117  C    5.999517
   118  O    7.999154
   119  C    5.999808
   120  C    5.999846
   121  O    7.999988
   122  O    7.999900
   123  C    6.000070
   124  H    1.000343
   125  H    1.000131
   126  H    0.999516
   127  H    1.000096
   128  H    0.999979
   129  H    1.000488
   130  H    1.000112
   131  H    1.000002
   132  H    0.999709
   133  H    1.000207
   134  H    0.999987
   135  H    0.999737
   136  H    1.000554
   137  H    1.000899
   138  H    1.000472
   139  H    1.000549
   140  H    1.000687
   141  H    1.000062
   142  H    0.999873
   143  H    0.999923
   144  H    0.999909
   145  H    1.000336
   146  H    1.000032
   147  H    0.999614
   148  H    1.000004
   149  H    0.999542
   150  H    0.999693
   151  H    1.000072
   152  H    0.999275
   153  H    0.999378
   154  H    0.999486
   155  H    0.999764
   156  H    0.999821
   157  H    0.999992
   158  H    0.999831
 Sum of Mulliken charges = 624.00000

 Dipole moment (field-independent basis, Debye):
    X=             -1.8759    Y=              3.0739    Z=             -9.5898  Tot=             10.2437
 Quadrupole moment (field-independent basis, Debye-Ang):
   XX=             32.4330   YY=              0.3876   ZZ=             -4.2796
   XY=            -40.8173   XZ=            132.4856   YZ=              6.0052

 Normal termination of Gaussian 16 at Thu Oct 14 01:00:32 2021.
