 Gaussian 16, Revision A.03,
 Gaussian 16:  ES64L-G16RevA.03 25-Dec-2016

 --------------------------------------------------------
 #p PBE1PBE/Def2SVP td=(nstates=5) density=(transition=1)
 --------------------------------------------------------

 --------------------------------
 TDDFT excited states in gaussian
 --------------------------------
 Symbolic Z-matrix:
 Charge =  0 Multiplicity = 1

                         Standard orientation:
 ---------------------------------------------------------------------
 Center     Atomic      Atomic             Coordinates (Angstroms)
 Number     Number       Type             X           Y           Z
 ---------------------------------------------------------------------
      1         12           0       13.442813    0.600192   -0.353789
      2          6           0       11.832203   -1.891622    1.563678
      3          6           0       15.108602   -1.714106   -2.010175
      4          6           0       15.527317    3.074821   -1.451006
      5          6           0       12.328181    2.978108    2.249729
      6          7           0       13.475828   -1.568157   -0.159990
      7          6           0       12.592397   -2.354709    0.488215
      8          6           0       12.719496   -3.797549   -0.038692
      9          6           0       13.710554   -3.734374   -1.156349
     10          6           0       14.185579   -2.250452   -1.111819
     11          6           0       14.799189   -4.881806   -1.081836
     12          6           0       11.412169   -4.575918   -0.406655
     13          6           0       11.344007   -5.604708   -1.615355
     14          1           0       10.640802   -6.951505   -1.391620
     15          7           0       14.932915    0.674073   -1.759203
     16          6           0       15.492210   -0.436174   -2.350475
     17          6           0       16.463220    0.020810   -3.303575
     18          6           0       16.666314    1.448644   -3.160311
     19          6           0       15.733850    1.779152   -2.060132
     20          6           0       17.175630   -0.990210   -4.107351
     21          6           0       17.551118    2.431207   -3.966617
     22          8           0       17.609008    3.575244   -3.656248
     23          6           0       18.137162    2.018402   -5.277456
     24          7           0       13.885423    2.719392    0.374078
     25          6           0       14.696423    3.484143   -0.390937
     26          6           0       14.767890    4.958294    0.121169
     27          6           0       13.723285    4.960648    1.278882
     28          6           0       13.272788    3.480447    1.348608
     29          6           0       16.124899    5.424834    0.576913
     30          6           0       12.485423    5.916576    1.156844
     31          6           0       11.353375    5.532027    0.265401
     32          7           0       12.318005    0.673886    1.521425
     33          6           0       11.937474    1.677460    2.365531
     34          6           0       11.030498    1.150129    3.355671
     35          6           0       10.935738   -0.245986    3.115708
     36          6           0       11.779308   -0.488233    2.012564
     37          6           0       10.452126    1.856710    4.530576
     38          6           0       10.377167   -1.490742    3.560661
     39          8           0        9.593576   -1.790409    4.454223
     40          6           0       10.890959   -2.609559    2.547435
     41          6           0       11.469137   -3.826343    3.250047
     42          8           0       12.467140   -3.801814    3.923047
     43          8           0       10.695978   -4.936420    2.949348
     44          6           0       11.155443   -6.157320    3.612412
     45          1           0       15.549519   -2.396915   -2.739965
     46          1           0       16.191591    3.821410   -1.890623
     47          1           0       11.911629    3.696671    2.958543
     48          1           0       13.097785   -4.261303    0.872324
     49          1           0       13.174616   -3.954228   -2.080087
     50          1           0       14.528700   -5.586074   -0.295276
     51          1           0       15.776249   -4.403732   -1.012381
     52          1           0       14.763942   -5.518152   -1.966294
     53          1           0       10.652243   -3.822469   -0.615298
     54          1           0       11.012032   -5.123707    0.446929
     55          1           0       12.387253   -5.770596   -1.884837
     56          1           0       10.869512   -5.117937   -2.467501
     57          1           0       18.192547   -0.613300   -4.214187
     58          1           0       16.717291   -0.991396   -5.095594
     59          1           0       17.238374   -2.034010   -3.799259
     60          1           0       19.113166    1.635529   -4.982131
     61          1           0       18.105847    2.865481   -5.963393
     62          1           0       17.651214    1.166654   -5.753868
     63          1           0       14.356662    5.660444   -0.604352
     64          1           0       14.057212    5.107375    2.305567
     65          1           0       16.905481    4.716848    0.295422
     66          1           0       16.189073    5.509752    1.662027
     67          1           0       16.283421    6.383805    0.084236
     68          1           0       12.815558    6.902346    0.828995
     69          1           0       12.150160    6.150141    2.167615
     70          1           0       11.703753    4.830994   -0.492399
     71          1           0       10.843319    6.273582   -0.349854
     72          1           0       10.588135    5.143572    0.938171
     73          1           0       11.184864    2.262277    5.227628
     74          1           0       10.052384    1.068935    5.169592
     75          1           0        9.714937    2.602798    4.232631
     76          1           0       10.019596   -2.892247    1.956401
     77          1           0       11.454842   -6.571166    2.650001
     78          1           0       10.235753   -6.585578    4.010288
     79          1           0       11.950316   -5.980136    4.337222
     80         12           0      -13.800300    0.487978    0.008727
     81          6           0      -11.517214   -1.978533   -0.515619
     82          6           0      -16.379827   -1.785357   -0.113241
     83          6           0      -15.965713    3.067156    0.354557
     84          6           0      -11.180831    2.833410   -0.350566
     85          7           0      -13.941183   -1.626092   -0.506095
     86          6           0      -12.864675   -2.442009   -0.349704
     87          6           0      -13.227390   -3.879825   -0.192726
     88          6           0      -14.833281   -3.766954   -0.332004
     89          6           0      -15.097156   -2.297023   -0.317382
     90          6           0      -15.386764   -4.454271   -1.661396
     91          6           0      -12.781461   -4.368718    1.263630
     92          6           0      -12.562752   -5.870030    1.463225
     93          1           0      -13.033028   -6.962170    0.470464
     94          7           0      -15.874396    0.665012    0.211663
     95          6           0      -16.768279   -0.413177    0.106933
     96          6           0      -18.099985    0.127058    0.253235
     97          6           0      -17.993167    1.522889    0.419384
     98          6           0      -16.559323    1.775203    0.378790
     99          6           0      -19.339975   -0.796981    0.273061
    100          6           0      -19.195597    2.599879    0.523683
    101          8           0      -19.004823    3.788596    0.810081
    102          6           0      -20.663996    2.264074    0.321763
    103          7           0      -13.555852    2.687231    0.068035
    104          6           0      -14.639401    3.491810    0.182762
    105          6           0      -14.281932    4.951856   -0.090394
    106          6           0      -12.649547    4.913383    0.011200
    107          6           0      -12.390493    3.398625    0.015160
    108          6           0      -14.918484    5.598303   -1.404747
    109          6           0      -12.001573    5.468572    1.379214
    110          6           0      -10.860388    6.467404    1.322816
    111          7           0      -11.735699    0.516137   -0.306662
    112          6           0      -10.820881    1.492195   -0.441705
    113          6           0       -9.455627    0.892835   -0.570012
    114          6           0       -9.729875   -0.495149   -0.542554
    115          6           0      -11.139148   -0.632018   -0.508334
    116          6           0       -8.113395    1.528952   -0.655591
    117          6           0       -9.052725   -1.736097   -0.600538
    118          8           0       -7.833617   -1.986431   -0.695846
    119          6           0      -10.182198   -2.763083   -0.590348
    120          6           0      -10.118383   -3.538375   -1.808145
    121          8           0      -10.122546   -3.197354   -2.949551
    122          8           0      -10.165249   -4.873849   -1.419348
    123          6           0      -10.182424   -6.006598   -2.422325
    124          1           0      -17.216339   -2.458346    0.084246
    125          1           0      -16.676668    3.896299    0.369002
    126          1           0      -10.364465    3.487821   -0.661278
    127          1           0      -12.855331   -4.641120   -0.878080
    128          1           0      -15.338119   -4.235033    0.513043
    129          1           0      -16.352455   -4.951519   -1.573367
    130          1           0      -14.608388   -5.089066   -2.084518
    131          1           0      -15.542016   -3.647829   -2.378830
    132          1           0      -13.491713   -4.050396    2.026973
    133          1           0      -11.843418   -3.849087    1.460617
    134          1           0      -12.987370   -6.098142    2.441679
    135          1           0      -11.497101   -6.048011    1.602372
    136          1           0      -19.107714   -1.860695    0.223142
    137          1           0      -19.967711   -0.490753   -0.563108
    138          1           0      -19.890437   -0.571123    1.186632
    139          1           0      -20.922762    1.652190    1.185112
    140          1           0      -20.819809    1.528415   -0.467560
    141          1           0      -21.227451    3.159977    0.061837
    142          1           0      -14.635039    5.540967    0.756831
    143          1           0      -12.194451    5.455879   -0.817697
    144          1           0      -14.145267    5.966146   -2.079644
    145          1           0      -15.599369    6.404151   -1.133073
    146          1           0      -15.453350    4.844530   -1.983031
    147          1           0      -11.711914    4.658527    2.048400
    148          1           0      -12.817583    5.938772    1.927148
    149          1           0      -10.035547    6.024002    1.879520
    150          1           0      -11.131923    7.447146    1.714868
    151          1           0      -10.504582    6.559700    0.295710
    152          1           0       -8.111448    2.613366   -0.546629
    153          1           0       -7.645291    1.320903   -1.618071
    154          1           0       -7.485573    1.109059    0.130049
    155          1           0      -10.115767   -3.440266    0.261686
    156          1           0      -10.208809   -5.613183   -3.438739
    157          1           0      -11.094453   -6.591693   -2.296796
    158          1           0       -9.271900   -6.574558   -2.231547
 ---------------------------------------------------------------------

 SCF Done:  E(RPBE1PBE) =  -4067.36203449     A.U. after   16 cycles

 Excitation energies and oscillator strengths:

 Excited State   1:      Singlet-A      1.8610 eV  666.24 nm  f=0.4045  <S**2>=0.000
     310 -> 316        0.17896
     312 -> 313        0.69012
     312 <- 313       -0.10745
 This state for optimization and/or second-order correction.
 Total Energy, E(TD-HF/TD-DFT) =  -4067.29364547
 Copying the excited state density for this state as the 1-particle RhoCI density.

 Excited State   2:      Singlet-A      1.8925 eV  655.15 nm  f=0.3579  <S**2>=0.000
     309 -> 315        0.18608
     311 -> 314        0.68848
     311 <- 314       -0.10182

 Excited State   3:      Singlet-A      1.9452 eV  637.38 nm  f=0.0000  <S**2>=0.000
     312 -> 314        0.70709

 Excited State   4:      Singlet-A      1.9738 eV  628.15 nm  f=0.0000  <S**2>=0.000
     311 -> 313        0.70710

 Excited State   5:      Singlet-A      2.1920 eV  565.63 nm  f=0.1020  <S**2>=0.000
     310 -> 313        0.65382
     312 -> 316       -0.25414

 The electronic state is 1-A.
 Alpha  occ. eigenvalues --  -46.93322 -46.92756 -19.25381 -19.24307 -19.20188
 Alpha  occ. eigenvalues --  -19.19703 -19.19631 -19.19479 -19.18920 -19.18835
 Alpha  occ. eigenvalues --  -14.41981 -14.41682 -14.41179 -14.41124 -14.39210
 Alpha  occ. eigenvalues --  -14.39066 -14.38933 -14.38443 -10.36066 -10.35559
 Alpha  occ. eigenvalues --  -10.33479 -10.32711 -10.31901 -10.31494 -10.29379
 Alpha  occ. eigenvalues --  -10.29215 -10.29080 -10.28807 -10.28481 -10.28447
 Alpha  occ. eigenvalues --  -10.28425 -10.28336 -10.28321 -10.28128 -10.27976
 Alpha  occ. eigenvalues --  -10.27699 -10.27586 -10.27475 -10.27065 -10.26959
 Alpha  occ. eigenvalues --  -10.26721 -10.26485 -10.26364 -10.26304 -10.26288
 Alpha  occ. eigenvalues --  -10.26195 -10.26113 -10.26103 -10.26027 -10.25998
 Alpha  occ. eigenvalues --  -10.25980 -10.25814 -10.25747 -10.25657 -10.25522
 Alpha  occ. eigenvalues --  -10.25518 -10.25419 -10.25377 -10.25326 -10.25225
 Alpha  occ. eigenvalues --  -10.25173 -10.25063 -10.25052 -10.25016 -10.24884
 Alpha  occ. eigenvalues --  -10.24338 -10.24328 -10.24267 -10.23995 -10.23952
 Alpha  occ. eigenvalues --  -10.23937 -10.23910 -10.23765 -10.23740 -10.23729
 Alpha  occ. eigenvalues --  -10.23712 -10.23681 -10.23572 -10.23543 -10.23512
 Alpha  occ. eigenvalues --  -10.22782 -10.22756 -10.22607 -10.22507 -10.22351
 Alpha  occ. eigenvalues --  -10.22304  -3.15215  -3.14748  -1.88025  -1.87609
 Alpha  occ. eigenvalues --   -1.87597  -1.87427  -1.87104  -1.86981  -1.11008
 Alpha  occ. eigenvalues --   -1.10296  -1.07525  -1.04305  -1.03923  -1.03326
 Alpha  occ. eigenvalues --   -1.02938  -1.01969  -1.00175  -0.99081  -0.98756
 Alpha  occ. eigenvalues --   -0.98275  -0.97714  -0.97261  -0.97058  -0.96409
 Alpha  occ. eigenvalues --   -0.87790  -0.85912  -0.83480  -0.83084  -0.82928
 Alpha  occ. eigenvalues --   -0.82484  -0.82482  -0.81819  -0.81625  -0.81354
 Alpha  occ. eigenvalues --   -0.81315  -0.81168  -0.80505  -0.80382  -0.78627
 Alpha  occ. eigenvalues --   -0.78202  -0.77883  -0.77719  -0.76603  -0.76601
 Alpha  occ. eigenvalues --   -0.76167  -0.75799  -0.75430  -0.75091  -0.74693
 Alpha  occ. eigenvalues --   -0.74648  -0.72733  -0.72517  -0.71785  -0.71374
 Alpha  occ. eigenvalues --   -0.71360  -0.71327  -0.70457  -0.70129  -0.69534
 Alpha  occ. eigenvalues --   -0.68957  -0.67005  -0.66732  -0.66426  -0.65805
 Alpha  occ. eigenvalues --   -0.64030  -0.63699  -0.63573  -0.62983  -0.62631
 Alpha  occ. eigenvalues --   -0.62596  -0.61260  -0.60417  -0.59694  -0.59642
 Alpha  occ. eigenvalues --   -0.59417  -0.59049  -0.58785  -0.58710  -0.58572
 Alpha  occ. eigenvalues --   -0.58438  -0.56303  -0.56199  -0.55051  -0.54466
 Alpha  occ. eigenvalues --   -0.54434  -0.54022  -0.53774  -0.53358  -0.53316
 Alpha  occ. eigenvalues --   -0.52867  -0.52867  -0.52482  -0.52291  -0.51876
 Alpha  occ. eigenvalues --   -0.50640  -0.50541  -0.50353  -0.50130  -0.49844
 Alpha  occ. eigenvalues --   -0.49779  -0.49539  -0.49101  -0.48635  -0.48563
 Alpha  occ. eigenvalues --   -0.48311  -0.48096  -0.47686  -0.47671  -0.47478
 Alpha  occ. eigenvalues --   -0.47347  -0.47320  -0.46889  -0.46699  -0.46612
 Alpha  occ. eigenvalues --   -0.46306  -0.46214  -0.46129  -0.45963  -0.45657
 Alpha  occ. eigenvalues --   -0.45427  -0.45356  -0.45306  -0.45101  -0.45097
 Alpha  occ. eigenvalues --   -0.44783  -0.44581  -0.44438  -0.44176  -0.44068
 Alpha  occ. eigenvalues --   -0.44029  -0.43804  -0.43696  -0.43563  -0.43521
 Alpha  occ. eigenvalues --   -0.43318  -0.43163  -0.42919  -0.42862  -0.42768
 Alpha  occ. eigenvalues --   -0.42581  -0.42286  -0.42254  -0.41927  -0.41839
 Alpha  occ. eigenvalues --   -0.41779  -0.41595  -0.41402  -0.41267  -0.41144
 Alpha  occ. eigenvalues --   -0.40930  -0.40847  -0.40702  -0.40429  -0.40334
 Alpha  occ. eigenvalues --   -0.40218  -0.40113  -0.39867  -0.39411  -0.39292
 Alpha  occ. eigenvalues --   -0.39256  -0.39130  -0.39005  -0.38983  -0.38795
 Alpha  occ. eigenvalues --   -0.38756  -0.38727  -0.38513  -0.38439  -0.38322
 Alpha  occ. eigenvalues --   -0.38052  -0.38037  -0.37747  -0.37634  -0.37492
 Alpha  occ. eigenvalues --   -0.37413  -0.37135  -0.37114  -0.36837  -0.36655
 Alpha  occ. eigenvalues --   -0.36626  -0.36450  -0.36348  -0.36139  -0.35962
 Alpha  occ. eigenvalues --   -0.35880  -0.35688  -0.35648  -0.35422  -0.35066
 Alpha  occ. eigenvalues --   -0.34938  -0.34664  -0.34316  -0.34016  -0.33836
 Alpha  occ. eigenvalues --   -0.33384  -0.32987  -0.32777  -0.32770  -0.32535
 Alpha  occ. eigenvalues --   -0.32314  -0.31904  -0.31812  -0.31570  -0.31013
 Alpha  occ. eigenvalues --   -0.30807  -0.30711  -0.29467  -0.29400  -0.29319
 Alpha  occ. eigenvalues --   -0.28742  -0.28652  -0.28607  -0.26788  -0.26473
 Alpha  occ. eigenvalues --   -0.26385  -0.26085  -0.25976  -0.25660  -0.25522
 Alpha  occ. eigenvalues --   -0.25453  -0.25325  -0.24952  -0.20770  -0.20693
 Alpha  occ. eigenvalues --   -0.18754  -0.18619
 Alpha virt. eigenvalues --   -0.11017  -0.10978  -0.05167  -0.05023  -0.04177
 Alpha virt. eigenvalues --   -0.03709  -0.02104  -0.01882  -0.01581  -0.00067
 Alpha virt. eigenvalues --    0.00401   0.00798   0.01039   0.01373   0.01627

 Mulliken charges:
               1
     1  Mg  11.999251
     2  C    5.975899
     3  C    6.006966
     4  C    6.016480
     5  C    5.999224
     6  N    6.985657
     7  C    6.033773
     8  C    5.994184
     9  C    6.011152
    10  C    5.969330
    11  C    5.999835
    12  C    5.998342
    13  C    6.002593
    14  H    0.997600
    15  N    7.006575
    16  C    5.964809
    17  C    5.980074
    18  C    5.983259
    19  C    5.972968
    20  C    6.005865
    21  C    5.986770
    22  O    7.975236
    23  C    6.004156
    24  N    7.001590
    25  C    5.973055
    26  C    6.011021
    27  C    5.996835
    28  C    6.025163
    29  C    6.000434
    30  C    5.995113
    31  C    5.993131
    32  N    6.998655
    33  C    6.028844
    34  C    6.036985
    35  C    5.998708
    36  C    6.031626
    37  C    5.997811
    38  C    6.014857
    39  O    8.027741
    40  C    6.002709
    41  C    6.003737
    42  O    8.003551
    43  O    8.001490
    44  C    5.998932
    45  H    0.990854
    46  H    0.995210
    47  H    1.011177
    48  H    0.997472
    49  H    0.995544
    50  H    0.988984
    51  H    1.003278
    52  H    0.997591
    53  H    0.997865
    54  H    0.995861
    55  H    1.006437
    56  H    1.001859
    57  H    0.983349
    58  H    0.980409
    59  H    0.981602
    60  H    0.991641
    61  H    0.987029
    62  H    0.996448
    63  H    0.998890
    64  H    0.998923
    65  H    1.007114
    66  H    0.991812
    67  H    0.999060
    68  H    1.010758
    69  H    0.998666
    70  H    1.009215
    71  H    1.007354
    72  H    0.993807
    73  H    1.021612
    74  H    1.012714
    75  H    1.019648
    76  H    1.006133
    77  H    1.005790
    78  H    1.001853
    79  H    1.002053
    80  Mg  12.000080
    81  C    6.001026
    82  C    5.999113
    83  C    5.999222
    84  C    6.000395
    85  N    6.999999
    86  C    5.998006
    87  C    6.000978
    88  C    5.999182
    89  C    6.002114
    90  C    5.999844
    91  C    6.000232
    92  C    6.000003
    93  H    0.999877
    94  N    6.999712
    95  C    6.002673
    96  C    6.000645
    97  C    6.001285
    98  C    6.001384
    99  C    5.999937
   100  C    6.000747
   101  O    8.001597
   102  C    5.999886
   103  N    6.999908
   104  C    6.001616
   105  C    5.999415
   106  C    6.000544
   107  C    5.998469
   108  C    5.999879
   109  C    6.000466
   110  C    5.999974
   111  N    7.000149
   112  C    5.998046
   113  C    5.998015
   114  C    5.999892
   115  C    5.998522
   116  C    6.000330
   117  C    5.998901
   118  O    7.997962
   119  C    6.000126
   120  C    5.999754
   121  O    7.999913
   122  O    7.999860
   123  C    6.000040
   124  H    1.000641
   125  H    1.000412
   126  H    0.999440
   127  H    0.999864
   128  H    1.000173
   129  H    1.000150
   130  H    1.000904
   131  H    1.000102
   132  H    0.999353
   133  H    1.000292
   134  H    0.999751
   135  H    1.000036
   136  H    1.000995
   137  H    1.001003
   138  H    1.000941
   139  H    1.000433
   140  H    1.000441
   141  H    1.000867
   142  H    0.999979
   143  H    0.999877
   144  H    1.000655
   145  H    1.000085
   146  H    0.999854
   147  H    0.999910
   148  H    0.999339
   149  H    0.999867
   150  H    0.999727
   151  H    1.000074
   152  H    0.998835
   153  H    0.998876
   154  H    0.998595
   155  H    0.999342
   156  H    0.999957
   157  H    0.999724
   158  H    0.999784
 Sum of Mulliken charges = 624.00000

 Dipole moment (field-independent basis, Debye):
    X=             -7.2611    Y=              0.6603    Z=              7.8398  Tot=             10.7062
 Quadrupole moment (field-independent basis, Debye-Ang):
   XX=           -164.3798   YY=              2.7631   ZZ=              0.4711
   XY=              3.5858   XZ=            107.2815   YZ=              4.4772

 Normal termination of Gaussian 16 at Thu Oct 14 09:06:09 2021.
