 Gaussian 16, Revision A.03,
 Gaussian 16:  ES64L-G16RevA.03 25-Dec-2016

 --------------------------------------------------------
 #p PBE1PBE/Def2SVP td=(nstates=5) density=(transition=1)
 --------------------------------------------------------

 --------------------------------
 TDDFT excited states in gaussian
 --------------------------------
 Symbolic Z-matrix:
 Charge =  0 Multiplicity = 1

                         Standard orientation:
 ---------------------------------------------------------------------
 Center     Atomic      Atomic             Coordinates (Angstroms)
 Number     Number       Type             X           Y           Z
 ---------------------------------------------------------------------
      1         12           0      -20.771927    0.398279   -0.130784
      2          6           0      -18.253667   -1.872825    0.447418
      3          6           0      -23.180930   -1.975137    0.408670
      4          6           0      -23.314866    2.774084   -0.531314
      5          6           0      -18.518234    3.000052    0.148232
      6          7           0      -20.638060   -1.643681    0.585990
      7          6           0      -19.516319   -2.477150    0.596729
      8          6           0      -19.881131   -3.901187    1.023703
      9          6           0      -21.414191   -3.846780    0.802833
     10          6           0      -21.823228   -2.365854    0.666184
     11          6           0      -21.896246   -4.775662   -0.332899
     12          6           0      -19.467789   -4.198430    2.478748
     13          6           0      -18.834279   -5.604388    2.761042
     14          1           0      -19.087520   -6.177355    4.100632
     15          7           0      -22.893680    0.370765   -0.120372
     16          6           0      -23.695345   -0.708742    0.027342
     17          6           0      -25.063808   -0.437144   -0.296624
     18          6           0      -25.119792    0.904728   -0.707791
     19          6           0      -23.707355    1.425597   -0.487229
     20          6           0      -26.168676   -1.494766   -0.338212
     21          6           0      -26.385208    1.692054   -1.206879
     22          8           0      -27.500921    1.112581   -1.173736
     23          6           0      -26.326845    3.152209   -1.831514
     24          7           0      -20.935814    2.598142    0.115248
     25          6           0      -22.036637    3.302337   -0.243928
     26          6           0      -21.773301    4.781044   -0.368927
     27          6           0      -20.255397    4.889728   -0.108286
     28          6           0      -19.853531    3.418445    0.022922
     29          6           0      -22.267176    5.422118   -1.708163
     30          6           0      -19.891066    5.852664    1.120000
     31          6           0      -19.318401    7.216175    0.715991
     32          7           0      -18.784678    0.574686    0.166551
     33          6           0      -17.939036    1.703836    0.233420
     34          6           0      -16.538498    1.261967    0.205392
     35          6           0      -16.644330   -0.121902    0.212411
     36          6           0      -18.006226   -0.449906    0.315067
     37          6           0      -15.281893    2.056688    0.204117
     38          6           0      -15.853684   -1.360947    0.224094
     39          8           0      -14.651944   -1.577514   -0.002993
     40          6           0      -16.875707   -2.562639    0.333175
     41          6           0      -16.786557   -3.479000   -0.879772
     42          8           0      -16.729852   -3.152198   -2.069465
     43          8           0      -16.714120   -4.724983   -0.331351
     44          6           0      -16.442309   -5.821510   -1.245619
     45          1           0      -23.958337   -2.724181    0.572507
     46          1           0      -24.001426    3.596538   -0.742903
     47          1           0      -17.752883    3.774056    0.233489
     48          1           0      -19.367351   -4.617630    0.381874
     49          1           0      -21.813813   -4.240758    1.737226
     50          1           0      -21.270950   -5.612292   -0.644522
     51          1           0      -21.955365   -4.143878   -1.219030
     52          1           0      -22.870268   -5.215535   -0.119952
     53          1           0      -20.272012   -4.020537    3.192149
     54          1           0      -18.796176   -3.383371    2.749481
     55          1           0      -17.755899   -5.541285    2.615645
     56          1           0      -19.270271   -6.323704    2.066384
     57          1           0      -26.576456   -1.450549   -1.347840
     58          1           0      -26.822491   -1.377203    0.526053
     59          1           0      -25.635916   -2.443159   -0.269377
     60          1           0      -26.348529    3.840958   -0.987784
     61          1           0      -27.234070    3.263197   -2.424962
     62          1           0      -25.505382    3.143613   -2.548423
     63          1           0      -22.320041    5.286558    0.427187
     64          1           0      -19.635601    5.166161   -0.960925
     65          1           0      -21.511522    6.076229   -2.142295
     66          1           0      -23.177693    6.007663   -1.582204
     67          1           0      -22.567274    4.628830   -2.391561
     68          1           0      -19.117726    5.432909    1.763182
     69          1           0      -20.754480    5.963161    1.775963
     70          1           0      -19.712791    7.989704    1.375174
     71          1           0      -19.602148    7.444241   -0.311194
     72          1           0      -18.230444    7.267876    0.753931
     73          1           0      -15.561144    3.106753    0.117388
     74          1           0      -14.564219    1.616726   -0.488611
     75          1           0      -14.882124    1.981731    1.215956
     76          1           0      -16.745168   -3.137441    1.250438
     77          1           0      -17.023094   -5.782601   -2.168057
     78          1           0      -16.553352   -6.832757   -0.854324
     79          1           0      -15.391162   -5.805400   -1.534735
     80         12           0       20.467679    0.583233   -0.398020
     81          6           0       19.537314   -2.603936    0.339665
     82          6           0       17.260619    1.669805    0.623066
     83          6           0       21.713136    3.667083   -0.093230
     84          6           0       23.861454   -0.546981   -0.895541
     85          7           0       18.667428   -0.384868    0.345919
     86          6           0       18.458260   -1.635693    0.591697
     87          6           0       16.949340   -1.970952    0.867190
     88          6           0       16.193770   -0.603233    0.660718
     89          6           0       17.430507    0.344798    0.490487
     90          6           0       15.081479   -0.592386   -0.388819
     91          6           0       16.730651   -2.692254    2.326234
     92          6           0       17.778008   -2.483114    3.407929
     93          1           0       17.440445   -2.738792    4.876789
     94          7           0       19.594076    2.408783    0.195697
     95          6           0       18.281095    2.672039    0.504188
     96          6           0       18.138153    4.021764    0.840642
     97          6           0       19.432518    4.652820    0.686253
     98          6           0       20.348313    3.555291    0.277599
     99          6           0       16.767198    4.618447    1.101147
    100          6           0       19.701358    6.147527    0.938040
    101          8           0       18.738400    6.859531    1.301577
    102          6           0       20.967718    6.805891    0.795441
    103          7           0       22.590894    1.449602   -0.328911
    104          6           0       22.706916    2.746010   -0.384723
    105          6           0       24.155783    3.214112   -0.701645
    106          6           0       24.843837    1.867177   -1.013616
    107          6           0       23.720915    0.781334   -0.762147
    108          6           0       24.263835    4.159252   -1.843462
    109          6           0       26.171449    1.632610   -0.149969
    110          6           0       27.538482    1.662793   -0.949603
    111          7           0       21.533577   -1.181020   -0.429953
    112          6           0       22.868564   -1.527935   -0.672552
    113          6           0       22.992949   -3.017578   -0.610343
    114          6           0       21.724698   -3.431167   -0.178617
    115          6           0       20.875174   -2.292815   -0.046886
    116          6           0       24.152919   -3.852619   -0.857915
    117          6           0       21.046486   -4.583879    0.202886
    118          8           0       21.352195   -5.784546    0.247342
    119          6           0       19.582813   -4.128432    0.465027
    120          6           0       18.651244   -4.948015   -0.459281
    121          8           0       17.681884   -5.612923   -0.135577
    122          8           0       19.023943   -4.860919   -1.783218
    123          6           0       18.242198   -5.626427   -2.761543
    124          1           0       16.264784    1.909137    1.001446
    125          1           0       22.143697    4.667645   -0.167653
    126          1           0       24.848846   -0.886085   -1.215388
    127          1           0       16.616529   -2.579120    0.025655
    128          1           0       15.738689   -0.241787    1.583391
    129          1           0       15.362622    0.062188   -1.213569
    130          1           0       14.141333   -0.210201    0.010557
    131          1           0       14.792354   -1.567078   -0.781965
    132          1           0       16.601590   -3.732968    2.028047
    133          1           0       15.846462   -2.369790    2.876498
    134          1           0       18.055356   -1.437398    3.277631
    135          1           0       18.636214   -3.075231    3.089646
    136          1           0       16.423202    5.467229    0.509529
    137          1           0       16.681686    4.838907    2.165447
    138          1           0       16.012025    3.849474    0.939522
    139          1           0       21.429968    6.812454   -0.191508
    140          1           0       21.736067    6.274019    1.355659
    141          1           0       20.990695    7.807987    1.222531
    142          1           0       24.713254    3.746455    0.068917
    143          1           0       25.061676    1.730224   -2.072877
    144          1           0       24.444047    5.198036   -1.567223
    145          1           0       23.300200    4.271691   -2.341605
    146          1           0       25.044738    3.832065   -2.529736
    147          1           0       26.132171    0.621129    0.256610
    148          1           0       26.348155    2.384652    0.617806
    149          1           0       28.262232    2.274446   -0.412393
    150          1           0       27.368198    2.203906   -1.880444
    151          1           0       27.886101    0.629553   -0.945219
    152          1           0       24.723371   -3.304217   -1.607906
    153          1           0       23.851777   -4.818515   -1.265033
    154          1           0       24.615496   -4.025624    0.113330
    155          1           0       19.175878   -4.508860    1.401643
    156          1           0       18.871705   -5.812493   -3.631923
    157          1           0       17.352207   -5.162171   -3.186064
    158          1           0       17.824455   -6.551934   -2.364184
 ---------------------------------------------------------------------

 SCF Done:  E(RPBE1PBE) =  -4067.36153807     A.U. after   19 cycles

 Excitation energies and oscillator strengths:

 Excited State   1:      Singlet-A      1.7636 eV  703.04 nm  f=0.0000  <S**2>=0.000
     312 -> 313        0.70711
 This state for optimization and/or second-order correction.
 Total Energy, E(TD-HF/TD-DFT) =  -4067.29672870
 Copying the excited state density for this state as the 1-particle RhoCI density.

 Excited State   2:      Singlet-A      1.8385 eV  674.36 nm  f=0.3567  <S**2>=0.000
     310 -> 315        0.16804
     312 -> 314        0.69255
     312 <- 314       -0.10465

 Excited State   3:      Singlet-A      1.8537 eV  668.86 nm  f=0.4144  <S**2>=0.000
     309 -> 316       -0.15876
     311 -> 313        0.69694
     311 <- 313       -0.12235

 Excited State   4:      Singlet-A      2.1391 eV  579.60 nm  f=0.0000  <S**2>=0.000
     311 -> 314        0.70710

 Excited State   5:      Singlet-A      2.2418 eV  553.07 nm  f=0.0972  <S**2>=0.000
     310 -> 314        0.64074
     312 -> 315       -0.28288

 The electronic state is 1-A.
 Alpha  occ. eigenvalues --  -46.93695 -46.92576 -19.27075 -19.25461 -19.20577
 Alpha  occ. eigenvalues --  -19.20290 -19.19697 -19.19000 -19.18908 -19.17846
 Alpha  occ. eigenvalues --  -14.42680 -14.41996 -14.41637 -14.41387 -14.40093
 Alpha  occ. eigenvalues --  -14.39719 -14.39585 -14.38884 -10.37049 -10.36713
 Alpha  occ. eigenvalues --  -10.33696 -10.32114 -10.31630 -10.31575 -10.30531
 Alpha  occ. eigenvalues --  -10.29718 -10.29303 -10.29240 -10.29011 -10.29007
 Alpha  occ. eigenvalues --  -10.28849 -10.28725 -10.28666 -10.28663 -10.28576
 Alpha  occ. eigenvalues --  -10.28554 -10.28474 -10.27818 -10.27802 -10.27717
 Alpha  occ. eigenvalues --  -10.27112 -10.27049 -10.27026 -10.26952 -10.26374
 Alpha  occ. eigenvalues --  -10.26346 -10.26309 -10.26288 -10.26139 -10.25966
 Alpha  occ. eigenvalues --  -10.25951 -10.25929 -10.25861 -10.25831 -10.25808
 Alpha  occ. eigenvalues --  -10.25750 -10.25721 -10.25703 -10.25533 -10.25448
 Alpha  occ. eigenvalues --  -10.25250 -10.25044 -10.25026 -10.24809 -10.24795
 Alpha  occ. eigenvalues --  -10.24793 -10.24778 -10.24745 -10.24707 -10.24633
 Alpha  occ. eigenvalues --  -10.24615 -10.24373 -10.24215 -10.24185 -10.24109
 Alpha  occ. eigenvalues --  -10.23907 -10.23584 -10.23569 -10.23522 -10.23511
 Alpha  occ. eigenvalues --  -10.23456 -10.23234 -10.23068 -10.23060 -10.22606
 Alpha  occ. eigenvalues --  -10.22545  -3.15684  -3.14688  -1.88500  -1.88091
 Alpha  occ. eigenvalues --   -1.87872  -1.87493  -1.87049  -1.86941  -1.11684
 Alpha  occ. eigenvalues --   -1.10831  -1.03579  -1.03254  -1.03133  -1.02669
 Alpha  occ. eigenvalues --   -1.02511  -1.02122  -0.99580  -0.99423  -0.99098
 Alpha  occ. eigenvalues --   -0.98733  -0.98183  -0.98016  -0.97108  -0.96741
 Alpha  occ. eigenvalues --   -0.87219  -0.85874  -0.84012  -0.83717  -0.83310
 Alpha  occ. eigenvalues --   -0.83175  -0.83098  -0.82968  -0.82437  -0.82075
 Alpha  occ. eigenvalues --   -0.81771  -0.81253  -0.80580  -0.79738  -0.78989
 Alpha  occ. eigenvalues --   -0.78574  -0.78412  -0.78220  -0.77204  -0.76805
 Alpha  occ. eigenvalues --   -0.76788  -0.75789  -0.75668  -0.75317  -0.74541
 Alpha  occ. eigenvalues --   -0.74524  -0.72833  -0.72330  -0.71725  -0.71691
 Alpha  occ. eigenvalues --   -0.71236  -0.70982  -0.70633  -0.70242  -0.69697
 Alpha  occ. eigenvalues --   -0.69614  -0.67826  -0.67205  -0.66417  -0.66147
 Alpha  occ. eigenvalues --   -0.63960  -0.63541  -0.63369  -0.63259  -0.62737
 Alpha  occ. eigenvalues --   -0.62343  -0.61571  -0.61362  -0.60571  -0.60402
 Alpha  occ. eigenvalues --   -0.60131  -0.59671  -0.59430  -0.59347  -0.59129
 Alpha  occ. eigenvalues --   -0.59094  -0.57816  -0.57335  -0.55388  -0.54566
 Alpha  occ. eigenvalues --   -0.54494  -0.54185  -0.53568  -0.53550  -0.53199
 Alpha  occ. eigenvalues --   -0.53150  -0.52649  -0.52345  -0.51768  -0.51676
 Alpha  occ. eigenvalues --   -0.51004  -0.50505  -0.50419  -0.50243  -0.49966
 Alpha  occ. eigenvalues --   -0.49810  -0.49576  -0.49270  -0.48947  -0.48408
 Alpha  occ. eigenvalues --   -0.48403  -0.48033  -0.47951  -0.47848  -0.47754
 Alpha  occ. eigenvalues --   -0.47477  -0.47279  -0.47104  -0.46975  -0.46715
 Alpha  occ. eigenvalues --   -0.46601  -0.46142  -0.46085  -0.45902  -0.45743
 Alpha  occ. eigenvalues --   -0.45699  -0.45555  -0.45535  -0.45472  -0.45293
 Alpha  occ. eigenvalues --   -0.44830  -0.44586  -0.44491  -0.44170  -0.44111
 Alpha  occ. eigenvalues --   -0.43968  -0.43861  -0.43680  -0.43649  -0.43413
 Alpha  occ. eigenvalues --   -0.43261  -0.43207  -0.43000  -0.42855  -0.42767
 Alpha  occ. eigenvalues --   -0.42508  -0.42374  -0.42242  -0.42114  -0.42089
 Alpha  occ. eigenvalues --   -0.41987  -0.41885  -0.41537  -0.41508  -0.41359
 Alpha  occ. eigenvalues --   -0.41298  -0.41153  -0.40987  -0.40697  -0.40659
 Alpha  occ. eigenvalues --   -0.40478  -0.40385  -0.40068  -0.40052  -0.39818
 Alpha  occ. eigenvalues --   -0.39571  -0.39537  -0.39308  -0.39191  -0.39135
 Alpha  occ. eigenvalues --   -0.38744  -0.38684  -0.38569  -0.38546  -0.38482
 Alpha  occ. eigenvalues --   -0.38294  -0.38175  -0.37718  -0.37594  -0.37459
 Alpha  occ. eigenvalues --   -0.37322  -0.37178  -0.37132  -0.36989  -0.36834
 Alpha  occ. eigenvalues --   -0.36761  -0.36728  -0.36501  -0.36341  -0.36078
 Alpha  occ. eigenvalues --   -0.35809  -0.35753  -0.35692  -0.35556  -0.35545
 Alpha  occ. eigenvalues --   -0.34978  -0.34735  -0.34670  -0.34242  -0.34006
 Alpha  occ. eigenvalues --   -0.33651  -0.33578  -0.33369  -0.33112  -0.33024
 Alpha  occ. eigenvalues --   -0.32870  -0.32379  -0.31921  -0.31823  -0.31562
 Alpha  occ. eigenvalues --   -0.31469  -0.31286  -0.30051  -0.29766  -0.29754
 Alpha  occ. eigenvalues --   -0.29616  -0.29278  -0.28668  -0.27132  -0.26957
 Alpha  occ. eigenvalues --   -0.26372  -0.26258  -0.25843  -0.25770  -0.25613
 Alpha  occ. eigenvalues --   -0.25400  -0.25037  -0.24824  -0.21790  -0.21085
 Alpha  occ. eigenvalues --   -0.19305  -0.18728
 Alpha virt. eigenvalues --   -0.11924  -0.11124  -0.05534  -0.05417  -0.04178
 Alpha virt. eigenvalues --   -0.03994  -0.02495  -0.02349  -0.02025  -0.01114
 Alpha virt. eigenvalues --    0.00235   0.00500   0.00692   0.00855   0.01435

 Mulliken charges:
               1
     1  Mg  12.000000
     2  C    6.000000
     3  C    6.000000
     4  C    6.000000
     5  C    6.000000
     6  N    7.000000
     7  C    6.000000
     8  C    6.000000
     9  C    6.000000
    10  C    6.000000
    11  C    6.000000
    12  C    6.000000
    13  C    6.000000
    14  H    1.000000
    15  N    7.000000
    16  C    6.000000
    17  C    6.000000
    18  C    6.000000
    19  C    6.000000
    20  C    6.000000
    21  C    6.000000
    22  O    8.000000
    23  C    6.000000
    24  N    7.000000
    25  C    6.000000
    26  C    6.000000
    27  C    6.000000
    28  C    6.000000
    29  C    6.000000
    30  C    6.000000
    31  C    6.000000
    32  N    7.000000
    33  C    6.000000
    34  C    6.000000
    35  C    6.000000
    36  C    6.000000
    37  C    6.000000
    38  C    6.000000
    39  O    8.000000
    40  C    6.000000
    41  C    6.000000
    42  O    8.000000
    43  O    8.000000
    44  C    6.000000
    45  H    1.000000
    46  H    1.000000
    47  H    1.000000
    48  H    1.000000
    49  H    1.000000
    50  H    1.000000
    51  H    1.000000
    52  H    1.000000
    53  H    1.000000
    54  H    1.000000
    55  H    1.000000
    56  H    1.000000
    57  H    1.000000
    58  H    1.000000
    59  H    1.000000
    60  H    1.000000
    61  H    1.000000
    62  H    1.000000
    63  H    1.000000
    64  H    1.000000
    65  H    1.000000
    66  H    1.000000
    67  H    1.000000
    68  H    1.000000
    69  H    1.000000
    70  H    1.000000
    71  H    1.000000
    72  H    1.000000
    73  H    1.000000
    74  H    1.000000
    75  H    1.000000
    76  H    1.000000
    77  H    1.000000
    78  H    1.000000
    79  H    1.000000
    80  Mg  12.000000
    81  C    6.000000
    82  C    6.000000
    83  C    6.000000
    84  C    6.000000
    85  N    7.000000
    86  C    6.000000
    87  C    6.000000
    88  C    6.000000
    89  C    6.000000
    90  C    6.000000
    91  C    6.000000
    92  C    6.000000
    93  H    1.000000
    94  N    7.000000
    95  C    6.000000
    96  C    6.000000
    97  C    6.000000
    98  C    6.000000
    99  C    6.000000
   100  C    6.000000
   101  O    8.000000
   102  C    6.000000
   103  N    7.000000
   104  C    6.000000
   105  C    6.000000
   106  C    6.000000
   107  C    6.000000
   108  C    6.000000
   109  C    6.000000
   110  C    6.000000
   111  N    7.000000
   112  C    6.000000
   113  C    6.000000
   114  C    6.000000
   115  C    6.000000
   116  C    6.000000
   117  C    6.000000
   118  O    8.000000
   119  C    6.000000
   120  C    6.000000
   121  O    8.000000
   122  O    8.000000
   123  C    6.000000
   124  H    1.000000
   125  H    1.000000
   126  H    1.000000
   127  H    1.000000
   128  H    1.000000
   129  H    1.000000
   130  H    1.000000
   131  H    1.000000
   132  H    1.000000
   133  H    1.000000
   134  H    1.000000
   135  H    1.000000
   136  H    1.000000
   137  H    1.000000
   138  H    1.000000
   139  H    1.000000
   140  H    1.000000
   141  H    1.000000
   142  H    1.000000
   143  H    1.000000
   144  H    1.000000
   145  H    1.000000
   146  H    1.000000
   147  H    1.000000
   148  H    1.000000
   149  H    1.000000
   150  H    1.000000
   151  H    1.000000
   152  H    1.000000
   153  H    1.000000
   154  H    1.000000
   155  H    1.000000
   156  H    1.000000
   157  H    1.000000
   158  H    1.000000
 Sum of Mulliken charges = 624.00000

 Dipole moment (field-independent basis, Debye):
    X=              0.0000    Y=             -0.0000    Z=             -0.0000  Tot=              0.0000
 Quadrupole moment (field-independent basis, Debye-Ang):
   XX=             -0.0000   YY=             -0.0000   ZZ=              0.0000
   XY=             -0.0000   XZ=             -0.0000   YZ=             -0.0000

 Normal termination of Gaussian 16 at Fri Oct 15 15:16:14 2021.
