 Gaussian 16, Revision A.03,
 Gaussian 16:  ES64L-G16RevA.03 25-Dec-2016

 --------------------------------------------------------
 #p PBE1PBE/Def2SVP td=(nstates=5) density=(transition=1)
 --------------------------------------------------------

 --------------------------------
 TDDFT excited states in gaussian
 --------------------------------
 Symbolic Z-matrix:
 Charge =  0 Multiplicity = 1

                         Standard orientation:
 ---------------------------------------------------------------------
 Center     Atomic      Atomic             Coordinates (Angstroms)
 Number     Number       Type             X           Y           Z
 ---------------------------------------------------------------------
      1         12           0      -31.926482   -0.088378    0.320797
      2          6           0      -29.386485   -1.667846   -1.482723
      3          6           0      -32.277231    2.076710   -2.414856
      4          6           0      -33.973078    1.864565    2.108656
      5          6           0      -30.741379   -1.586679    3.183301
      6          7           0      -31.003916    0.132717   -1.821494
      7          6           0      -29.950966   -0.630095   -2.218788
      8          6           0      -29.469630   -0.201913   -3.661627
      9          6           0      -30.264821    1.189318   -3.832698
     10          6           0      -31.209033    1.185093   -2.618752
     11          6           0      -29.225361    2.348631   -3.631408
     12          6           0      -30.000157   -1.283736   -4.672688
     13          6           0      -29.770799   -1.021244   -6.186063
     14          1           0      -30.725893   -1.197160   -7.328956
     15          7           0      -33.099919    1.570478   -0.175847
     16          6           0      -33.161434    2.324097   -1.359893
     17          6           0      -34.086021    3.359885   -1.161900
     18          6           0      -34.723000    3.206215    0.062227
     19          6           0      -33.940443    2.174050    0.721934
     20          6           0      -34.403737    4.305154   -2.273888
     21          6           0      -35.872920    4.030643    0.729452
     22          8           0      -36.367489    3.784761    1.824387
     23          6           0      -36.644609    5.112189   -0.031529
     24          7           0      -32.197071    0.171102    2.360990
     25          6           0      -33.208138    0.936776    2.828673
     26          6           0      -33.496281    0.731268    4.328709
     27          6           0      -32.368795   -0.270354    4.703267
     28          6           0      -31.795414   -0.692413    3.362410
     29          6           0      -33.634167    2.054937    5.151818
     30          6           0      -32.753818   -1.463719    5.620015
     31          6           0      -33.512286   -2.555205    4.992505
     32          7           0      -30.455532   -1.436706    0.799645
     33          6           0      -30.092647   -1.946577    1.953742
     34          6           0      -29.056129   -2.972388    1.798901
     35          6           0      -28.771601   -2.867529    0.399853
     36          6           0      -29.603627   -1.912138   -0.150238
     37          6           0      -28.725955   -4.086117    2.678484
     38          6           0      -27.942949   -3.438419   -0.647544
     39          8           0      -27.171298   -4.370327   -0.623764
     40          6           0      -28.284889   -2.604509   -1.888226
     41          6           0      -27.040391   -1.941653   -2.488027
     42          8           0      -26.520069   -0.950039   -2.046992
     43          8           0      -26.586290   -2.697527   -3.542300
     44          6           0      -25.385148   -2.113823   -4.182712
     45          1           0      -32.466623    2.659177   -3.317965
     46          1           0      -34.779133    2.331013    2.679336
     47          1           0      -30.659857   -2.010266    4.185818
     48          1           0      -28.397127   -0.010603   -3.705083
     49          1           0      -30.779027    1.304566   -4.787667
     50          1           0      -29.276517    2.890368   -2.687492
     51          1           0      -29.454827    3.204822   -4.266221
     52          1           0      -28.188401    2.041297   -3.765391
     53          1           0      -31.062936   -1.417194   -4.472542
     54          1           0      -29.555568   -2.235069   -4.379191
     55          1           0      -28.842969   -1.551883   -6.401738
     56          1           0      -29.605598    0.055384   -6.173642
     57          1           0      -33.828342    4.168125   -3.189836
     58          1           0      -34.402634    5.315469   -1.862500
     59          1           0      -35.432415    4.054711   -2.534577
     60          1           0      -36.046035    5.989977   -0.275286
     61          1           0      -37.590954    5.402403    0.425159
     62          1           0      -36.989671    4.645810   -0.954499
     63          1           0      -34.470314    0.255867    4.216570
     64          1           0      -31.613540    0.352368    5.182760
     65          1           0      -34.013057    2.864333    4.528660
     66          1           0      -32.653484    2.346044    5.529056
     67          1           0      -34.338615    1.966290    5.979117
     68          1           0      -33.362896   -0.964800    6.373152
     69          1           0      -31.868530   -1.824660    6.143906
     70          1           0      -32.822682   -3.235197    4.492597
     71          1           0      -34.278645   -2.166134    4.322402
     72          1           0      -34.004218   -3.186810    5.732817
     73          1           0      -29.634851   -4.261667    3.254461
     74          1           0      -27.975083   -3.957792    3.458276
     75          1           0      -28.441487   -4.915691    2.032057
     76          1           0      -28.739899   -3.272867   -2.619972
     77          1           0      -24.745976   -2.929654   -4.519794
     78          1           0      -24.690103   -1.598087   -3.519781
     79          1           0      -25.655640   -1.534673   -5.065019
     80         12           0       31.678487    0.514664   -0.447175
     81          6           0       29.517995   -2.169096    0.554781
     82          6           0       29.144047    2.667961    0.856589
     83          6           0       33.828204    3.093467   -0.315432
     84          6           0       34.176636   -1.771007   -0.928082
     85          7           0       29.632224    0.231319    0.597335
     86          6           0       28.959553   -0.924483    0.867733
     87          6           0       27.571273   -0.648111    1.543624
     88          6           0       27.380503    0.910979    1.221694
     89          6           0       28.823720    1.304905    0.950493
     90          6           0       26.516162    1.207054    0.017571
     91          6           0       27.501204   -1.106380    2.990935
     92          6           0       26.222356   -1.858106    3.443128
     93          1           0       25.071886   -1.104904    4.259807
     94          7           0       31.500306    2.685697    0.101294
     95          6           0       30.327637    3.347887    0.520697
     96          6           0       30.621875    4.778800    0.665674
     97          6           0       32.010548    4.914937    0.269684
     98          6           0       32.524707    3.574563    0.087575
     99          6           0       29.705201    5.835876    1.155285
    100          6           0       32.734900    6.225253    0.088409
    101          8           0       32.085934    7.246298    0.127628
    102          6           0       34.221266    6.353229   -0.153230
    103          7           0       33.662923    0.569414   -0.483430
    104          6           0       34.306018    1.800671   -0.574101
    105          6           0       35.799978    1.523090   -0.756657
    106          6           0       35.858937    0.004547   -1.160999
    107          6           0       34.457914   -0.423561   -0.881122
    108          6           0       36.628178    2.487011   -1.683337
    109          6           0       36.955921   -0.888594   -0.504350
    110          6           0       37.872309   -1.649590   -1.406064
    111          7           0       31.844063   -1.526622   -0.367296
    112          6           0       32.914102   -2.352071   -0.665704
    113          6           0       32.484130   -3.762079   -0.733947
    114          6           0       31.144845   -3.701100   -0.184633
    115          6           0       30.852722   -2.348352    0.014836
    116          6           0       33.242749   -4.991816   -1.158674
    117          6           0       29.971267   -4.552246    0.170719
    118          8           0       29.849203   -5.743923    0.186790
    119          6           0       28.954934   -3.578551    0.758395
    120          6           0       27.668673   -3.751079    0.007067
    121          8           0       27.631487   -3.447333   -1.165959
    122          8           0       26.545045   -4.175693    0.777913
    123          6           0       25.217927   -4.152418    0.091253
    124          1           0       28.373117    3.362691    1.196870
    125          1           0       34.645794    3.815937   -0.337203
    126          1           0       34.949715   -2.457200   -1.279294
    127          1           0       26.752086   -1.101240    0.986055
    128          1           0       27.067062    1.464801    2.106565
    129          1           0       27.123379    1.084386   -0.878983
    130          1           0       26.119638    2.213757    0.148821
    131          1           0       25.651699    0.571953   -0.178731
    132          1           0       27.540020   -0.199621    3.593787
    133          1           0       28.437544   -1.612953    3.224774
    134          1           0       26.620012   -2.666920    4.056617
    135          1           0       25.683716   -2.328416    2.620372
    136          1           0       29.305087    6.324665    0.267490
    137          1           0       30.287934    6.610790    1.653406
    138          1           0       28.880404    5.583648    1.822841
    139          1           0       34.608517    7.371923   -0.149268
    140          1           0       34.389805    5.936745   -1.146400
    141          1           0       34.914309    5.790854    0.471395
    142          1           0       36.184211    1.754932    0.237101
    143          1           0       35.884713   -0.053627   -2.248731
    144          1           0       35.968381    3.030330   -2.360312
    145          1           0       37.404058    1.933963   -2.212410
    146          1           0       37.185419    3.201979   -1.078420
    147          1           0       36.473045   -1.597966    0.167674
    148          1           0       37.513065   -0.253023    0.183810
    149          1           0       37.605836   -2.705852   -1.375008
    150          1           0       38.897538   -1.555145   -1.048430
    151          1           0       37.885670   -1.375085   -2.460626
    152          1           0       32.561315   -5.793151   -1.443614
    153          1           0       33.862749   -5.279002   -0.308962
    154          1           0       33.945800   -4.695628   -1.937407
    155          1           0       28.915899   -3.758470    1.832841
    156          1           0       25.130822   -5.032521   -0.546104
    157          1           0       25.138154   -3.291220   -0.571789
    158          1           0       24.407051   -4.104744    0.817845
 ---------------------------------------------------------------------

 SCF Done:  E(RPBE1PBE) =  -4067.39072600     A.U. after   16 cycles

 Excitation energies and oscillator strengths:

 Excited State   1:      Singlet-A      1.8362 eV  675.21 nm  f=0.3812  <S**2>=0.000
     309 -> 315        0.16421
     311 -> 313        0.69670
     311 <- 313       -0.11953
 This state for optimization and/or second-order correction.
 Total Energy, E(TD-HF/TD-DFT) =  -4067.32324563
 Copying the excited state density for this state as the 1-particle RhoCI density.

 Excited State   2:      Singlet-A      1.8847 eV  657.85 nm  f=0.3805  <S**2>=0.000
     310 -> 316       -0.17976
     312 -> 314        0.69127
     312 <- 314       -0.10354

 Excited State   3:      Singlet-A      1.9211 eV  645.38 nm  f=0.0000  <S**2>=0.000
     312 -> 313        0.70711

 Excited State   4:      Singlet-A      2.0859 eV  594.39 nm  f=0.0000  <S**2>=0.000
     311 -> 314        0.70711

 Excited State   5:      Singlet-A      2.2360 eV  554.48 nm  f=0.1180  <S**2>=0.000
     308 -> 313        0.10039
     309 -> 313        0.64816
     311 -> 315       -0.25665

 The electronic state is 1-A.
 Alpha  occ. eigenvalues --  -46.92727 -46.92127 -19.26460 -19.25849 -19.20850
 Alpha  occ. eigenvalues --  -19.20638 -19.19822 -19.19525 -19.19117 -19.18227
 Alpha  occ. eigenvalues --  -14.42117 -14.41566 -14.41348 -14.40751 -14.38992
 Alpha  occ. eigenvalues --  -14.38844 -14.38814 -14.38779 -10.37170 -10.36806
 Alpha  occ. eigenvalues --  -10.33204 -10.32465 -10.31710 -10.31679 -10.29445
 Alpha  occ. eigenvalues --  -10.29117 -10.29064 -10.29012 -10.28684 -10.28496
 Alpha  occ. eigenvalues --  -10.28476 -10.28231 -10.28176 -10.27935 -10.27910
 Alpha  occ. eigenvalues --  -10.27840 -10.27815 -10.27501 -10.27271 -10.27151
 Alpha  occ. eigenvalues --  -10.26778 -10.26693 -10.26455 -10.26420 -10.26380
 Alpha  occ. eigenvalues --  -10.26357 -10.26342 -10.26235 -10.26202 -10.25914
 Alpha  occ. eigenvalues --  -10.25757 -10.25735 -10.25622 -10.25603 -10.25563
 Alpha  occ. eigenvalues --  -10.25483 -10.25450 -10.25395 -10.25264 -10.25091
 Alpha  occ. eigenvalues --  -10.24972 -10.24773 -10.24708 -10.24667 -10.24562
 Alpha  occ. eigenvalues --  -10.24459 -10.24322 -10.24277 -10.24216 -10.24060
 Alpha  occ. eigenvalues --  -10.24030 -10.23923 -10.23855 -10.23852 -10.23527
 Alpha  occ. eigenvalues --  -10.23502 -10.23497 -10.23284 -10.23221 -10.23206
 Alpha  occ. eigenvalues --  -10.23172 -10.23084 -10.22888 -10.22821 -10.22591
 Alpha  occ. eigenvalues --  -10.22156  -3.14873  -3.14267  -1.87659  -1.87254
 Alpha  occ. eigenvalues --   -1.87102  -1.87094  -1.86656  -1.86477  -1.11604
 Alpha  occ. eigenvalues --   -1.10005  -1.06394  -1.05118  -1.05014  -1.04992
 Alpha  occ. eigenvalues --   -1.03615  -1.02628  -0.99780  -0.99229  -0.98357
 Alpha  occ. eigenvalues --   -0.98185  -0.97986  -0.97365  -0.97023  -0.96188
 Alpha  occ. eigenvalues --   -0.88259  -0.87024  -0.83741  -0.83717  -0.83133
 Alpha  occ. eigenvalues --   -0.82800  -0.82777  -0.82443  -0.81893  -0.81732
 Alpha  occ. eigenvalues --   -0.81554  -0.80638  -0.80541  -0.79951  -0.78752
 Alpha  occ. eigenvalues --   -0.78308  -0.78267  -0.77999  -0.76758  -0.76682
 Alpha  occ. eigenvalues --   -0.76017  -0.75723  -0.75165  -0.74838  -0.74697
 Alpha  occ. eigenvalues --   -0.74507  -0.72742  -0.72487  -0.71932  -0.71784
 Alpha  occ. eigenvalues --   -0.71086  -0.70950  -0.70588  -0.70465  -0.69593
 Alpha  occ. eigenvalues --   -0.69176  -0.67097  -0.66993  -0.66219  -0.66211
 Alpha  occ. eigenvalues --   -0.64396  -0.63905  -0.63627  -0.63300  -0.62797
 Alpha  occ. eigenvalues --   -0.62337  -0.61359  -0.61128  -0.60393  -0.59847
 Alpha  occ. eigenvalues --   -0.59509  -0.59218  -0.59130  -0.58959  -0.58832
 Alpha  occ. eigenvalues --   -0.58597  -0.57111  -0.56864  -0.54544  -0.54345
 Alpha  occ. eigenvalues --   -0.54044  -0.53979  -0.53926  -0.53783  -0.53464
 Alpha  occ. eigenvalues --   -0.53056  -0.52991  -0.52898  -0.52235  -0.51940
 Alpha  occ. eigenvalues --   -0.51103  -0.51067  -0.50196  -0.50189  -0.50139
 Alpha  occ. eigenvalues --   -0.50045  -0.49792  -0.49221  -0.48790  -0.48558
 Alpha  occ. eigenvalues --   -0.48432  -0.47893  -0.47817  -0.47719  -0.47577
 Alpha  occ. eigenvalues --   -0.47479  -0.47303  -0.46879  -0.46835  -0.46740
 Alpha  occ. eigenvalues --   -0.46324  -0.46243  -0.45884  -0.45718  -0.45618
 Alpha  occ. eigenvalues --   -0.45561  -0.45462  -0.45377  -0.45073  -0.44724
 Alpha  occ. eigenvalues --   -0.44541  -0.44481  -0.44428  -0.44301  -0.44175
 Alpha  occ. eigenvalues --   -0.44051  -0.43925  -0.43821  -0.43779  -0.43537
 Alpha  occ. eigenvalues --   -0.43451  -0.43313  -0.43265  -0.42954  -0.42813
 Alpha  occ. eigenvalues --   -0.42546  -0.42376  -0.42171  -0.41832  -0.41786
 Alpha  occ. eigenvalues --   -0.41657  -0.41340  -0.41102  -0.41020  -0.40866
 Alpha  occ. eigenvalues --   -0.40841  -0.40809  -0.40737  -0.40683  -0.40601
 Alpha  occ. eigenvalues --   -0.40571  -0.40115  -0.39946  -0.39848  -0.39746
 Alpha  occ. eigenvalues --   -0.39650  -0.39460  -0.39375  -0.39197  -0.39061
 Alpha  occ. eigenvalues --   -0.38852  -0.38652  -0.38597  -0.38446  -0.38433
 Alpha  occ. eigenvalues --   -0.38253  -0.38182  -0.38116  -0.37977  -0.37788
 Alpha  occ. eigenvalues --   -0.37732  -0.37493  -0.37421  -0.37389  -0.37265
 Alpha  occ. eigenvalues --   -0.37169  -0.37162  -0.36801  -0.36790  -0.36644
 Alpha  occ. eigenvalues --   -0.36388  -0.36020  -0.35645  -0.35601  -0.35520
 Alpha  occ. eigenvalues --   -0.35202  -0.35144  -0.34561  -0.34226  -0.33859
 Alpha  occ. eigenvalues --   -0.33437  -0.33406  -0.32821  -0.32694  -0.32678
 Alpha  occ. eigenvalues --   -0.32339  -0.32262  -0.32032  -0.31810  -0.31556
 Alpha  occ. eigenvalues --   -0.31416  -0.30845  -0.29813  -0.29778  -0.29549
 Alpha  occ. eigenvalues --   -0.29506  -0.28823  -0.28735  -0.26950  -0.26842
 Alpha  occ. eigenvalues --   -0.26338  -0.25892  -0.25750  -0.25540  -0.25313
 Alpha  occ. eigenvalues --   -0.25229  -0.24991  -0.24395  -0.21197  -0.20724
 Alpha  occ. eigenvalues --   -0.18773  -0.18662
 Alpha virt. eigenvalues --   -0.11391  -0.10899  -0.05017  -0.04852  -0.03788
 Alpha virt. eigenvalues --   -0.03539  -0.02111  -0.01954  -0.01542  -0.00576
 Alpha virt. eigenvalues --   -0.00202   0.00248   0.00546   0.01255   0.01337

 Mulliken charges:
               1
     1  Mg  11.999994
     2  C    6.000024
     3  C    5.999950
     4  C    5.999994
     5  C    6.000028
     6  N    7.000041
     7  C    5.999917
     8  C    6.000019
     9  C    5.999987
    10  C    6.000049
    11  C    5.999991
    12  C    6.000005
    13  C    5.999997
    14  H    0.999985
    15  N    6.999981
    16  C    6.000100
    17  C    6.000065
    18  C    6.000055
    19  C    6.000043
    20  C    5.999975
    21  C    6.000005
    22  O    8.000032
    23  C    5.999992
    24  N    6.999964
    25  C    6.000100
    26  C    5.999993
    27  C    6.000000
    28  C    5.999971
    29  C    5.999999
    30  C    6.000008
    31  C    6.000008
    32  N    7.000030
    33  C    5.999923
    34  C    5.999899
    35  C    5.999961
    36  C    5.999936
    37  C    6.000043
    38  C    5.999983
    39  O    7.999946
    40  C    5.999998
    41  C    6.000004
    42  O    7.999995
    43  O    7.999989
    44  C    6.000004
    45  H    1.000012
    46  H    1.000000
    47  H    0.999989
    48  H    1.000002
    49  H    1.000001
    50  H    1.000009
    51  H    1.000012
    52  H    1.000022
    53  H    0.999988
    54  H    1.000004
    55  H    1.000000
    56  H    1.000006
    57  H    1.000019
    58  H    1.000030
    59  H    1.000016
    60  H    1.000021
    61  H    1.000019
    62  H    1.000005
    63  H    0.999993
    64  H    1.000002
    65  H    0.999994
    66  H    1.000015
    67  H    1.000005
    68  H    0.999991
    69  H    1.000003
    70  H    1.000005
    71  H    0.999987
    72  H    0.999986
    73  H    0.999974
    74  H    0.999970
    75  H    0.999971
    76  H    0.999980
    77  H    0.999985
    78  H    1.000004
    79  H    0.999995
    80  Mg  11.999738
    81  C    5.977603
    82  C    5.999295
    83  C    6.032489
    84  C    5.999570
    85  N    6.985244
    86  C    6.028777
    87  C    5.991209
    88  C    6.007973
    89  C    5.974162
    90  C    6.005831
    91  C    5.995876
    92  C    5.999637
    93  H    1.007204
    94  N    7.003429
    95  C    5.962691
    96  C    5.975953
    97  C    5.993150
    98  C    5.960994
    99  C    6.004861
   100  C    5.988877
   101  O    7.982477
   102  C    6.002216
   103  N    7.009637
   104  C    5.962799
   105  C    6.008499
   106  C    5.989082
   107  C    6.029370
   108  C    6.000509
   109  C    5.995825
   110  C    5.998780
   111  N    6.999956
   112  C    6.031444
   113  C    6.032431
   114  C    6.001715
   115  C    6.030497
   116  C    6.000216
   117  C    6.017739
   118  O    8.024825
   119  C    6.000239
   120  C    6.005003
   121  O    8.002644
   122  O    8.001995
   123  C    5.998318
   124  H    0.987417
   125  H    0.996450
   126  H    1.013145
   127  H    1.000877
   128  H    0.999068
   129  H    0.994860
   130  H    1.001218
   131  H    0.984509
   132  H    1.010069
   133  H    0.994198
   134  H    0.997025
   135  H    0.997540
   136  H    0.980898
   137  H    0.985090
   138  H    0.981816
   139  H    0.988708
   140  H    0.989850
   141  H    0.988812
   142  H    1.000146
   143  H    1.003985
   144  H    1.003252
   145  H    0.992190
   146  H    1.003385
   147  H    0.996579
   148  H    1.011471
   149  H    0.996293
   150  H    1.006312
   151  H    1.004243
   152  H    1.015039
   153  H    1.020229
   154  H    1.015775
   155  H    1.007786
   156  H    1.000705
   157  H    1.005527
   158  H    1.004757
 Sum of Mulliken charges = 624.00000

 Dipole moment (field-independent basis, Debye):
    X=              1.8182    Y=            -10.2259    Z=             -1.2661  Tot=             10.4631
 Quadrupole moment (field-independent basis, Debye-Ang):
   XX=            118.6437   YY=            -11.4722   ZZ=              0.6290
   XY=           -322.3774   XZ=            -40.9438   YZ=             -0.4868

 Normal termination of Gaussian 16 at Thu Oct 14 02:00:29 2021.
