 Gaussian 16, Revision A.03,
 Gaussian 16:  ES64L-G16RevA.03 25-Dec-2016

 --------------------------------------------------------
 #p PBE1PBE/Def2SVP td=(nstates=5) density=(transition=1)
 --------------------------------------------------------

 --------------------------------
 TDDFT excited states in gaussian
 --------------------------------
 Symbolic Z-matrix:
 Charge =  0 Multiplicity = 1

                         Standard orientation:
 ---------------------------------------------------------------------
 Center     Atomic      Atomic             Coordinates (Angstroms)
 Number     Number       Type             X           Y           Z
 ---------------------------------------------------------------------
      1         12           0       29.290289    0.577489    0.023934
      2          6           0       26.419293   -0.460145   -1.673031
      3          6           0       30.458681   -2.711666   -0.308851
      4          6           0       31.829021    1.252788    2.097046
      5          6           0       27.567334    3.348132    1.118588
      6          7           0       28.571256   -1.403237   -1.000340
      7          6           0       27.332314   -1.503645   -1.551131
      8          6           0       27.076233   -2.972135   -2.075313
      9          6           0       28.310048   -3.746460   -1.385937
     10          6           0       29.154511   -2.591880   -0.821094
     11          6           0       27.731860   -4.559367   -0.173550
     12          6           0       27.230364   -2.944416   -3.640407
     13          6           0       27.155189   -4.302277   -4.390324
     14          1           0       28.026007   -4.817553   -5.497356
     15          7           0       30.981997   -0.509932    0.599307
     16          6           0       31.339369   -1.844781    0.346023
     17          6           0       32.559187   -2.092580    0.992212
     18          6           0       33.063483   -0.916632    1.531357
     19          6           0       31.950466    0.011215    1.416169
     20          6           0       33.220905   -3.425223    0.861115
     21          6           0       34.406023   -0.625816    2.279820
     22          8           0       34.748985    0.473009    2.702787
     23          6           0       35.529255   -1.662725    2.366476
     24          7           0       29.568399    2.025909    1.482587
     25          6           0       30.766816    2.167141    2.091758
     26          6           0       30.917302    3.495087    2.859406
     27          6           0       29.500774    4.102902    2.662486
     28          6           0       28.859947    3.204498    1.619889
     29          6           0       31.479644    3.346454    4.312093
     30          6           0       29.417831    5.615250    2.317937
     31          6           0       29.769913    5.995167    0.942406
     32          7           0       27.428126    1.388316   -0.269130
     33          6           0       26.873888    2.476993    0.211700
     34          6           0       25.551242    2.723193   -0.371930
     35          6           0       25.365953    1.533406   -1.146114
     36          6           0       26.495155    0.747226   -1.025848
     37          6           0       24.826830    3.979793   -0.510709
     38          6           0       24.424767    0.882596   -2.040673
     39          8           0       23.377226    1.272868   -2.504144
     40          6           0       25.074663   -0.473375   -2.341670
     41          6           0       24.157691   -1.640195   -1.960082
     42          8           0       24.000129   -2.040325   -0.835975
     43          8           0       23.503546   -2.089925   -3.082080
     44          6           0       22.601032   -3.228425   -2.794210
     45          1           0       30.867450   -3.698716   -0.531076
     46          1           0       32.728092    1.601949    2.609619
     47          1           0       27.311632    4.340704    1.493460
     48          1           0       26.138858   -3.390051   -1.707312
     49          1           0       28.862697   -4.407437   -2.054776
     50          1           0       27.937550   -4.163866    0.820605
     51          1           0       28.264599   -5.500306   -0.033811
     52          1           0       26.657581   -4.733830   -0.229922
     53          1           0       28.173675   -2.445939   -3.861890
     54          1           0       26.473943   -2.256978   -4.019999
     55          1           0       26.108286   -4.375361   -4.686322
     56          1           0       27.373757   -4.988100   -3.572736
     57          1           0       32.663490   -4.176866    0.301527
     58          1           0       33.557423   -3.728837    1.853361
     59          1           0       34.106452   -3.211688    0.261894
     60          1           0       35.280847   -2.529633    2.978836
     61          1           0       36.502288   -1.257304    2.644320
     62          1           0       35.720407   -1.988821    1.343943
     63          1           0       31.668754    3.943509    2.210130
     64          1           0       28.993710    3.896844    3.605106
     65          1           0       32.135808    2.480192    4.389841
     66          1           0       30.649452    3.208133    5.005229
     67          1           0       32.082509    4.200667    4.620968
     68          1           0       30.137695    6.032849    3.021158
     69          1           0       28.445944    6.007356    2.618208
     70          1           0       28.903568    5.858236    0.295455
     71          1           0       30.644803    5.445922    0.595104
     72          1           0       29.987882    7.060197    0.857651
     73          1           0       25.599219    4.748578   -0.478379
     74          1           0       24.142567    4.301441    0.274579
     75          1           0       24.292971    3.924838   -1.458842
     76          1           0       25.292590   -0.505084   -3.409700
     77          1           0       21.729557   -3.147467   -3.443612
     78          1           0       22.107356   -3.216121   -1.822263
     79          1           0       23.083991   -4.177436   -3.024802
     80         12           0      -29.422191   -0.075758   -0.077427
     81          6           0      -25.964559   -0.399163   -0.655036
     82          6           0      -28.959703   -2.130771    2.689672
     83          6           0      -32.573075    0.502865    0.832896
     84          6           0      -29.423878    2.614722   -2.269391
     85          7           0      -27.575752   -0.991521    0.957655
     86          6           0      -26.277299   -1.119785    0.504380
     87          6           0      -25.456511   -2.197363    1.181260
     88          6           0      -26.428308   -2.769588    2.240694
     89          6           0      -27.729237   -1.937299    1.994503
     90          6           0      -26.668925   -4.329887    2.130573
     91          6           0      -24.089456   -1.732418    1.855892
     92          6           0      -24.018355   -0.309811    2.434459
     93          1           0      -24.090738   -0.136526    3.980522
     94          7           0      -30.573894   -0.720182    1.499277
     95          6           0      -30.231705   -1.597686    2.488531
     96          6           0      -31.404659   -1.894126    3.322965
     97          6           0      -32.485647   -1.128079    2.788783
     98          6           0      -31.876245   -0.384034    1.643974
     99          6           0      -31.381523   -2.865177    4.497398
    100          6           0      -33.875997   -1.145870    3.526840
    101          8           0      -33.967649   -1.794138    4.559991
    102          6           0      -35.081108   -0.268849    2.983162
    103          7           0      -30.726756    1.410917   -0.544640
    104          6           0      -32.065360    1.360079   -0.162543
    105          6           0      -32.924536    2.522324   -0.919796
    106          6           0      -31.750237    3.238155   -1.782832
    107          6           0      -30.573806    2.356365   -1.512665
    108          6           0      -34.084615    1.944907   -1.783138
    109          6           0      -31.449813    4.749826   -1.397035
    110          6           0      -31.429623    5.811551   -2.507592
    111          7           0      -28.031081    0.873011   -1.351693
    112          6           0      -28.137651    1.957905   -2.183740
    113          6           0      -26.814614    2.215664   -2.790439
    114          6           0      -25.964759    1.200651   -2.274766
    115          6           0      -26.769071    0.454379   -1.368785
    116          6           0      -26.435219    3.323323   -3.733827
    117          6           0      -24.561668    0.745522   -2.280448
    118          8           0      -23.573814    1.069066   -2.955966
    119          6           0      -24.582075   -0.459771   -1.352193
    120          6           0      -24.285815   -1.681115   -2.022084
    121          8           0      -25.144980   -2.289191   -2.711566
    122          8           0      -22.963200   -2.098900   -1.774110
    123          6           0      -22.552335   -3.414130   -2.254875
    124          1           0      -28.914193   -2.900561    3.462431
    125          1           0      -33.647211    0.600701    1.001045
    126          1           0      -29.523242    3.432474   -2.985612
    127          1           0      -25.251599   -2.885757    0.362241
    128          1           0      -26.058509   -2.407952    3.199476
    129          1           0      -26.214583   -4.827913    2.987059
    130          1           0      -26.196355   -4.639607    1.198065
    131          1           0      -27.732690   -4.569905    2.130664
    132          1           0      -23.412054   -1.770489    1.001850
    133          1           0      -23.781144   -2.480011    2.587105
    134          1           0      -24.799366    0.318577    2.005092
    135          1           0      -23.100292    0.154179    2.076367
    136          1           0      -31.358700   -2.393596    5.479864
    137          1           0      -30.649302   -3.656671    4.337252
    138          1           0      -32.274178   -3.490446    4.498375
    139          1           0      -35.145529   -0.453808    1.910633
    140          1           0      -34.846974    0.773302    3.198786
    141          1           0      -35.999879   -0.371262    3.560632
    142          1           0      -33.421659    3.085252   -0.130369
    143          1           0      -32.020771    3.130943   -2.833513
    144          1           0      -33.711926    1.842475   -2.802097
    145          1           0      -35.001422    2.529470   -1.705786
    146          1           0      -34.446331    0.972258   -1.450054
    147          1           0      -30.510144    4.747047   -0.843730
    148          1           0      -32.285571    4.969461   -0.732690
    149          1           0      -30.888605    6.709077   -2.206587
    150          1           0      -32.490478    6.019035   -2.645905
    151          1           0      -30.945812    5.309308   -3.345578
    152          1           0      -27.146001    4.117309   -3.506345
    153          1           0      -26.691545    2.897227   -4.703778
    154          1           0      -25.378534    3.592354   -3.736391
    155          1           0      -23.801637   -0.192923   -0.639928
    156          1           0      -22.526087   -3.568119   -3.333656
    157          1           0      -23.195501   -4.183795   -1.827188
    158          1           0      -21.607621   -3.639078   -1.759615
 ---------------------------------------------------------------------

 SCF Done:  E(RPBE1PBE) =  -4067.38280154     A.U. after   16 cycles

 Excitation energies and oscillator strengths:

 Excited State   1:      Singlet-A      1.8697 eV  663.14 nm  f=0.3703  <S**2>=0.000
     309 -> 315       -0.17509
     312 -> 314        0.69203
     312 <- 314       -0.10390
 This state for optimization and/or second-order correction.
 Total Energy, E(TD-HF/TD-DFT) =  -4067.31409287
 Copying the excited state density for this state as the 1-particle RhoCI density.

 Excited State   2:      Singlet-A      1.8847 eV  657.86 nm  f=0.3770  <S**2>=0.000
     310 -> 316       -0.17967
     311 -> 313        0.69118
     311 <- 313       -0.10353

 Excited State   3:      Singlet-A      2.0030 eV  618.98 nm  f=0.0000  <S**2>=0.000
     312 -> 313        0.70711

 Excited State   4:      Singlet-A      2.0913 eV  592.85 nm  f=0.0000  <S**2>=0.000
     311 -> 314        0.70711

 Excited State   5:      Singlet-A      2.2484 eV  551.44 nm  f=0.1082  <S**2>=0.000
     310 -> 313        0.65565
     311 -> 316        0.25370

 The electronic state is 1-A.
 Alpha  occ. eigenvalues --  -46.92344 -46.92121 -19.26454 -19.26404 -19.20631
 Alpha  occ. eigenvalues --  -19.20424 -19.19789 -19.19520 -19.19460 -19.19111
 Alpha  occ. eigenvalues --  -14.42052 -14.41716 -14.41560 -14.40746 -14.39522
 Alpha  occ. eigenvalues --  -14.39010 -14.38838 -14.38774 -10.36964 -10.36800
 Alpha  occ. eigenvalues --  -10.33636 -10.33199 -10.32528 -10.31703 -10.29551
 Alpha  occ. eigenvalues --  -10.29303 -10.29072 -10.29057 -10.28678 -10.28490
 Alpha  occ. eigenvalues --  -10.28451 -10.28432 -10.28431 -10.28225 -10.27959
 Alpha  occ. eigenvalues --  -10.27834 -10.27809 -10.27495 -10.27440 -10.27146
 Alpha  occ. eigenvalues --  -10.27145 -10.26485 -10.26449 -10.26414 -10.26236
 Alpha  occ. eigenvalues --  -10.26208 -10.26196 -10.26111 -10.26090 -10.25926
 Alpha  occ. eigenvalues --  -10.25898 -10.25729 -10.25616 -10.25597 -10.25477
 Alpha  occ. eigenvalues --  -10.25473 -10.25390 -10.25368 -10.25259 -10.25167
 Alpha  occ. eigenvalues --  -10.25085 -10.25011 -10.24966 -10.24662 -10.24649
 Alpha  occ. eigenvalues --  -10.24557 -10.24474 -10.24422 -10.24409 -10.24272
 Alpha  occ. eigenvalues --  -10.24258 -10.24250 -10.24056 -10.23849 -10.23847
 Alpha  occ. eigenvalues --  -10.23527 -10.23523 -10.23497 -10.23383 -10.23279
 Alpha  occ. eigenvalues --  -10.23078 -10.23018 -10.22881 -10.22835 -10.22585
 Alpha  occ. eigenvalues --  -10.22150  -3.14545  -3.14261  -1.87342  -1.87088
 Alpha  occ. eigenvalues --   -1.86936  -1.86771  -1.86650  -1.86471  -1.11597
 Alpha  occ. eigenvalues --   -1.09670  -1.05112  -1.05108  -1.05009  -1.03810
 Alpha  occ. eigenvalues --   -1.03609  -1.01767  -0.99774  -0.98853  -0.98351
 Alpha  occ. eigenvalues --   -0.98174  -0.97980  -0.97215  -0.97017  -0.96483
 Alpha  occ. eigenvalues --   -0.88253  -0.87516  -0.83735  -0.83480  -0.83086
 Alpha  occ. eigenvalues --   -0.82794  -0.82437  -0.82333  -0.81726  -0.81548
 Alpha  occ. eigenvalues --   -0.81124  -0.80632  -0.80445  -0.79806  -0.78820
 Alpha  occ. eigenvalues --   -0.78302  -0.78167  -0.77993  -0.77052  -0.76676
 Alpha  occ. eigenvalues --   -0.75855  -0.75717  -0.75230  -0.75160  -0.74692
 Alpha  occ. eigenvalues --   -0.74417  -0.72737  -0.72516  -0.71926  -0.71499
 Alpha  occ. eigenvalues --   -0.71003  -0.70944  -0.70832  -0.70459  -0.69268
 Alpha  occ. eigenvalues --   -0.69171  -0.66987  -0.66806  -0.66205  -0.66184
 Alpha  occ. eigenvalues --   -0.64390  -0.63641  -0.63621  -0.63333  -0.62831
 Alpha  occ. eigenvalues --   -0.62791  -0.61354  -0.61231  -0.60196  -0.59841
 Alpha  occ. eigenvalues --   -0.59676  -0.59212  -0.59105  -0.58953  -0.58733
 Alpha  occ. eigenvalues --   -0.58591  -0.57105  -0.57028  -0.54781  -0.54538
 Alpha  occ. eigenvalues --   -0.54133  -0.54039  -0.53920  -0.53609  -0.53219
 Alpha  occ. eigenvalues --   -0.53050  -0.52892  -0.52340  -0.51935  -0.51769
 Alpha  occ. eigenvalues --   -0.51061  -0.50660  -0.50190  -0.50133  -0.50067
 Alpha  occ. eigenvalues --   -0.49787  -0.49496  -0.49215  -0.48977  -0.48791
 Alpha  occ. eigenvalues --   -0.48552  -0.48386  -0.47810  -0.47601  -0.47572
 Alpha  occ. eigenvalues --   -0.47298  -0.47175  -0.46945  -0.46829  -0.46735
 Alpha  occ. eigenvalues --   -0.46671  -0.46160  -0.45797  -0.45712  -0.45612
 Alpha  occ. eigenvalues --   -0.45473  -0.45371  -0.45173  -0.44938  -0.44719
 Alpha  occ. eigenvalues --   -0.44550  -0.44535  -0.44169  -0.44046  -0.43941
 Alpha  occ. eigenvalues --   -0.43921  -0.43836  -0.43815  -0.43539  -0.43532
 Alpha  occ. eigenvalues --   -0.43445  -0.43217  -0.42949  -0.42925  -0.42838
 Alpha  occ. eigenvalues --   -0.42540  -0.42165  -0.42094  -0.41785  -0.41780
 Alpha  occ. eigenvalues --   -0.41346  -0.41334  -0.41133  -0.40982  -0.40936
 Alpha  occ. eigenvalues --   -0.40835  -0.40731  -0.40565  -0.40557  -0.40109
 Alpha  occ. eigenvalues --   -0.40077  -0.39842  -0.39752  -0.39740  -0.39528
 Alpha  occ. eigenvalues --   -0.39455  -0.39433  -0.39294  -0.39191  -0.39055
 Alpha  occ. eigenvalues --   -0.38927  -0.38846  -0.38697  -0.38646  -0.38440
 Alpha  occ. eigenvalues --   -0.38176  -0.38034  -0.37972  -0.37809  -0.37762
 Alpha  occ. eigenvalues --   -0.37726  -0.37450  -0.37383  -0.37259  -0.37253
 Alpha  occ. eigenvalues --   -0.37157  -0.37065  -0.36897  -0.36784  -0.36638
 Alpha  occ. eigenvalues --   -0.36502  -0.35964  -0.35595  -0.35526  -0.35235
 Alpha  occ. eigenvalues --   -0.35138  -0.34787  -0.34651  -0.34555  -0.33854
 Alpha  occ. eigenvalues --   -0.33851  -0.33400  -0.32815  -0.32688  -0.32603
 Alpha  occ. eigenvalues --   -0.32515  -0.32256  -0.32082  -0.32054  -0.31805
 Alpha  occ. eigenvalues --   -0.31599  -0.31410  -0.29981  -0.29807  -0.29501
 Alpha  occ. eigenvalues --   -0.29066  -0.28855  -0.28729  -0.26944  -0.26895
 Alpha  occ. eigenvalues --   -0.26203  -0.25975  -0.25886  -0.25744  -0.25613
 Alpha  occ. eigenvalues --   -0.25534  -0.25322  -0.24985  -0.21035  -0.20719
 Alpha  occ. eigenvalues --   -0.18656  -0.18482
 Alpha virt. eigenvalues --   -0.10893  -0.10741  -0.05273  -0.04846  -0.03973
 Alpha virt. eigenvalues --   -0.03782  -0.02390  -0.02106  -0.01166  -0.01026
 Alpha virt. eigenvalues --   -0.00571   0.00552   0.00819   0.01111   0.01343

 Mulliken charges:
               1
     1  Mg  12.000014
     2  C    5.999766
     3  C    6.000163
     4  C    6.000281
     5  C    5.999718
     6  N    7.000037
     7  C    6.000393
     8  C    5.999847
     9  C    6.000152
    10  C    5.999475
    11  C    6.000043
    12  C    5.999942
    13  C    5.999996
    14  H    1.000107
    15  N    7.000067
    16  C    5.999424
    17  C    5.999784
    18  C    5.999642
    19  C    5.999546
    20  C    6.000086
    21  C    5.999833
    22  O    7.999512
    23  C    6.000101
    24  N    6.999921
    25  C    5.999470
    26  C    6.000126
    27  C    5.999845
    28  C    6.000527
    29  C    6.000049
    30  C    5.999956
    31  C    5.999919
    32  N    7.000047
    33  C    6.000496
    34  C    6.000659
    35  C    5.999932
    36  C    6.000545
    37  C    5.999837
    38  C    6.000271
    39  O    8.000470
    40  C    5.999990
    41  C    6.000065
    42  O    8.000094
    43  O    8.000023
    44  C    5.999956
    45  H    0.999848
    46  H    0.999835
    47  H    1.000128
    48  H    1.000028
    49  H    0.999968
    50  H    1.000009
    51  H    0.999988
    52  H    0.999798
    53  H    1.000106
    54  H    0.999890
    55  H    0.999984
    56  H    1.000086
    57  H    0.999701
    58  H    0.999707
    59  H    0.999708
    60  H    0.999836
    61  H    0.999746
    62  H    0.999882
    63  H    1.000019
    64  H    1.000092
    65  H    1.000115
    66  H    0.999870
    67  H    0.999887
    68  H    1.000125
    69  H    0.999957
    70  H    0.999873
    71  H    1.000146
    72  H    1.000068
    73  H    1.000355
    74  H    1.000451
    75  H    1.000277
    76  H    1.000163
    77  H    1.000087
    78  H    1.000046
    79  H    1.000099
    80  Mg  11.997146
    81  C    6.015189
    82  C    5.989666
    83  C    5.978646
    84  C    6.014113
    85  N    7.003878
    86  C    5.968525
    87  C    6.010984
    88  C    5.989197
    89  C    6.035749
    90  C    5.996448
    91  C    6.000914
    92  C    6.002579
    93  H    0.985850
    94  N    6.994203
    95  C    6.040048
    96  C    6.019515
    97  C    6.012032
    98  C    6.038186
    99  C    5.995864
   100  C    6.010614
   101  O    8.016805
   102  C    6.000145
   103  N    6.998788
   104  C    6.034595
   105  C    5.992506
   106  C    6.012212
   107  C    5.966840
   108  C    5.996358
   109  C    6.004534
   110  C    6.000397
   111  N    7.000945
   112  C    5.961572
   113  C    5.973426
   114  C    5.995387
   115  C    5.972151
   116  C    5.999117
   117  C    5.980557
   118  O    7.971861
   119  C    5.999874
   120  C    5.996630
   121  O    7.993441
   122  O    7.998198
   123  C    6.003739
   124  H    1.010647
   125  H    1.007371
   126  H    0.992686
   127  H    1.000048
   128  H    1.003981
   129  H    1.005194
   130  H    1.012245
   131  H    0.993978
   132  H    1.005311
   133  H    0.991865
   134  H    1.004757
   135  H    1.002378
   136  H    1.018840
   137  H    1.015646
   138  H    1.014622
   139  H    1.007132
   140  H    1.009420
   141  H    1.011715
   142  H    0.998870
   143  H    0.998786
   144  H    1.010270
   145  H    1.004449
   146  H    0.995119
   147  H    1.001782
   148  H    0.987944
   149  H    0.998798
   150  H    0.994224
   151  H    1.004134
   152  H    0.984434
   153  H    0.982097
   154  H    0.985772
   155  H    0.990276
   156  H    0.997467
   157  H    0.993227
   158  H    0.995097
 Sum of Mulliken charges = 624.00000

 Dipole moment (field-independent basis, Debye):
    X=             -6.9225    Y=             -3.7532    Z=              6.5141  Tot=             10.2197
 Quadrupole moment (field-independent basis, Debye-Ang):
   XX=            383.3686   YY=             -2.0691   ZZ=              3.4322
   XY=            114.2487   XZ=           -193.9561   YZ=             -1.2656

 Normal termination of Gaussian 16 at Thu Oct 14 02:18:35 2021.
