 Gaussian 16, Revision A.03,
 Gaussian 16:  ES64L-G16RevA.03 25-Dec-2016

 --------------------------------------------------------
 #p PBE1PBE/Def2SVP td=(nstates=5) density=(transition=1)
 --------------------------------------------------------

 --------------------------------
 TDDFT excited states in gaussian
 --------------------------------
 Symbolic Z-matrix:
 Charge =  0 Multiplicity = 1

                         Standard orientation:
 ---------------------------------------------------------------------
 Center     Atomic      Atomic             Coordinates (Angstroms)
 Number     Number       Type             X           Y           Z
 ---------------------------------------------------------------------
      1         12           0       25.012017   -0.369177   -0.678633
      2          6           0       23.377602    1.343918    2.012760
      3          6           0       25.275544   -3.024533    1.234799
      4          6           0       27.173427   -1.463310   -2.940405
      5          6           0       24.914207    2.852592   -2.450461
      6          7           0       24.347994   -0.791042    1.374995
      7          6           0       23.727379    0.040797    2.328109
      8          6           0       23.461400   -0.665232    3.711191
      9          6           0       24.070269   -2.150970    3.332387
     10          6           0       24.591762   -2.030757    1.903893
     11          6           0       25.233578   -2.595423    4.319114
     12          6           0       21.976144   -0.644499    4.214720
     13          6           0       21.632856   -1.650017    5.307305
     14          1           0       21.275654   -1.023988    6.667847
     15          7           0       26.002175   -2.069624   -0.872285
     16          6           0       26.012739   -3.134208   -0.001961
     17          6           0       26.809445   -4.239428   -0.491441
     18          6           0       27.351229   -3.747662   -1.744541
     19          6           0       26.767924   -2.370543   -1.924262
     20          6           0       26.950236   -5.553251    0.120461
     21          6           0       28.262429   -4.431135   -2.749259
     22          8           0       28.554120   -3.967832   -3.816023
     23          6           0       28.864978   -5.726192   -2.273118
     24          7           0       25.970581    0.588142   -2.420708
     25          6           0       26.810848   -0.137290   -3.200966
     26          6           0       27.253739    0.676041   -4.446539
     27          6           0       26.402458    1.986220   -4.311317
     28          6           0       25.665610    1.793431   -2.999876
     29          6           0       28.781096    0.971401   -4.632394
     30          6           0       25.388123    2.275127   -5.473590
     31          6           0       26.059969    2.833571   -6.747548
     32          7           0       24.349050    1.670516   -0.360987
     33          6           0       24.304917    2.791225   -1.157900
     34          6           0       23.589739    3.802647   -0.486835
     35          6           0       23.255778    3.352810    0.735318
     36          6           0       23.754189    2.017506    0.821052
     37          6           0       23.251298    5.118848   -1.174591
     38          6           0       22.659066    3.619872    2.047907
     39          8           0       22.144734    4.616447    2.485988
     40          6           0       22.752693    2.287763    2.934265
     41          6           0       23.723872    2.558243    4.038807
     42          8           0       24.928661    2.457283    4.096486
     43          8           0       22.938229    2.939031    5.108569
     44          6           0       23.636056    3.256913    6.377125
     45          1           0       25.457679   -3.934271    1.810491
     46          1           0       27.997069   -1.821781   -3.562506
     47          1           0       24.877729    3.692933   -3.147586
     48          1           0       24.148843   -0.234103    4.439150
     49          1           0       23.267148   -2.879511    3.445844
     50          1           0       25.087931   -3.637836    4.601999
     51          1           0       25.416213   -2.010814    5.220371
     52          1           0       26.184100   -2.633106    3.787846
     53          1           0       21.458347   -0.792558    3.266161
     54          1           0       21.553542    0.304420    4.545690
     55          1           0       22.483407   -2.314076    5.458624
     56          1           0       20.705060   -2.153395    5.036860
     57          1           0       26.462236   -6.156191   -0.645287
     58          1           0       26.476446   -5.583188    1.101768
     59          1           0       27.956168   -5.950404    0.254848
     60          1           0       28.241901   -6.556536   -2.605121
     61          1           0       29.291266   -5.668253   -1.271188
     62          1           0       29.859536   -5.706694   -2.717846
     63          1           0       26.762829    0.187661   -5.288847
     64          1           0       27.070960    2.822114   -4.104005
     65          1           0       29.067533    2.022279   -4.682900
     66          1           0       29.018529    0.616207   -5.634924
     67          1           0       29.437793    0.525561   -3.885357
     68          1           0       24.666835    3.021992   -5.143770
     69          1           0       24.868619    1.329034   -5.631895
     70          1           0       27.024949    3.278983   -6.504858
     71          1           0       25.349359    3.543824   -7.170081
     72          1           0       26.301714    2.076211   -7.493846
     73          1           0       22.350939    5.564580   -0.751627
     74          1           0       23.149731    4.938540   -2.244814
     75          1           0       24.098449    5.803050   -1.121715
     76          1           0       21.775225    1.982453    3.308441
     77          1           0       23.115893    4.123434    6.785190
     78          1           0       24.695513    3.485307    6.261946
     79          1           0       23.434043    2.334478    6.922440
     80         12           0      -25.563016    0.356821    0.156059
     81          6           0      -23.470238   -2.420029    0.103203
     82          6           0      -22.750452    2.330358    0.623303
     83          6           0      -27.342984    3.100950   -0.320050
     84          6           0      -28.211067   -1.653442   -0.805815
     85          7           0      -23.365276    0.025638    0.179572
     86          6           0      -22.749983   -1.205205    0.281227
     87          6           0      -21.285678   -1.100588    0.589726
     88          6           0      -21.177099    0.396136    1.122002
     89          6           0      -22.474710    0.990470    0.590749
     90          6           0      -20.781327    0.733219    2.637533
     91          6           0      -20.303241   -1.492010   -0.609281
     92          6           0      -20.780844   -1.198564   -2.062630
     93          1           0      -19.706693   -0.648696   -2.970069
     94          7           0      -25.098859    2.440321    0.033131
     95          6           0      -23.862386    3.051748    0.275021
     96          6           0      -23.929529    4.473778    0.077626
     97          6           0      -25.285552    4.738824   -0.229023
     98          6           0      -25.993338    3.423963   -0.217400
     99          6           0      -22.750657    5.363796    0.474570
    100          6           0      -25.799791    6.176581   -0.468909
    101          8           0      -25.038196    7.148574   -0.500003
    102          6           0      -27.256986    6.325166   -0.601714
    103          7           0      -27.471009    0.618439   -0.595305
    104          6           0      -28.056807    1.861149   -0.422122
    105          6           0      -29.579709    1.850605   -0.679740
    106          6           0      -29.735560    0.321453   -1.061302
    107          6           0      -28.411591   -0.271569   -0.865242
    108          6           0      -30.512599    2.281439    0.407706
    109          6           0      -30.196695    0.099440   -2.589861
    110          6           0      -31.309226   -0.912362   -2.679382
    111          7           0      -25.898139   -1.684672   -0.093465
    112          6           0      -27.039522   -2.356468   -0.490247
    113          6           0      -26.764527   -3.808866   -0.578181
    114          6           0      -25.347180   -3.880641   -0.344133
    115          6           0      -24.905496   -2.581148   -0.069303
    116          6           0      -27.600671   -4.912422   -1.085997
    117          6           0      -24.136925   -4.729477   -0.321193
    118          8           0      -24.017959   -5.901966   -0.592310
    119          6           0      -22.899222   -3.833329    0.005677
    120          6           0      -22.202093   -4.341446    1.187768
    121          8           0      -21.053664   -4.769108    1.307060
    122          8           0      -23.187648   -4.542520    2.189500
    123          6           0      -22.677211   -5.004330    3.498123
    124          1           0      -21.893344    2.880606    1.018368
    125          1           0      -28.065187    3.919720   -0.304100
    126          1           0      -29.124634   -2.203900   -1.037450
    127          1           0      -21.014898   -1.804451    1.376640
    128          1           0      -20.367994    0.767417    0.492531
    129          1           0      -20.499675   -0.119310    3.255314
    130          1           0      -21.591290    1.179698    3.214201
    131          1           0      -19.851609    1.302784    2.646350
    132          1           0      -19.985596   -2.530390   -0.520454
    133          1           0      -19.378651   -0.943444   -0.429692
    134          1           0      -21.637561   -0.523993   -2.057705
    135          1           0      -21.119632   -2.121558   -2.532359
    136          1           0      -22.658063    6.267074   -0.129263
    137          1           0      -21.820118    4.832275    0.277092
    138          1           0      -22.928520    5.642461    1.513497
    139          1           0      -27.712967    6.142410    0.370858
    140          1           0      -27.627554    5.647280   -1.371283
    141          1           0      -27.407240    7.364780   -0.892652
    142          1           0      -29.752444    2.368544   -1.623428
    143          1           0      -30.345575   -0.060749   -0.242848
    144          1           0      -31.509064    1.990709    0.074683
    145          1           0      -30.518562    3.371440    0.408100
    146          1           0      -30.206759    1.856565    1.364498
    147          1           0      -29.302758   -0.195641   -3.139166
    148          1           0      -30.475554    0.987489   -3.158464
    149          1           0      -30.908877   -1.805717   -3.158091
    150          1           0      -32.061750   -0.637704   -3.419299
    151          1           0      -31.614372   -1.215103   -1.677924
    152          1           0      -28.604190   -4.636853   -1.413601
    153          1           0      -27.738281   -5.591468   -0.245250
    154          1           0      -27.056387   -5.164388   -1.995922
    155          1           0      -22.273583   -3.899952   -0.884092
    156          1           0      -23.220807   -4.360214    4.190244
    157          1           0      -21.616318   -4.944708    3.741292
    158          1           0      -23.152768   -5.974283    3.644685
 ---------------------------------------------------------------------

 SCF Done:  E(RPBE1PBE) =  -4067.38597240     A.U. after   16 cycles

 Excitation energies and oscillator strengths:

 Excited State   1:      Singlet-A      1.8601 eV  666.54 nm  f=0.3708  <S**2>=0.000
     310 -> 316       -0.16834
     312 -> 314        0.69318
     312 <- 314       -0.10828
 This state for optimization and/or second-order correction.
 Total Energy, E(TD-HF/TD-DFT) =  -4067.31761435
 Copying the excited state density for this state as the 1-particle RhoCI density.

 Excited State   2:      Singlet-A      1.8711 eV  662.62 nm  f=0.3717  <S**2>=0.000
     309 -> 315       -0.17699
     311 -> 313        0.68974
     311 <- 313       -0.10396

 Excited State   3:      Singlet-A      1.9475 eV  636.64 nm  f=0.0000  <S**2>=0.000
     312 -> 313        0.70711

 Excited State   4:      Singlet-A      2.0812 eV  595.74 nm  f=0.0000  <S**2>=0.000
     311 -> 314        0.70711

 Excited State   5:      Singlet-A      2.2140 eV  560.00 nm  f=0.0899  <S**2>=0.000
     309 -> 313        0.64343
     311 -> 315        0.27387

 The electronic state is 1-A.
 Alpha  occ. eigenvalues --  -46.92495 -46.91974 -19.25016 -19.24477 -19.20759
 Alpha  occ. eigenvalues --  -19.20063 -19.19273 -19.19173 -19.19158 -19.19107
 Alpha  occ. eigenvalues --  -14.41751 -14.41687 -14.41681 -14.40855 -14.39260
 Alpha  occ. eigenvalues --  -14.39243 -14.38886 -14.38501 -10.36738 -10.35918
 Alpha  occ. eigenvalues --  -10.32393 -10.32351 -10.32171 -10.31881 -10.29328
 Alpha  occ. eigenvalues --  -10.28962 -10.28658 -10.28590 -10.28526 -10.28393
 Alpha  occ. eigenvalues --  -10.28265 -10.28251 -10.28098 -10.27953 -10.27945
 Alpha  occ. eigenvalues --  -10.27900 -10.27843 -10.27807 -10.26924 -10.26853
 Alpha  occ. eigenvalues --  -10.26778 -10.26723 -10.26717 -10.26671 -10.26467
 Alpha  occ. eigenvalues --  -10.26428 -10.26343 -10.26292 -10.26177 -10.26035
 Alpha  occ. eigenvalues --  -10.25983 -10.25921 -10.25876 -10.25734 -10.25568
 Alpha  occ. eigenvalues --  -10.25492 -10.25327 -10.24949 -10.24851 -10.24761
 Alpha  occ. eigenvalues --  -10.24743 -10.24693 -10.24680 -10.24600 -10.24574
 Alpha  occ. eigenvalues --  -10.24544 -10.24422 -10.24420 -10.24414 -10.24413
 Alpha  occ. eigenvalues --  -10.24378 -10.24363 -10.24361 -10.23695 -10.23640
 Alpha  occ. eigenvalues --  -10.23621 -10.23372 -10.23342 -10.23272 -10.23246
 Alpha  occ. eigenvalues --  -10.23218 -10.23210 -10.23008 -10.23000 -10.22994
 Alpha  occ. eigenvalues --  -10.22377  -3.14601  -3.14096  -1.87425  -1.86990
 Alpha  occ. eigenvalues --   -1.86932  -1.86816  -1.86450  -1.86342  -1.10390
 Alpha  occ. eigenvalues --   -1.09541  -1.06118  -1.05508  -1.05186  -1.04025
 Alpha  occ. eigenvalues --   -1.02235  -1.01725  -0.99688  -0.98454  -0.98358
 Alpha  occ. eigenvalues --   -0.97977  -0.97843  -0.97113  -0.96964  -0.96187
 Alpha  occ. eigenvalues --   -0.87332  -0.86824  -0.83955  -0.83518  -0.83208
 Alpha  occ. eigenvalues --   -0.82521  -0.82289  -0.82280  -0.81951  -0.81469
 Alpha  occ. eigenvalues --   -0.81249  -0.81175  -0.80433  -0.80359  -0.79037
 Alpha  occ. eigenvalues --   -0.78765  -0.78178  -0.77448  -0.76952  -0.76577
 Alpha  occ. eigenvalues --   -0.76428  -0.76212  -0.75192  -0.75028  -0.74499
 Alpha  occ. eigenvalues --   -0.74411  -0.72689  -0.72416  -0.71781  -0.71277
 Alpha  occ. eigenvalues --   -0.71095  -0.70909  -0.70511  -0.70095  -0.69828
 Alpha  occ. eigenvalues --   -0.69186  -0.67191  -0.67114  -0.66580  -0.65719
 Alpha  occ. eigenvalues --   -0.63945  -0.63748  -0.63665  -0.63109  -0.62584
 Alpha  occ. eigenvalues --   -0.62176  -0.61423  -0.61247  -0.60865  -0.59511
 Alpha  occ. eigenvalues --   -0.59369  -0.59123  -0.59076  -0.58798  -0.58548
 Alpha  occ. eigenvalues --   -0.58444  -0.57074  -0.55998  -0.54794  -0.54618
 Alpha  occ. eigenvalues --   -0.54055  -0.53980  -0.53542  -0.53341  -0.52894
 Alpha  occ. eigenvalues --   -0.52651  -0.52478  -0.52115  -0.51774  -0.51512
 Alpha  occ. eigenvalues --   -0.50891  -0.50687  -0.50362  -0.50146  -0.49905
 Alpha  occ. eigenvalues --   -0.49640  -0.49578  -0.49113  -0.49000  -0.48806
 Alpha  occ. eigenvalues --   -0.48509  -0.48381  -0.48250  -0.47607  -0.47288
 Alpha  occ. eigenvalues --   -0.47259  -0.47025  -0.46936  -0.46721  -0.46511
 Alpha  occ. eigenvalues --   -0.46491  -0.46259  -0.46227  -0.45908  -0.45720
 Alpha  occ. eigenvalues --   -0.45456  -0.45389  -0.45113  -0.45060  -0.44813
 Alpha  occ. eigenvalues --   -0.44785  -0.44410  -0.44299  -0.44224  -0.44209
 Alpha  occ. eigenvalues --   -0.44044  -0.43881  -0.43744  -0.43487  -0.43390
 Alpha  occ. eigenvalues --   -0.43186  -0.43063  -0.42942  -0.42789  -0.42639
 Alpha  occ. eigenvalues --   -0.42468  -0.42404  -0.42398  -0.41897  -0.41751
 Alpha  occ. eigenvalues --   -0.41646  -0.41410  -0.41244  -0.41002  -0.40978
 Alpha  occ. eigenvalues --   -0.40926  -0.40570  -0.40462  -0.40391  -0.40210
 Alpha  occ. eigenvalues --   -0.40148  -0.39977  -0.39905  -0.39889  -0.39805
 Alpha  occ. eigenvalues --   -0.39758  -0.39705  -0.39615  -0.39515  -0.39474
 Alpha  occ. eigenvalues --   -0.39410  -0.38734  -0.38717  -0.38631  -0.38276
 Alpha  occ. eigenvalues --   -0.38267  -0.37994  -0.37952  -0.37835  -0.37687
 Alpha  occ. eigenvalues --   -0.37616  -0.37412  -0.37329  -0.36999  -0.36909
 Alpha  occ. eigenvalues --   -0.36778  -0.36712  -0.36599  -0.36521  -0.36429
 Alpha  occ. eigenvalues --   -0.36094  -0.35924  -0.35770  -0.35605  -0.35350
 Alpha  occ. eigenvalues --   -0.35330  -0.34867  -0.34335  -0.34057  -0.33773
 Alpha  occ. eigenvalues --   -0.33516  -0.33085  -0.32962  -0.32759  -0.32441
 Alpha  occ. eigenvalues --   -0.32064  -0.31954  -0.31602  -0.31480  -0.31412
 Alpha  occ. eigenvalues --   -0.30644  -0.30565  -0.30305  -0.29710  -0.29387
 Alpha  occ. eigenvalues --   -0.29110  -0.28889  -0.28243  -0.26914  -0.26852
 Alpha  occ. eigenvalues --   -0.25887  -0.25762  -0.25750  -0.25740  -0.25531
 Alpha  occ. eigenvalues --   -0.25466  -0.25343  -0.25339  -0.21002  -0.20553
 Alpha  occ. eigenvalues --   -0.18869  -0.18581
 Alpha virt. eigenvalues --   -0.11163  -0.10960  -0.05714  -0.04704  -0.03533
 Alpha virt. eigenvalues --   -0.03294  -0.01957  -0.01758  -0.01112  -0.00505
 Alpha virt. eigenvalues --   -0.00219   0.00797   0.00835   0.01422   0.02017

 Mulliken charges:
               1
     1  Mg  11.998911
     2  C    6.023893
     3  C    5.994750
     4  C    5.983067
     5  C    6.007790
     6  N    7.010235
     7  C    5.969558
     8  C    6.015197
     9  C    5.986642
    10  C    6.026725
    11  C    5.999677
    12  C    6.002709
    13  C    5.998316
    14  H    1.000391
    15  N    6.995552
    16  C    6.038101
    17  C    6.016831
    18  C    6.018208
    19  C    6.027822
    20  C    5.995643
    21  C    6.014824
    22  O    8.029684
    23  C    5.991363
    24  N    6.997975
    25  C    6.032596
    26  C    5.988438
    27  C    6.009395
    28  C    5.970428
    29  C    5.999497
    30  C    6.006506
    31  C    5.998069
    32  N    7.000411
    33  C    5.968852
    34  C    5.971789
    35  C    5.999949
    36  C    5.961732
    37  C    6.000621
    38  C    5.980929
    39  O    7.971241
    40  C    5.994381
    41  C    6.000089
    42  O    7.991597
    43  O    7.999070
    44  C    6.001789
    45  H    1.009574
    46  H    1.004549
    47  H    0.989265
    48  H    0.995546
    49  H    1.004347
    50  H    1.000140
    51  H    1.011370
    52  H    0.994376
    53  H    0.998358
    54  H    1.005003
    55  H    0.993135
    56  H    0.997853
    57  H    1.016659
    58  H    1.016941
    59  H    1.018461
    60  H    1.010514
    61  H    1.006769
    62  H    1.014308
    63  H    0.999911
    64  H    1.000459
    65  H    1.008555
    66  H    1.000550
    67  H    0.995307
    68  H    1.005330
    69  H    0.991290
    70  H    0.997226
    71  H    0.999929
    72  H    0.993182
    73  H    0.986166
    74  H    0.983720
    75  H    0.980048
    76  H    0.991723
    77  H    0.997493
    78  H    0.996832
    79  H    0.993868
    80  Mg  11.999961
    81  C    6.000552
    82  C    5.999756
    83  C    5.999218
    84  C    6.000151
    85  N    7.000140
    86  C    5.999195
    87  C    6.000260
    88  C    5.999714
    89  C    6.000767
    90  C    5.999884
    91  C    6.000039
    92  C    6.000104
    93  H    0.999858
    94  N    6.999910
    95  C    6.000877
    96  C    6.000455
    97  C    6.000277
    98  C    6.000959
    99  C    5.999910
   100  C    6.000344
   101  O    8.000478
   102  C    5.999872
   103  N    6.999946
   104  C    6.000977
   105  C    5.999622
   106  C    6.000245
   107  C    5.999244
   108  C    5.999948
   109  C    6.000103
   110  C    6.000014
   111  N    6.999991
   112  C    5.999237
   113  C    5.999258
   114  C    5.999918
   115  C    5.999334
   116  C    6.000108
   117  C    5.999597
   118  O    7.999343
   119  C    5.999959
   120  C    5.999818
   121  O    7.999790
   122  O    8.000137
   123  C    6.000053
   124  H    1.000331
   125  H    1.000151
   126  H    0.999707
   127  H    1.000010
   128  H    1.000155
   129  H    1.000320
   130  H    0.999992
   131  H    1.000119
   132  H    1.000091
   133  H    0.999841
   134  H    0.999819
   135  H    1.000141
   136  H    1.000380
   137  H    1.000372
   138  H    1.000430
   139  H    1.000215
   140  H    1.000232
   141  H    1.000305
   142  H    1.000039
   143  H    0.999963
   144  H    1.000186
   145  H    0.999881
   146  H    1.000100
   147  H    1.000008
   148  H    0.999705
   149  H    1.000076
   150  H    0.999855
   151  H    0.999980
   152  H    0.999556
   153  H    0.999564
   154  H    0.999611
   155  H    0.999842
   156  H    0.999887
   157  H    0.999860
   158  H    0.999955
 Sum of Mulliken charges = 624.00000

 Dipole moment (field-independent basis, Debye):
    X=              4.4883    Y=             -9.0976    Z=             -1.4862  Tot=             10.2528
 Quadrupole moment (field-independent basis, Debye-Ang):
   XX=            222.0812   YY=              5.0736   ZZ=             -3.0889
   XY=           -243.8487   XZ=            -41.1991   YZ=              5.0572

 Normal termination of Gaussian 16 at Thu Oct 14 13:24:43 2021.
