 Gaussian 16, Revision A.03,
 Gaussian 16:  ES64L-G16RevA.03 25-Dec-2016

 --------------------------------------------------------
 #p PBE1PBE/Def2SVP td=(nstates=5) density=(transition=1)
 --------------------------------------------------------

 --------------------------------
 TDDFT excited states in gaussian
 --------------------------------
 Symbolic Z-matrix:
 Charge =  0 Multiplicity = 1

                         Standard orientation:
 ---------------------------------------------------------------------
 Center     Atomic      Atomic             Coordinates (Angstroms)
 Number     Number       Type             X           Y           Z
 ---------------------------------------------------------------------
      1         12           0       28.183122    0.563969    0.647009
      2          6           0       28.799618   -2.536587   -0.827649
      3          6           0       26.257545    1.411920   -1.931752
      4          6           0       28.755463    3.835362    1.456644
      5          6           0       30.248003   -0.350787    3.299509
      6          7           0       27.456257   -0.529237   -1.116226
      7          6           0       27.825032   -1.751072   -1.481345
      8          6           0       26.975091   -2.189117   -2.728528
      9          6           0       26.263243   -0.870922   -3.116289
     10          6           0       26.687251    0.092554   -2.011833
     11          6           0       26.774083   -0.234241   -4.502728
     12          6           0       25.933299   -3.368467   -2.461822
     13          6           0       25.897154   -4.354861   -3.578346
     14          1           0       24.561396   -4.738928   -4.195990
     15          7           0       27.560348    2.360686   -0.128330
     16          6           0       26.730863    2.509082   -1.208204
     17          6           0       26.253852    3.898557   -1.245054
     18          6           0       26.992867    4.596160   -0.249200
     19          6           0       27.857324    3.579949    0.373561
     20          6           0       25.235982    4.424346   -2.306904
     21          6           0       26.980999    6.118366    0.084791
     22          8           0       27.653321    6.633912    0.970820
     23          6           0       26.080474    6.994780   -0.700835
     24          7           0       29.318842    1.577639    2.086398
     25          6           0       29.478300    2.960171    2.220209
     26          6           0       30.589945    3.255824    3.260763
     27          6           0       30.536426    1.978180    4.208176
     28          6           0       29.982388    1.023690    3.112683
     29          6           0       31.957464    3.572205    2.618003
     30          6           0       29.616435    2.040118    5.394250
     31          6           0       28.138326    1.837938    5.239556
     32          7           0       29.157433   -1.135150    1.302258
     33          6           0       29.992543   -1.368465    2.370341
     34          6           0       30.497143   -2.743451    2.382234
     35          6           0       30.131085   -3.246221    1.053282
     36          6           0       29.325720   -2.199092    0.457299
     37          6           0       31.377270   -3.328366    3.363709
     38          6           0       30.253606   -4.355635    0.115464
     39          8           0       30.864178   -5.357552    0.147041
     40          6           0       29.306680   -3.952236   -1.131425
     41          6           0       29.949798   -4.130802   -2.483486
     42          8           0       30.562914   -3.261876   -3.096456
     43          8           0       29.646440   -5.408152   -2.953593
     44          6           0       30.155037   -5.783652   -4.285295
     45          1           0       25.469581    1.797874   -2.582389
     46          1           0       28.905096    4.900601    1.646611
     47          1           0       30.804543   -0.601762    4.204495
     48          1           0       27.602051   -2.466605   -3.576257
     49          1           0       25.181223   -0.923211   -3.236976
     50          1           0       26.118064   -0.618103   -5.284267
     51          1           0       27.776891   -0.529616   -4.810247
     52          1           0       26.659514    0.848206   -4.434484
     53          1           0       24.918942   -2.989694   -2.335382
     54          1           0       26.088010   -3.933391   -1.542460
     55          1           0       26.241458   -5.273278   -3.103667
     56          1           0       26.551010   -4.183745   -4.433043
     57          1           0       25.839642    4.772634   -3.144523
     58          1           0       24.573245    5.181976   -1.888027
     59          1           0       24.691229    3.636675   -2.828489
     60          1           0       25.955249    6.869901   -1.776278
     61          1           0       26.376769    8.035202   -0.569619
     62          1           0       25.125497    7.082038   -0.181872
     63          1           0       30.202189    4.117152    3.803936
     64          1           0       31.521629    1.696221    4.579199
     65          1           0       32.805425    2.976196    2.955455
     66          1           0       32.185285    4.637591    2.577309
     67          1           0       31.922767    3.355569    1.550458
     68          1           0       29.667784    2.974309    5.952185
     69          1           0       29.946406    1.283399    6.106151
     70          1           0       28.026883    0.778148    5.468045
     71          1           0       27.739077    1.986819    4.236054
     72          1           0       27.612823    2.462533    5.962655
     73          1           0       31.068403   -4.370020    3.453080
     74          1           0       31.188346   -2.817549    4.307563
     75          1           0       32.410749   -3.273479    3.023067
     76          1           0       28.442625   -4.615937   -1.099311
     77          1           0       31.227626   -5.587788   -4.281001
     78          1           0       29.713282   -5.157503   -5.060022
     79          1           0       30.007356   -6.799768   -4.651456
     80         12           0      -29.351168   -0.185930   -0.087015
     81          6           0      -25.953306    0.139521   -0.948445
     82          6           0      -28.368654   -2.749655    2.047416
     83          6           0      -32.445322   -0.300828    1.139596
     84          6           0      -29.901403    2.918392   -1.537469
     85          7           0      -27.312980   -1.044624    0.567039
     86          6           0      -26.059233   -0.872894    0.013397
     87          6           0      -25.048711   -1.950149    0.347162
     88          6           0      -25.833618   -2.891434    1.291693
     89          6           0      -27.245661   -2.221284    1.344245
     90          6           0      -25.888115   -4.399003    0.813340
     91          6           0      -23.690662   -1.466138    1.026557
     92          6           0      -23.740645   -0.226421    1.934416
     93          1           0      -23.682501   -0.437080    3.476434
     94          7           0      -30.254178   -1.345228    1.351143
     95          6           0      -29.710556   -2.373453    2.067353
     96          6           0      -30.750352   -3.025471    2.875856
     97          6           0      -31.965145   -2.318904    2.619431
     98          6           0      -31.567770   -1.244624    1.658402
     99          6           0      -30.492044   -4.233544    3.768383
    100          6           0      -33.263646   -2.711755    3.417982
    101          8           0      -33.172598   -3.592800    4.261500
    102          6           0      -34.615718   -1.914245    3.187933
    103          7           0      -30.869714    1.164771   -0.085369
    104          6           0      -32.147812    0.832066    0.357593
    105          6           0      -33.214617    2.004180   -0.030358
    106          6           0      -32.228397    3.066078   -0.762456
    107          6           0      -30.930791    2.324713   -0.796102
    108          6           0      -34.372768    1.486755   -0.933415
    109          6           0      -32.081852    4.470182   -0.033582
    110          6           0      -32.302401    5.756468   -0.844649
    111          7           0      -28.220008    1.228577   -1.172717
    112          6           0      -28.541372    2.452767   -1.700671
    113          6           0      -27.326312    3.035279   -2.308337
    114          6           0      -26.310621    2.060558   -2.116724
    115          6           0      -26.923527    1.012644   -1.374522
    116          6           0      -27.181537    4.377902   -2.969574
    117          6           0      -24.869184    1.827224   -2.325655
    118          8           0      -23.999993    2.440869   -2.961899
    119          6           0      -24.648835    0.446220   -1.726424
    120          6           0      -24.270045   -0.525455   -2.696254
    121          8           0      -25.110259   -1.070128   -3.458275
    122          8           0      -22.887912   -0.794691   -2.645558
    123          6           0      -22.365805   -1.884871   -3.463289
    124          1           0      -28.152527   -3.665885    2.600242
    125          1           0      -33.501666   -0.401783    1.395640
    126          1           0      -30.171139    3.859514   -2.020269
    127          1           0      -24.840916   -2.387648   -0.628586
    128          1           0      -25.419669   -2.718027    2.284351
    129          1           0      -25.293878   -5.014992    1.488221
    130          1           0      -25.474171   -4.407160   -0.195325
    131          1           0      -26.908673   -4.783172    0.822391
    132          1           0      -23.100541   -1.202368    0.147982
    133          1           0      -23.221858   -2.313252    1.527802
    134          1           0      -24.631884    0.366346    1.725784
    135          1           0      -22.926784    0.436788    1.644346
    136          1           0      -30.432051   -4.010223    4.833596
    137          1           0      -29.686348   -4.850231    3.369875
    138          1           0      -31.295690   -4.963325    3.671604
    139          1           0      -34.761200   -1.846858    2.109521
    140          1           0      -34.492930   -0.930409    3.640020
    141          1           0      -35.453755   -2.282225    3.779865
    142          1           0      -33.698254    2.285981    0.904468
    143          1           0      -32.584925    3.173217   -1.787162
    144          1           0      -34.091655    1.683820   -1.967730
    145          1           0      -35.343112    1.897637   -0.654414
    146          1           0      -34.576525    0.421133   -0.829674
    147          1           0      -31.099564    4.471937    0.439955
    148          1           0      -32.869440    4.402967    0.716933
    149          1           0      -31.850273    6.625418   -0.365729
    150          1           0      -33.389215    5.835452   -0.858441
    151          1           0      -31.844196    5.542563   -1.810483
    152          1           0      -27.959790    4.984107   -2.506746
    153          1           0      -27.476523    4.161600   -3.996347
    154          1           0      -26.171817    4.789507   -2.973356
    155          1           0      -23.841733    0.646313   -1.022035
    156          1           0      -22.426218   -1.773161   -4.545898
    157          1           0      -22.863444   -2.818558   -3.199571
    158          1           0      -21.356606   -2.082056   -3.101345
 ---------------------------------------------------------------------

 SCF Done:  E(RPBE1PBE) =  -4067.37683169     A.U. after   16 cycles

 Excitation energies and oscillator strengths:

 Excited State   1:      Singlet-A      1.8400 eV  673.84 nm  f=0.3616  <S**2>=0.000
     310 -> 316        0.17094
     312 -> 313        0.69451
     312 <- 313       -0.11329
 This state for optimization and/or second-order correction.
 Total Energy, E(TD-HF/TD-DFT) =  -4067.30921465
 Copying the excited state density for this state as the 1-particle RhoCI density.

 Excited State   2:      Singlet-A      1.8697 eV  663.13 nm  f=0.3692  <S**2>=0.000
     309 -> 315       -0.17523
     311 -> 314        0.69210
     311 <- 314       -0.10391

 Excited State   3:      Singlet-A      1.9966 eV  620.99 nm  f=0.0000  <S**2>=0.000
     311 -> 313        0.70711

 Excited State   4:      Singlet-A      2.0250 eV  612.26 nm  f=0.0000  <S**2>=0.000
     312 -> 314        0.70711

 Excited State   5:      Singlet-A      2.2623 eV  548.04 nm  f=0.1058  <S**2>=0.000
     310 -> 313        0.64523
     312 -> 316       -0.27978

 The electronic state is 1-A.
 Alpha  occ. eigenvalues --  -46.92367 -46.91336 -19.26430 -19.25618 -19.20450
 Alpha  occ. eigenvalues --  -19.20230 -19.19810 -19.19762 -19.19485 -19.19461
 Alpha  occ. eigenvalues --  -14.42075 -14.41739 -14.41628 -14.41024 -14.39544
 Alpha  occ. eigenvalues --  -14.39033 -14.38927 -14.38909 -10.36990 -10.36614
 Alpha  occ. eigenvalues --  -10.33658 -10.32833 -10.32553 -10.32532 -10.29574
 Alpha  occ. eigenvalues --  -10.29330 -10.29095 -10.29012 -10.28965 -10.28474
 Alpha  occ. eigenvalues --  -10.28455 -10.28455 -10.28393 -10.28293 -10.27982
 Alpha  occ. eigenvalues --  -10.27827 -10.27652 -10.27463 -10.27356 -10.27225
 Alpha  occ. eigenvalues --  -10.27167 -10.27128 -10.26580 -10.26510 -10.26260
 Alpha  occ. eigenvalues --  -10.26236 -10.26230 -10.26135 -10.26114 -10.26090
 Alpha  occ. eigenvalues --  -10.25967 -10.25948 -10.25943 -10.25922 -10.25745
 Alpha  occ. eigenvalues --  -10.25739 -10.25518 -10.25496 -10.25393 -10.25388
 Alpha  occ. eigenvalues --  -10.25190 -10.25039 -10.25036 -10.24915 -10.24672
 Alpha  occ. eigenvalues --  -10.24497 -10.24461 -10.24445 -10.24429 -10.24315
 Alpha  occ. eigenvalues --  -10.24280 -10.24274 -10.24077 -10.23791 -10.23727
 Alpha  occ. eigenvalues --  -10.23548 -10.23462 -10.23436 -10.23407 -10.23168
 Alpha  occ. eigenvalues --  -10.23145 -10.23104 -10.23041 -10.23031 -10.22857
 Alpha  occ. eigenvalues --  -10.21954  -3.14568  -3.13613  -1.87365  -1.86959
 Alpha  occ. eigenvalues --   -1.86794  -1.86458  -1.85965  -1.85865  -1.09827
 Alpha  occ. eigenvalues --   -1.09696  -1.07625  -1.05129  -1.04944  -1.03834
 Alpha  occ. eigenvalues --   -1.02198  -1.01793  -0.99794  -0.98876  -0.98215
 Alpha  occ. eigenvalues --   -0.98196  -0.97576  -0.97238  -0.96799  -0.96506
 Alpha  occ. eigenvalues --   -0.87541  -0.86138  -0.83502  -0.83320  -0.83110
 Alpha  occ. eigenvalues --   -0.82852  -0.82369  -0.82355  -0.81434  -0.81241
 Alpha  occ. eigenvalues --   -0.81147  -0.80605  -0.80468  -0.79828  -0.78844
 Alpha  occ. eigenvalues --   -0.78455  -0.78189  -0.77856  -0.77076  -0.76818
 Alpha  occ. eigenvalues --   -0.76069  -0.75879  -0.75282  -0.75252  -0.74717
 Alpha  occ. eigenvalues --   -0.74440  -0.72574  -0.72540  -0.71558  -0.71522
 Alpha  occ. eigenvalues --   -0.71040  -0.71026  -0.70855  -0.70100  -0.69290
 Alpha  occ. eigenvalues --   -0.69228  -0.66830  -0.66687  -0.66208  -0.65920
 Alpha  occ. eigenvalues --   -0.63665  -0.63595  -0.63357  -0.62936  -0.62853
 Alpha  occ. eigenvalues --   -0.62101  -0.61253  -0.61147  -0.60218  -0.60127
 Alpha  occ. eigenvalues --   -0.59698  -0.59177  -0.59129  -0.58799  -0.58756
 Alpha  occ. eigenvalues --   -0.58553  -0.57052  -0.56362  -0.54804  -0.54752
 Alpha  occ. eigenvalues --   -0.54157  -0.54097  -0.53633  -0.53446  -0.53242
 Alpha  occ. eigenvalues --   -0.52758  -0.52364  -0.52307  -0.51792  -0.51623
 Alpha  occ. eigenvalues --   -0.50683  -0.50440  -0.50091  -0.50070  -0.49822
 Alpha  occ. eigenvalues --   -0.49520  -0.49326  -0.49001  -0.48814  -0.48599
 Alpha  occ. eigenvalues --   -0.48410  -0.48178  -0.47921  -0.47624  -0.47475
 Alpha  occ. eigenvalues --   -0.47197  -0.47058  -0.46968  -0.46726  -0.46693
 Alpha  occ. eigenvalues --   -0.46234  -0.46185  -0.46162  -0.45883  -0.45821
 Alpha  occ. eigenvalues --   -0.45751  -0.45496  -0.45195  -0.44986  -0.44961
 Alpha  occ. eigenvalues --   -0.44749  -0.44625  -0.44573  -0.44163  -0.44137
 Alpha  occ. eigenvalues --   -0.43965  -0.43945  -0.43859  -0.43829  -0.43561
 Alpha  occ. eigenvalues --   -0.43275  -0.43241  -0.42981  -0.42949  -0.42860
 Alpha  occ. eigenvalues --   -0.42655  -0.42445  -0.42117  -0.41807  -0.41653
 Alpha  occ. eigenvalues --   -0.41403  -0.41370  -0.41326  -0.41155  -0.41005
 Alpha  occ. eigenvalues --   -0.41001  -0.40958  -0.40795  -0.40580  -0.40439
 Alpha  occ. eigenvalues --   -0.40225  -0.40100  -0.39804  -0.39775  -0.39692
 Alpha  occ. eigenvalues --   -0.39551  -0.39470  -0.39455  -0.39317  -0.39154
 Alpha  occ. eigenvalues --   -0.38954  -0.38949  -0.38721  -0.38578  -0.38181
 Alpha  occ. eigenvalues --   -0.38090  -0.38058  -0.37833  -0.37786  -0.37696
 Alpha  occ. eigenvalues --   -0.37511  -0.37473  -0.37276  -0.37088  -0.36921
 Alpha  occ. eigenvalues --   -0.36748  -0.36525  -0.36410  -0.36317  -0.36182
 Alpha  occ. eigenvalues --   -0.36016  -0.35987  -0.35549  -0.35400  -0.35258
 Alpha  occ. eigenvalues --   -0.35170  -0.34809  -0.34673  -0.34042  -0.33876
 Alpha  occ. eigenvalues --   -0.33619  -0.32996  -0.32690  -0.32626  -0.32539
 Alpha  occ. eigenvalues --   -0.32106  -0.32078  -0.31931  -0.31624  -0.31624
 Alpha  occ. eigenvalues --   -0.31440  -0.30939  -0.30004  -0.29523  -0.29244
 Alpha  occ. eigenvalues --   -0.29091  -0.28878  -0.28363  -0.26918  -0.26798
 Alpha  occ. eigenvalues --   -0.26225  -0.26216  -0.26025  -0.26000  -0.25670
 Alpha  occ. eigenvalues --   -0.25635  -0.25345  -0.25150  -0.21058  -0.20908
 Alpha  occ. eigenvalues --   -0.18505  -0.18436
 Alpha virt. eigenvalues --   -0.10938  -0.10764  -0.05296  -0.04907  -0.03996
 Alpha virt. eigenvalues --   -0.03835  -0.02412  -0.01932  -0.01190  -0.01049
 Alpha virt. eigenvalues --   -0.00161   0.00153   0.00796   0.01085   0.01411

 Mulliken charges:
               1
     1  Mg  12.001574
     2  C    5.976280
     3  C    5.995711
     4  C    6.028718
     5  C    6.007203
     6  N    6.988303
     7  C    6.033527
     8  C    5.990396
     9  C    6.007912
    10  C    5.973659
    11  C    6.006304
    12  C    5.998346
    13  C    6.000058
    14  H    1.005097
    15  N    7.004521
    16  C    5.966904
    17  C    5.977633
    18  C    5.988825
    19  C    5.960645
    20  C    6.001467
    21  C    5.986209
    22  O    7.972123
    23  C    6.009635
    24  N    7.017877
    25  C    5.963838
    26  C    6.004002
    27  C    5.991978
    28  C    6.020722
    29  C    5.998869
    30  C    5.994467
    31  C    5.996851
    32  N    6.998493
    33  C    6.023420
    34  C    6.036089
    35  C    6.003280
    36  C    6.026988
    37  C    5.995189
    38  C    6.014927
    39  O    8.023951
    40  C    6.004146
    41  C    6.002748
    42  O    8.008809
    43  O    8.000058
    44  C    5.997918
    45  H    0.988594
    46  H    0.996141
    47  H    1.014226
    48  H    1.000153
    49  H    0.995719
    50  H    0.990229
    51  H    0.988072
    52  H    1.007099
    53  H    1.007070
    54  H    0.993201
    55  H    0.995446
    56  H    1.001032
    57  H    0.982762
    58  H    0.985236
    59  H    0.983821
    60  H    0.994395
    61  H    0.986008
    62  H    0.989244
    63  H    1.003660
    64  H    1.001863
    65  H    0.989413
    66  H    1.003019
    67  H    1.001595
    68  H    1.011529
    69  H    0.998592
    70  H    0.993540
    71  H    1.011991
    72  H    1.007249
    73  H    1.017940
    74  H    1.015522
    75  H    1.023404
    76  H    1.006214
    77  H    1.000812
    78  H    1.006142
    79  H    1.003402
    80  Mg  12.000010
    81  C    5.999815
    82  C    6.000108
    83  C    6.000198
    84  C    5.999914
    85  N    6.999977
    86  C    6.000291
    87  C    5.999892
    88  C    6.000081
    89  C    5.999721
    90  C    6.000035
    91  C    6.000005
    92  C    5.999967
    93  H    1.000093
    94  N    7.000041
    95  C    5.999719
    96  C    5.999816
    97  C    5.999909
    98  C    5.999699
    99  C    6.000080
   100  C    5.999929
   101  O    7.999850
   102  C    6.000020
   103  N    7.000026
   104  C    5.999742
   105  C    6.000036
   106  C    5.999935
   107  C    6.000209
   108  C    6.000030
   109  C    5.999958
   110  C    6.000001
   111  N    7.000033
   112  C    6.000216
   113  C    6.000226
   114  C    6.000016
   115  C    6.000241
   116  C    5.999958
   117  C    6.000157
   118  O    8.000240
   119  C    5.999993
   120  C    6.000019
   121  O    8.000040
   122  O    8.000017
   123  C    5.999976
   124  H    0.999908
   125  H    0.999927
   126  H    1.000061
   127  H    1.000006
   128  H    0.999967
   129  H    0.999954
   130  H    0.999916
   131  H    1.000030
   132  H    0.999974
   133  H    1.000052
   134  H    0.999967
   135  H    1.000010
   136  H    0.999853
   137  H    0.999880
   138  H    0.999878
   139  H    0.999949
   140  H    0.999934
   141  H    0.999899
   142  H    0.999999
   143  H    1.000011
   144  H    0.999930
   145  H    0.999960
   146  H    1.000022
   147  H    0.999997
   148  H    1.000077
   149  H    1.000021
   150  H    1.000029
   151  H    0.999978
   152  H    1.000111
   153  H    1.000137
   154  H    1.000128
   155  H    1.000089
   156  H    1.000030
   157  H    1.000031
   158  H    1.000049
 Sum of Mulliken charges = 624.00000

 Dipole moment (field-independent basis, Debye):
    X=              4.7471    Y=             -8.1298    Z=              3.8746  Tot=             10.1804
 Quadrupole moment (field-independent basis, Debye-Ang):
   XX=            264.7364   YY=            -11.1815   ZZ=              6.6116
   XY=           -232.3273   XZ=            113.8848   YZ=              0.3946

 Normal termination of Gaussian 16 at Thu Oct 14 04:23:54 2021.
