 Gaussian 16, Revision A.03,
 Gaussian 16:  ES64L-G16RevA.03 25-Dec-2016

 --------------------------------------------------------
 #p PBE1PBE/Def2SVP td=(nstates=5) density=(transition=1)
 --------------------------------------------------------

 --------------------------------
 TDDFT excited states in gaussian
 --------------------------------
 Symbolic Z-matrix:
 Charge =  0 Multiplicity = 1

                         Standard orientation:
 ---------------------------------------------------------------------
 Center     Atomic      Atomic             Coordinates (Angstroms)
 Number     Number       Type             X           Y           Z
 ---------------------------------------------------------------------
      1         12           0       11.595359    0.096042    0.362874
      2          6           0        8.599275   -1.389180   -0.620563
      3          6           0       13.315235   -2.546854   -1.030577
      4          6           0       14.293469    1.718719    1.287764
      5          6           0        9.769793    3.220165    0.798423
      6          7           0       10.937006   -1.844860   -0.684073
      7          6           0        9.666567   -2.231543   -1.006698
      8          6           0        9.666791   -3.568894   -1.658029
      9          6           0       11.199502   -3.917050   -1.826335
     10          6           0       11.921982   -2.696621   -1.133229
     11          6           0       11.596766   -5.338681   -1.355175
     12          6           0        8.922243   -3.582388   -3.015195
     13          6           0        7.886471   -4.704690   -3.053529
     14          1           0        7.942419   -5.694222   -4.256318
     15          7           0       13.548317   -0.374628    0.181594
     16          6           0       14.091449   -1.528540   -0.381451
     17          6           0       15.528763   -1.426309   -0.164397
     18          6           0       15.848738   -0.183418    0.555993
     19          6           0       14.510811    0.448353    0.784226
     20          6           0       16.475765   -2.346417   -0.754676
     21          6           0       17.233384    0.271162    0.766607
     22          8           0       18.216444   -0.357750    0.434956
     23          6           0       17.593862    1.604229    1.323251
     24          7           0       11.942577    2.112254    0.890407
     25          6           0       13.123507    2.440464    1.506638
     26          6           0       13.106473    3.895734    1.924392
     27          6           0       11.867710    4.435634    1.313494
     28          6           0       11.162059    3.236980    0.912415
     29          6           0       13.294032    4.151995    3.475833
     30          6           0       12.131954    5.258907    0.006283
     31          6           0       11.189960    6.331425   -0.293966
     32          7           0        9.582320    0.822270    0.176247
     33          6           0        8.984891    2.061122    0.443129
     34          6           0        7.564578    1.901335    0.450369
     35          6           0        7.351551    0.601972    0.005395
     36          6           0        8.633553   -0.024294   -0.193137
     37          6           0        6.610923    2.980629    0.808785
     38          6           0        6.359360   -0.328127   -0.362123
     39          8           0        5.153296   -0.221218   -0.365269
     40          6           0        7.095643   -1.638779   -0.718611
     41          6           0        6.585490   -2.723539    0.134910
     42          8           0        6.997262   -3.003718    1.273306
     43          8           0        5.473369   -3.284580   -0.449807
     44          6           0        4.838123   -4.447665    0.148076
     45          1           0       13.789006   -3.442804   -1.435753
     46          1           0       15.103292    2.390896    1.582256
     47          1           0        9.260948    4.171647    0.966525
     48          1           0        9.370121   -4.252311   -0.861900
     49          1           0       11.532099   -3.928208   -2.863837
     50          1           0       10.635516   -5.853768   -1.339416
     51          1           0       12.169887   -5.404955   -0.430323
     52          1           0       12.221106   -5.817103   -2.109376
     53          1           0        9.557592   -3.820263   -3.868137
     54          1           0        8.472581   -2.595594   -3.123880
     55          1           0        6.990147   -4.107430   -3.220156
     56          1           0        7.884447   -5.175500   -2.071561
     57          1           0       15.912495   -3.112066   -1.288591
     58          1           0       17.083433   -2.921357   -0.055259
     59          1           0       17.090680   -1.814000   -1.481140
     60          1           0       16.924698    1.617071    2.183593
     61          1           0       17.319735    2.370205    0.597350
     62          1           0       18.640628    1.637008    1.626198
     63          1           0       14.005592    4.293677    1.455381
     64          1           0       11.157300    4.944371    1.965192
     65          1           0       13.592231    3.233285    3.981302
     66          1           0       12.469095    4.677239    3.958451
     67          1           0       14.176262    4.747921    3.707940
     68          1           0       12.189240    4.575315   -0.840873
     69          1           0       13.110101    5.738008    0.045573
     70          1           0       11.519291    7.236662    0.217275
     71          1           0       10.164586    6.067164   -0.033258
     72          1           0       11.316494    6.650706   -1.328949
     73          1           0        6.987956    3.580561    1.636943
     74          1           0        5.603096    2.626763    1.026552
     75          1           0        6.646671    3.647531   -0.052699
     76          1           0        6.830952   -2.018827   -1.705414
     77          1           0        4.266527   -4.325422    1.068152
     78          1           0        5.577348   -5.237479    0.280103
     79          1           0        4.080443   -4.734470   -0.580201
     80         12           0      -10.854557    0.823935    0.163977
     81          6           0      -11.562723   -2.572749    0.397316
     82          6           0       -7.549212   -0.020083   -0.457319
     83          6           0      -10.146725    3.954847   -0.624422
     84          6           0      -14.243881    1.512594    0.293455
     85          7           0       -9.722701   -1.059487   -0.170569
     86          6           0      -10.189700   -2.326335    0.113863
     87          6           0       -9.108285   -3.365593    0.085763
     88          6           0       -7.798082   -2.466688    0.188858
     89          6           0       -8.347878   -1.101965   -0.204222
     90          6           0       -6.822695   -2.527514    1.458509
     91          6           0       -9.166761   -4.382036   -1.146891
     92          6           0       -9.721502   -3.847850   -2.500903
     93          1           0       -8.955412   -4.317329   -3.714286
     94          7           0       -9.115554    1.826164   -0.572863
     95          6           0       -7.834027    1.288842   -0.746622
     96          6           0       -6.921558    2.262796   -1.279964
     97          6           0       -7.670737    3.460507   -1.365404
     98          6           0       -9.046442    3.142037   -0.879640
     99          6           0       -5.426293    1.952596   -1.365953
    100          6           0       -7.037657    4.783495   -1.853302
    101          8           0       -5.880295    4.837686   -2.281484
    102          6           0       -7.876762    5.984507   -1.724444
    103          7           0      -12.091574    2.432462   -0.230816
    104          6           0      -11.509133    3.688304   -0.264053
    105          6           0      -12.543099    4.833950   -0.199864
    106          6           0      -13.857163    3.951825   -0.142632
    107          6           0      -13.398253    2.563487   -0.072404
    108          6           0      -12.461721    5.836953    0.907296
    109          6           0      -14.794885    4.136990   -1.440639
    110          6           0      -16.237027    4.321655   -1.046170
    111          7           0      -12.603743   -0.253849    0.511813
    112          6           0      -13.919554    0.169941    0.535196
    113          6           0      -14.817075   -0.985345    0.764511
    114          6           0      -13.915012   -2.104767    0.720018
    115          6           0      -12.622706   -1.590507    0.562602
    116          6           0      -16.288654   -1.075758    0.730910
    117          6           0      -13.765482   -3.575607    0.713960
    118          8           0      -14.618422   -4.432702    0.730330
    119          6           0      -12.251998   -3.927403    0.548304
    120          6           0      -11.802445   -4.771559    1.655921
    121          8           0      -11.358687   -5.920041    1.646828
    122          8           0      -12.233601   -4.141039    2.852485
    123          6           0      -11.825717   -4.811662    4.105562
    124          1           0       -6.497030   -0.307238   -0.394560
    125          1           0      -10.002922    5.036186   -0.671798
    126          1           0      -15.278453    1.844642    0.396744
    127          1           0       -9.190416   -4.018806    0.954409
    128          1           0       -7.234292   -2.847533   -0.663100
    129          1           0       -7.059064   -3.287999    2.202539
    130          1           0       -6.818782   -1.614430    2.053650
    131          1           0       -5.836337   -2.862348    1.136265
    132          1           0       -9.684519   -5.297852   -0.863645
    133          1           0       -8.143509   -4.724374   -1.301170
    134          1           0       -9.767779   -2.758419   -2.495241
    135          1           0      -10.743499   -4.197737   -2.643885
    136          1           0       -4.917292    2.462234   -2.184664
    137          1           0       -5.294037    0.897682   -1.604866
    138          1           0       -5.001807    2.282812   -0.417571
    139          1           0       -7.976194    6.224597   -0.666293
    140          1           0       -8.839763    5.814295   -2.206879
    141          1           0       -7.319650    6.771382   -2.232846
    142          1           0      -12.583887    5.289637   -1.189475
    143          1           0      -14.244476    4.176959    0.851030
    144          1           0      -13.394467    6.399634    0.865499
    145          1           0      -11.685172    6.550980    0.632931
    146          1           0      -12.267651    5.340986    1.859063
    147          1           0      -14.629598    3.259078   -2.065045
    148          1           0      -14.515496    4.919129   -2.147676
    149          1           0      -16.782881    3.429909   -1.353347
    150          1           0      -16.745311    5.061780   -1.665096
    151          1           0      -16.319584    4.369541    0.039452
    152          1           0      -16.818719   -0.139039    0.552299
    153          1           0      -16.588614   -1.402118    1.726102
    154          1           0      -16.425444   -1.665006   -0.175607
    155          1           0      -12.199243   -4.457492   -0.402366
    156          1           0      -11.478115   -3.970579    4.706533
    157          1           0      -11.047461   -5.574873    4.107905
    158          1           0      -12.767190   -5.080101    4.585161
 ---------------------------------------------------------------------

 SCF Done:  E(RPBE1PBE) =  -4067.35036040     A.U. after   16 cycles

 Excitation energies and oscillator strengths:

 Excited State   1:      Singlet-A      1.7869 eV  693.84 nm  f=0.0000  <S**2>=0.000
     312 -> 313        0.70707
 This state for optimization and/or second-order correction.
 Total Energy, E(TD-HF/TD-DFT) =  -4067.28469178
 Copying the excited state density for this state as the 1-particle RhoCI density.

 Excited State   2:      Singlet-A      1.8363 eV  675.18 nm  f=0.4463  <S**2>=0.000
     309 -> 315       -0.18002
     311 -> 313        0.68191
     312 -> 314       -0.10547
     311 <- 313       -0.10286

 Excited State   3:      Singlet-A      1.8721 eV  662.27 nm  f=0.2862  <S**2>=0.000
     310 -> 316        0.17534
     311 -> 313        0.10458
     312 -> 314        0.68181
     312 <- 314       -0.10284

 Excited State   4:      Singlet-A      2.0513 eV  604.43 nm  f=0.0000  <S**2>=0.000
     311 -> 314        0.70708

 Excited State   5:      Singlet-A      2.1967 eV  564.41 nm  f=0.0914  <S**2>=0.000
     309 -> 313        0.64529
     311 -> 315        0.27278

 The electronic state is 1-A.
 Alpha  occ. eigenvalues --  -46.92402 -46.92310 -19.25532 -19.24937 -19.20680
 Alpha  occ. eigenvalues --  -19.19589 -19.19065 -19.19024 -19.18620 -19.17580
 Alpha  occ. eigenvalues --  -14.41821 -14.41656 -14.41591 -14.41440 -14.39910
 Alpha  occ. eigenvalues --  -14.39145 -14.38843 -14.38795 -10.36659 -10.36097
 Alpha  occ. eigenvalues --  -10.32267 -10.32065 -10.31345 -10.30795 -10.29316
 Alpha  occ. eigenvalues --  -10.29311 -10.29241 -10.29171 -10.28914 -10.28865
 Alpha  occ. eigenvalues --  -10.28709 -10.28696 -10.28451 -10.28236 -10.28167
 Alpha  occ. eigenvalues --  -10.28157 -10.27862 -10.27807 -10.27685 -10.26824
 Alpha  occ. eigenvalues --  -10.26824 -10.26624 -10.26482 -10.26390 -10.26375
 Alpha  occ. eigenvalues --  -10.26236 -10.26200 -10.26187 -10.26145 -10.26128
 Alpha  occ. eigenvalues --  -10.26017 -10.25937 -10.25898 -10.25835 -10.25799
 Alpha  occ. eigenvalues --  -10.25738 -10.25669 -10.25625 -10.25492 -10.25445
 Alpha  occ. eigenvalues --  -10.25125 -10.25038 -10.24919 -10.24844 -10.24781
 Alpha  occ. eigenvalues --  -10.24772 -10.24751 -10.24669 -10.24476 -10.24453
 Alpha  occ. eigenvalues --  -10.24352 -10.24284 -10.24271 -10.24086 -10.23933
 Alpha  occ. eigenvalues --  -10.23674 -10.23618 -10.23517 -10.23182 -10.23180
 Alpha  occ. eigenvalues --  -10.23148 -10.23128 -10.22966 -10.22502 -10.22466
 Alpha  occ. eigenvalues --  -10.22243  -3.14507  -3.14382  -1.87332  -1.87226
 Alpha  occ. eigenvalues --   -1.86897  -1.86765  -1.86723  -1.86595  -1.10217
 Alpha  occ. eigenvalues --   -1.09462  -1.05103  -1.04841  -1.04562  -1.03917
 Alpha  occ. eigenvalues --   -1.01646  -1.01507  -0.99599  -0.99582  -0.98460
 Alpha  occ. eigenvalues --   -0.98264  -0.97748  -0.97621  -0.96867  -0.96158
 Alpha  occ. eigenvalues --   -0.87016  -0.86735  -0.85099  -0.83879  -0.83844
 Alpha  occ. eigenvalues --   -0.83424  -0.83371  -0.82187  -0.82043  -0.81852
 Alpha  occ. eigenvalues --   -0.81593  -0.81159  -0.80544  -0.80326  -0.79517
 Alpha  occ. eigenvalues --   -0.78951  -0.78857  -0.78681  -0.77735  -0.76859
 Alpha  occ. eigenvalues --   -0.76794  -0.76477  -0.75733  -0.75149  -0.75104
 Alpha  occ. eigenvalues --   -0.74408  -0.73005  -0.72611  -0.72278  -0.71680
 Alpha  occ. eigenvalues --   -0.71404  -0.70984  -0.70628  -0.70427  -0.69986
 Alpha  occ. eigenvalues --   -0.69731  -0.67859  -0.67021  -0.66485  -0.66483
 Alpha  occ. eigenvalues --   -0.63793  -0.63661  -0.63585  -0.63462  -0.62497
 Alpha  occ. eigenvalues --   -0.62339  -0.61855  -0.61151  -0.60924  -0.60783
 Alpha  occ. eigenvalues --   -0.60405  -0.59803  -0.59272  -0.59269  -0.58984
 Alpha  occ. eigenvalues --   -0.58455  -0.56991  -0.56623  -0.55292  -0.54704
 Alpha  occ. eigenvalues --   -0.54067  -0.54002  -0.53881  -0.53627  -0.53452
 Alpha  occ. eigenvalues --   -0.52802  -0.52531  -0.52020  -0.51853  -0.51687
 Alpha  occ. eigenvalues --   -0.50980  -0.50798  -0.50390  -0.50281  -0.50029
 Alpha  occ. eigenvalues --   -0.49809  -0.49730  -0.49556  -0.49021  -0.49016
 Alpha  occ. eigenvalues --   -0.48827  -0.48298  -0.47897  -0.47523  -0.47453
 Alpha  occ. eigenvalues --   -0.47180  -0.47097  -0.46925  -0.46761  -0.46638
 Alpha  occ. eigenvalues --   -0.46478  -0.46399  -0.46325  -0.46269  -0.46172
 Alpha  occ. eigenvalues --   -0.45962  -0.45810  -0.45635  -0.45305  -0.45006
 Alpha  occ. eigenvalues --   -0.44967  -0.44664  -0.44643  -0.44217  -0.44186
 Alpha  occ. eigenvalues --   -0.44117  -0.44095  -0.43785  -0.43769  -0.43476
 Alpha  occ. eigenvalues --   -0.43386  -0.43218  -0.43107  -0.43097  -0.42866
 Alpha  occ. eigenvalues --   -0.42694  -0.42302  -0.42290  -0.41828  -0.41797
 Alpha  occ. eigenvalues --   -0.41714  -0.41556  -0.41487  -0.41265  -0.41147
 Alpha  occ. eigenvalues --   -0.41017  -0.40875  -0.40871  -0.40825  -0.40491
 Alpha  occ. eigenvalues --   -0.40365  -0.40071  -0.40045  -0.39798  -0.39741
 Alpha  occ. eigenvalues --   -0.39720  -0.39613  -0.39424  -0.39327  -0.39318
 Alpha  occ. eigenvalues --   -0.39238  -0.38866  -0.38650  -0.38514  -0.38216
 Alpha  occ. eigenvalues --   -0.38191  -0.38085  -0.37881  -0.37863  -0.37801
 Alpha  occ. eigenvalues --   -0.37734  -0.37593  -0.37405  -0.37238  -0.36950
 Alpha  occ. eigenvalues --   -0.36905  -0.36682  -0.36599  -0.36515  -0.36422
 Alpha  occ. eigenvalues --   -0.36377  -0.36139  -0.36046  -0.36003  -0.35576
 Alpha  occ. eigenvalues --   -0.35235  -0.35142  -0.34789  -0.34070  -0.33956
 Alpha  occ. eigenvalues --   -0.33511  -0.33427  -0.32865  -0.32668  -0.32359
 Alpha  occ. eigenvalues --   -0.32304  -0.32011  -0.31866  -0.31513  -0.31387
 Alpha  occ. eigenvalues --   -0.31255  -0.30486  -0.30213  -0.29627  -0.29520
 Alpha  occ. eigenvalues --   -0.28915  -0.28798  -0.28231  -0.27021  -0.26816
 Alpha  occ. eigenvalues --   -0.25778  -0.25686  -0.25667  -0.25477  -0.25432
 Alpha  occ. eigenvalues --   -0.25251  -0.25043  -0.24318  -0.21252  -0.20909
 Alpha  occ. eigenvalues --   -0.19212  -0.18775
 Alpha virt. eigenvalues --   -0.11604  -0.11067  -0.05958  -0.05621  -0.03938
 Alpha virt. eigenvalues --   -0.03436  -0.02039  -0.01864  -0.01020  -0.00421
 Alpha virt. eigenvalues --   -0.00184  -0.00047   0.00750   0.00891   0.01232

 Mulliken charges:
               1
     1  Mg  12.000000
     2  C    6.000000
     3  C    6.000000
     4  C    6.000000
     5  C    6.000000
     6  N    7.000000
     7  C    6.000000
     8  C    6.000000
     9  C    6.000000
    10  C    6.000000
    11  C    6.000000
    12  C    6.000000
    13  C    6.000000
    14  H    1.000000
    15  N    7.000000
    16  C    6.000000
    17  C    6.000000
    18  C    6.000000
    19  C    6.000000
    20  C    6.000000
    21  C    6.000000
    22  O    8.000000
    23  C    6.000000
    24  N    7.000000
    25  C    6.000000
    26  C    6.000000
    27  C    6.000000
    28  C    6.000000
    29  C    6.000000
    30  C    6.000000
    31  C    6.000000
    32  N    7.000000
    33  C    6.000000
    34  C    6.000000
    35  C    6.000000
    36  C    6.000000
    37  C    6.000000
    38  C    6.000000
    39  O    8.000000
    40  C    6.000000
    41  C    6.000000
    42  O    8.000000
    43  O    8.000000
    44  C    6.000000
    45  H    1.000000
    46  H    1.000000
    47  H    1.000000
    48  H    1.000000
    49  H    1.000000
    50  H    1.000000
    51  H    1.000000
    52  H    1.000000
    53  H    1.000000
    54  H    1.000000
    55  H    1.000000
    56  H    1.000000
    57  H    1.000000
    58  H    1.000000
    59  H    1.000000
    60  H    1.000000
    61  H    1.000000
    62  H    1.000000
    63  H    1.000000
    64  H    1.000000
    65  H    1.000000
    66  H    1.000000
    67  H    1.000000
    68  H    1.000000
    69  H    1.000000
    70  H    1.000000
    71  H    1.000000
    72  H    1.000000
    73  H    1.000000
    74  H    1.000000
    75  H    1.000000
    76  H    1.000000
    77  H    1.000000
    78  H    1.000000
    79  H    1.000000
    80  Mg  12.000000
    81  C    6.000000
    82  C    6.000000
    83  C    6.000000
    84  C    6.000000
    85  N    7.000000
    86  C    6.000000
    87  C    6.000000
    88  C    6.000000
    89  C    6.000000
    90  C    6.000000
    91  C    6.000000
    92  C    6.000000
    93  H    1.000000
    94  N    7.000000
    95  C    6.000000
    96  C    6.000000
    97  C    6.000000
    98  C    6.000000
    99  C    6.000000
   100  C    6.000000
   101  O    8.000000
   102  C    6.000000
   103  N    7.000000
   104  C    6.000000
   105  C    6.000000
   106  C    6.000000
   107  C    6.000000
   108  C    6.000000
   109  C    6.000000
   110  C    6.000000
   111  N    7.000000
   112  C    6.000000
   113  C    6.000000
   114  C    6.000000
   115  C    6.000000
   116  C    6.000000
   117  C    6.000000
   118  O    8.000000
   119  C    6.000000
   120  C    6.000000
   121  O    8.000000
   122  O    8.000000
   123  C    6.000000
   124  H    1.000000
   125  H    1.000000
   126  H    1.000000
   127  H    1.000000
   128  H    1.000000
   129  H    1.000000
   130  H    1.000000
   131  H    1.000000
   132  H    1.000000
   133  H    1.000000
   134  H    1.000000
   135  H    1.000000
   136  H    1.000000
   137  H    1.000000
   138  H    1.000000
   139  H    1.000000
   140  H    1.000000
   141  H    1.000000
   142  H    1.000000
   143  H    1.000000
   144  H    1.000000
   145  H    1.000000
   146  H    1.000000
   147  H    1.000000
   148  H    1.000000
   149  H    1.000000
   150  H    1.000000
   151  H    1.000000
   152  H    1.000000
   153  H    1.000000
   154  H    1.000000
   155  H    1.000000
   156  H    1.000000
   157  H    1.000000
   158  H    1.000000
 Sum of Mulliken charges = 624.00000

 Dipole moment (field-independent basis, Debye):
    X=             -0.0000    Y=              0.0000    Z=              0.0000  Tot=              0.0000
 Quadrupole moment (field-independent basis, Debye-Ang):
   XX=             -0.0000   YY=              0.0000   ZZ=              0.0000
   XY=              0.0000   XZ=             -0.0000   YZ=              0.0000

 Normal termination of Gaussian 16 at Thu Oct 14 20:18:59 2021.
