 Gaussian 16, Revision A.03,
 Gaussian 16:  ES64L-G16RevA.03 25-Dec-2016

 --------------------------------------------------------
 #p PBE1PBE/Def2SVP td=(nstates=5) density=(transition=1)
 --------------------------------------------------------

 --------------------------------
 TDDFT excited states in gaussian
 --------------------------------
 Symbolic Z-matrix:
 Charge =  0 Multiplicity = 1

                         Standard orientation:
 ---------------------------------------------------------------------
 Center     Atomic      Atomic             Coordinates (Angstroms)
 Number     Number       Type             X           Y           Z
 ---------------------------------------------------------------------
      1         12           0      -29.114187    0.205072    0.386164
      2          6           0      -26.968535   -1.710009   -1.754306
      3          6           0      -29.507996    2.440326   -2.210004
      4          6           0      -30.531204    2.217971    2.534537
      5          6           0      -28.379292   -2.075672    2.889875
      6          7           0      -28.073087    0.492345   -1.715948
      7          6           0      -27.358681   -0.496824   -2.335857
      8          6           0      -27.246031   -0.181648   -3.851566
      9          6           0      -28.015260    1.197053   -4.002495
     10          6           0      -28.578113    1.456180   -2.557499
     11          6           0      -27.189627    2.456278   -4.502372
     12          6           0      -27.829673   -1.265568   -4.796706
     13          6           0      -27.028216   -1.651053   -5.988815
     14          1           0      -25.871881   -0.760839   -6.585135
     15          7           0      -29.933944    2.132736    0.219995
     16          6           0      -30.138490    2.858536   -0.953194
     17          6           0      -30.769881    4.147495   -0.611104
     18          6           0      -31.172822    4.024230    0.773981
     19          6           0      -30.542950    2.767559    1.241438
     20          6           0      -31.008104    5.290274   -1.551063
     21          6           0      -32.023940    4.953950    1.670674
     22          8           0      -32.562817    4.615317    2.745492
     23          6           0      -32.364976    6.287160    1.137458
     24          7           0      -29.337463    0.093735    2.367303
     25          6           0      -29.928140    1.137363    3.045311
     26          6           0      -30.230797    0.749162    4.519127
     27          6           0      -29.853189   -0.798103    4.502506
     28          6           0      -29.154755   -0.960647    3.163589
     29          6           0      -29.511731    1.563978    5.670339
     30          6           0      -30.996160   -1.790546    4.645746
     31          6           0      -30.982911   -2.642883    5.931987
     32          7           0      -28.088324   -1.637960    0.526498
     33          6           0      -27.853804   -2.431310    1.624558
     34          6           0      -26.974263   -3.548925    1.257655
     35          6           0      -26.668826   -3.312069   -0.070871
     36          6           0      -27.359443   -2.147646   -0.474684
     37          6           0      -26.444868   -4.651922    2.113486
     38          6           0      -25.942672   -3.870320   -1.154273
     39          8           0      -25.312076   -4.958273   -1.281666
     40          6           0      -26.088119   -2.900643   -2.249417
     41          6           0      -24.735469   -2.515963   -2.784918
     42          8           0      -23.938349   -1.849031   -2.218849
     43          8           0      -24.590201   -2.979313   -4.026156
     44          6           0      -23.294593   -3.007176   -4.615332
     45          1           0      -29.677119    3.203545   -2.972678
     46          1           0      -31.013926    2.761673    3.350371
     47          1           0      -28.091801   -2.743211    3.703857
     48          1           0      -26.179795   -0.071798   -4.052932
     49          1           0      -28.863390    1.076457   -4.675793
     50          1           0      -26.180224    2.243250   -4.853147
     51          1           0      -27.051507    3.103327   -3.634919
     52          1           0      -27.752790    3.005686   -5.257368
     53          1           0      -28.790829   -0.980242   -5.225932
     54          1           0      -27.993199   -2.218690   -4.294620
     55          1           0      -27.680124   -1.730716   -6.859268
     56          1           0      -26.600677   -2.632478   -5.785469
     57          1           0      -30.568057    6.196966   -1.136462
     58          1           0      -32.089083    5.418803   -1.606498
     59          1           0      -30.735402    5.031593   -2.574727
     60          1           0      -31.432222    6.836191    1.008105
     61          1           0      -32.918244    6.782390    1.935053
     62          1           0      -33.035755    6.227140    0.280828
     63          1           0      -31.312700    0.836882    4.623588
     64          1           0      -29.166131   -0.960790    5.332859
     65          1           0      -28.874696    2.336397    5.240949
     66          1           0      -28.997148    0.925966    6.389863
     67          1           0      -30.294929    2.024509    6.272724
     68          1           0      -31.199832   -2.429011    3.785990
     69          1           0      -31.910338   -1.202495    4.719688
     70          1           0      -31.200902   -3.705140    5.823407
     71          1           0      -31.859544   -2.346400    6.508561
     72          1           0      -30.065570   -2.594732    6.517173
     73          1           0      -27.010596   -4.774196    3.037566
     74          1           0      -25.459334   -4.386872    2.496057
     75          1           0      -26.335273   -5.519975    1.463547
     76          1           0      -26.660180   -3.411660   -3.023380
     77          1           0      -22.760011   -3.826869   -4.133236
     78          1           0      -22.726110   -2.115677   -4.350044
     79          1           0      -23.350721   -3.232963   -5.680544
     80         12           0       28.777452    0.562397   -0.376237
     81          6           0       26.935487   -2.316562    0.503049
     82          6           0       25.851506    2.443611   -0.116318
     83          6           0       30.728850    3.351128   -0.204759
     84          6           0       31.709704   -1.471658   -0.069028
     85          7           0       26.687067    0.092681    0.092993
     86          6           0       26.183007   -1.110859    0.439022
     87          6           0       24.679229   -0.993034    0.850058
     88          6           0       24.336999    0.452865    0.262723
     89          6           0       25.744959    1.083187    0.010860
     90          6           0       23.539716    0.605799   -1.052444
     91          6           0       24.569492   -1.101756    2.417976
     92          6           0       23.300362   -1.848840    2.913811
     93          1           0       22.596517   -1.228033    4.188508
     94          7           0       28.345622    2.682381   -0.389277
     95          6           0       27.075504    3.191377   -0.328205
     96          6           0       27.198378    4.596783   -0.417291
     97          6           0       28.581270    4.944783   -0.376843
     98          6           0       29.319619    3.637588   -0.372724
     99          6           0       26.041019    5.566850   -0.447946
    100          6           0       29.155676    6.310055   -0.208530
    101          8           0       28.450481    7.288291   -0.020119
    102          6           0       30.562811    6.613290   -0.179455
    103          7           0       30.953764    0.855912   -0.051660
    104          6           0       31.486566    2.145160   -0.198608
    105          6           0       32.980894    2.092488   -0.265725
    106          6           0       33.331943    0.562443   -0.157726
    107          6           0       31.955455   -0.075823   -0.086150
    108          6           0       33.445838    2.758595   -1.567028
    109          6           0       34.416312    0.236231    0.937159
    110          6           0       35.651166   -0.477007    0.476267
    111          7           0       29.288083   -1.516653    0.083745
    112          6           0       30.503474   -2.155635    0.105332
    113          6           0       30.316461   -3.615370    0.256769
    114          6           0       28.914734   -3.665547    0.479258
    115          6           0       28.356382   -2.416893    0.279700
    116          6           0       31.357166   -4.718578    0.367431
    117          6           0       27.864950   -4.554241    0.901573
    118          8           0       27.918193   -5.749179    1.231946
    119          6           0       26.544564   -3.784784    0.927722
    120          6           0       25.529666   -4.434868    0.077733
    121          8           0       24.499152   -4.816245    0.501025
    122          8           0       25.810937   -4.371945   -1.256399
    123          6           0       24.644157   -4.800186   -2.058112
    124          1           0       24.943566    3.051071   -0.119897
    125          1           0       31.291896    4.284859   -0.245936
    126          1           0       32.475812   -2.233235    0.094276
    127          1           0       24.132060   -1.800786    0.363696
    128          1           0       24.019180    1.190722    0.999197
    129          1           0       23.669528   -0.276890   -1.679667
    130          1           0       23.754090    1.492414   -1.649237
    131          1           0       22.491374    0.634588   -0.757290
    132          1           0       24.639665   -0.116679    2.880153
    133          1           0       25.459444   -1.656899    2.714616
    134          1           0       23.670231   -2.850383    3.134079
    135          1           0       22.684815   -1.893905    2.015111
    136          1           0       26.244311    6.548867   -0.875240
    137          1           0       25.763045    5.660057    0.601536
    138          1           0       25.088390    5.178749   -0.808523
    139          1           0       30.968928    6.310549   -1.145456
    140          1           0       31.054830    6.122284    0.660639
    141          1           0       30.680558    7.688787   -0.046691
    142          1           0       33.420501    2.523993    0.633206
    143          1           0       33.609852    0.041882   -1.074442
    144          1           0       32.669204    3.353891   -2.047812
    145          1           0       33.750517    2.022422   -2.310884
    146          1           0       34.155366    3.552273   -1.334942
    147          1           0       33.883396   -0.361301    1.676802
    148          1           0       34.879566    1.118499    1.377349
    149          1           0       35.750710   -1.372312    1.089371
    150          1           0       36.550168    0.115286    0.647817
    151          1           0       35.670636   -0.651240   -0.599585
    152          1           0       31.757746   -4.819883    1.376285
    153          1           0       32.160372   -4.627638   -0.364877
    154          1           0       30.735406   -5.600731    0.215224
    155          1           0       26.099182   -3.856119    1.919183
    156          1           0       24.922605   -4.730159   -3.109940
    157          1           0       23.778857   -4.172640   -1.845155
    158          1           0       24.395223   -5.856308   -1.960396
 ---------------------------------------------------------------------

 SCF Done:  E(RPBE1PBE) =  -4067.34938487     A.U. after   16 cycles

 Excitation energies and oscillator strengths:

 Excited State   1:      Singlet-A      1.8469 eV  671.32 nm  f=0.3865  <S**2>=0.000
     309 -> 315        0.16864
     311 -> 313        0.69416
     311 <- 313       -0.11313
 This state for optimization and/or second-order correction.
 Total Energy, E(TD-HF/TD-DFT) =  -4067.28151319
 Copying the excited state density for this state as the 1-particle RhoCI density.

 Excited State   2:      Singlet-A      1.8640 eV  665.15 nm  f=0.4108  <S**2>=0.000
     310 -> 316       -0.17337
     312 -> 314        0.69403
     312 <- 314       -0.11114

 Excited State   3:      Singlet-A      1.8825 eV  658.63 nm  f=0.0000  <S**2>=0.000
     312 -> 313        0.70711

 Excited State   4:      Singlet-A      2.0807 eV  595.89 nm  f=0.0000  <S**2>=0.000
     311 -> 314        0.70711

 Excited State   5:      Singlet-A      2.2041 eV  562.53 nm  f=0.1221  <S**2>=0.000
     310 -> 314        0.66066
     312 -> 316        0.24059

 The electronic state is 1-A.
 Alpha  occ. eigenvalues --  -46.94192 -46.92300 -19.25704 -19.25527 -19.20104
 Alpha  occ. eigenvalues --  -19.19727 -19.19021 -19.18985 -19.18980 -19.17626
 Alpha  occ. eigenvalues --  -14.42418 -14.42294 -14.41528 -14.41154 -14.39586
 Alpha  occ. eigenvalues --  -14.39336 -14.39216 -14.38878 -10.35905 -10.35703
 Alpha  occ. eigenvalues --  -10.32294 -10.31825 -10.31573 -10.30690 -10.29924
 Alpha  occ. eigenvalues --  -10.29671 -10.29651 -10.29255 -10.29021 -10.28897
 Alpha  occ. eigenvalues --  -10.28878 -10.28797 -10.28630 -10.28542 -10.28252
 Alpha  occ. eigenvalues --  -10.27953 -10.27794 -10.27673 -10.27578 -10.27472
 Alpha  occ. eigenvalues --  -10.26861 -10.26847 -10.26841 -10.26738 -10.26715
 Alpha  occ. eigenvalues --  -10.26618 -10.26287 -10.26283 -10.26266 -10.26131
 Alpha  occ. eigenvalues --  -10.26098 -10.26086 -10.26073 -10.26017 -10.25856
 Alpha  occ. eigenvalues --  -10.25818 -10.25804 -10.25653 -10.25563 -10.25416
 Alpha  occ. eigenvalues --  -10.25310 -10.25284 -10.25107 -10.24991 -10.24980
 Alpha  occ. eigenvalues --  -10.24600 -10.24577 -10.24513 -10.24406 -10.24376
 Alpha  occ. eigenvalues --  -10.24294 -10.24287 -10.24033 -10.23905 -10.23805
 Alpha  occ. eigenvalues --  -10.23683 -10.23441 -10.23431 -10.23155 -10.23041
 Alpha  occ. eigenvalues --  -10.23007 -10.22917 -10.22860 -10.22820 -10.22646
 Alpha  occ. eigenvalues --  -10.22591  -3.15931  -3.14457  -1.88783  -1.88285
 Alpha  occ. eigenvalues --   -1.88146  -1.87280  -1.86846  -1.86679  -1.13304
 Alpha  occ. eigenvalues --   -1.12714  -1.04421  -1.04365  -1.03859  -1.03588
 Alpha  occ. eigenvalues --   -1.03216  -1.02537  -0.99730  -0.99338  -0.98396
 Alpha  occ. eigenvalues --   -0.98360  -0.98022  -0.97264  -0.97235  -0.96532
 Alpha  occ. eigenvalues --   -0.87777  -0.86930  -0.83702  -0.83469  -0.83359
 Alpha  occ. eigenvalues --   -0.82732  -0.82692  -0.82552  -0.82344  -0.81892
 Alpha  occ. eigenvalues --   -0.81290  -0.81266  -0.80625  -0.80212  -0.79167
 Alpha  occ. eigenvalues --   -0.78925  -0.78837  -0.77798  -0.77006  -0.76866
 Alpha  occ. eigenvalues --   -0.76745  -0.76344  -0.76027  -0.75217  -0.74915
 Alpha  occ. eigenvalues --   -0.74850  -0.72991  -0.72679  -0.71996  -0.71895
 Alpha  occ. eigenvalues --   -0.71452  -0.71185  -0.70782  -0.70601  -0.69808
 Alpha  occ. eigenvalues --   -0.69608  -0.67595  -0.67542  -0.66981  -0.65967
 Alpha  occ. eigenvalues --   -0.63784  -0.63728  -0.63630  -0.63388  -0.62412
 Alpha  occ. eigenvalues --   -0.61865  -0.61324  -0.60765  -0.60761  -0.60358
 Alpha  occ. eigenvalues --   -0.60148  -0.59586  -0.59440  -0.59243  -0.59217
 Alpha  occ. eigenvalues --   -0.58963  -0.57819  -0.57511  -0.54735  -0.54671
 Alpha  occ. eigenvalues --   -0.54550  -0.54477  -0.53907  -0.53580  -0.53491
 Alpha  occ. eigenvalues --   -0.53486  -0.52854  -0.52795  -0.52365  -0.51660
 Alpha  occ. eigenvalues --   -0.51005  -0.50874  -0.50734  -0.50608  -0.50171
 Alpha  occ. eigenvalues --   -0.49642  -0.49629  -0.49498  -0.49104  -0.48322
 Alpha  occ. eigenvalues --   -0.48205  -0.47984  -0.47978  -0.47773  -0.47751
 Alpha  occ. eigenvalues --   -0.47634  -0.47400  -0.47308  -0.47090  -0.46964
 Alpha  occ. eigenvalues --   -0.46876  -0.46305  -0.46201  -0.46126  -0.46015
 Alpha  occ. eigenvalues --   -0.45934  -0.45875  -0.45820  -0.45565  -0.44748
 Alpha  occ. eigenvalues --   -0.44713  -0.44607  -0.44512  -0.44373  -0.44213
 Alpha  occ. eigenvalues --   -0.43899  -0.43877  -0.43708  -0.43675  -0.43401
 Alpha  occ. eigenvalues --   -0.43257  -0.43245  -0.43081  -0.42974  -0.42932
 Alpha  occ. eigenvalues --   -0.42781  -0.42401  -0.42246  -0.42098  -0.41993
 Alpha  occ. eigenvalues --   -0.41657  -0.41567  -0.41545  -0.41496  -0.41428
 Alpha  occ. eigenvalues --   -0.41081  -0.41014  -0.40928  -0.40894  -0.40614
 Alpha  occ. eigenvalues --   -0.40501  -0.40444  -0.40062  -0.39929  -0.39804
 Alpha  occ. eigenvalues --   -0.39660  -0.39538  -0.39481  -0.39271  -0.39148
 Alpha  occ. eigenvalues --   -0.39091  -0.38836  -0.38465  -0.38458  -0.38312
 Alpha  occ. eigenvalues --   -0.38229  -0.38006  -0.37856  -0.37663  -0.37601
 Alpha  occ. eigenvalues --   -0.37498  -0.37421  -0.37058  -0.36844  -0.36629
 Alpha  occ. eigenvalues --   -0.36597  -0.36502  -0.36296  -0.36162  -0.36122
 Alpha  occ. eigenvalues --   -0.35926  -0.35821  -0.35587  -0.35189  -0.35018
 Alpha  occ. eigenvalues --   -0.34952  -0.34634  -0.34569  -0.34152  -0.33934
 Alpha  occ. eigenvalues --   -0.33640  -0.33197  -0.32886  -0.32864  -0.32547
 Alpha  occ. eigenvalues --   -0.32232  -0.31988  -0.31947  -0.31432  -0.31368
 Alpha  occ. eigenvalues --   -0.31240  -0.30894  -0.29806  -0.29481  -0.29352
 Alpha  occ. eigenvalues --   -0.29248  -0.29050  -0.28491  -0.27138  -0.27090
 Alpha  occ. eigenvalues --   -0.26122  -0.26023  -0.25974  -0.25707  -0.25673
 Alpha  occ. eigenvalues --   -0.25318  -0.25054  -0.24603  -0.21447  -0.21004
 Alpha  occ. eigenvalues --   -0.19247  -0.18927
 Alpha virt. eigenvalues --   -0.11780  -0.11371  -0.05755  -0.05041  -0.04352
 Alpha virt. eigenvalues --   -0.03899  -0.02384  -0.02003  -0.01526  -0.00507
 Alpha virt. eigenvalues --    0.00584   0.01183   0.01297   0.01429   0.01663

 Mulliken charges:
               1
     1  Mg  11.999998
     2  C    6.000149
     3  C    6.000011
     4  C    5.999786
     5  C    5.999988
     6  N    7.000041
     7  C    5.999802
     8  C    6.000079
     9  C    5.999948
    10  C    6.000201
    11  C    5.999988
    12  C    6.000023
    13  C    6.000000
    14  H    0.999986
    15  N    6.999968
    16  C    6.000299
    17  C    6.000167
    18  C    6.000112
    19  C    6.000248
    20  C    6.000001
    21  C    6.000100
    22  O    8.000214
    23  C    5.999948
    24  N    6.999956
    25  C    6.000273
    26  C    5.999919
    27  C    6.000067
    28  C    5.999778
    29  C    6.000001
    30  C    6.000049
    31  C    6.000013
    32  N    7.000014
    33  C    5.999763
    34  C    5.999730
    35  C    5.999972
    36  C    5.999775
    37  C    6.000019
    38  C    5.999868
    39  O    7.999770
    40  C    6.000033
    41  C    5.999958
    42  O    7.999973
    43  O    7.999984
    44  C    6.000015
    45  H    1.000070
    46  H    1.000047
    47  H    0.999910
    48  H    1.000011
    49  H    1.000006
    50  H    1.000092
    51  H    0.999983
    52  H    1.000012
    53  H    0.999935
    54  H    1.000036
    55  H    0.999970
    56  H    1.000022
    57  H    1.000139
    58  H    1.000121
    59  H    1.000125
    60  H    1.000069
    61  H    1.000105
    62  H    1.000049
    63  H    0.999989
    64  H    0.999988
    65  H    0.999995
    66  H    1.000065
    67  H    0.999994
    68  H    1.000005
    69  H    0.999905
    70  H    0.999988
    71  H    0.999950
    72  H    0.999996
    73  H    0.999863
    74  H    0.999844
    75  H    0.999883
    76  H    0.999922
    77  H    0.999984
    78  H    0.999983
    79  H    0.999958
    80  Mg  11.998481
    81  C    5.981138
    82  C    6.012269
    83  C    6.016786
    84  C    5.998237
    85  N    6.996377
    86  C    6.032562
    87  C    5.992245
    88  C    6.002491
    89  C    5.971676
    90  C    6.007632
    91  C    5.998306
    92  C    5.998881
    93  H    1.007261
    94  N    7.009053
    95  C    5.957453
    96  C    5.980414
    97  C    5.992593
    98  C    5.956986
    99  C    6.003172
   100  C    5.988970
   101  O    7.979106
   102  C    6.004395
   103  N    7.001171
   104  C    5.967895
   105  C    6.011442
   106  C    5.993451
   107  C    6.029669
   108  C    6.002393
   109  C    5.999428
   110  C    5.997951
   111  N    6.998879
   112  C    6.032007
   113  C    6.032941
   114  C    5.999631
   115  C    6.028024
   116  C    6.000090
   117  C    6.017445
   118  O    8.030950
   119  C    5.998444
   120  C    6.004267
   121  O    8.008494
   122  O    7.996431
   123  C    5.997458
   124  H    0.990650
   125  H    0.992615
   126  H    1.007857
   127  H    0.997871
   128  H    1.003008
   129  H    0.986727
   130  H    1.005042
   131  H    0.992332
   132  H    1.010986
   133  H    0.992159
   134  H    0.995216
   135  H    1.003034
   136  H    0.985995
   137  H    0.980300
   138  H    0.980558
   139  H    0.990893
   140  H    0.989412
   141  H    0.987831
   142  H    0.997561
   143  H    0.995851
   144  H    1.007316
   145  H    0.989994
   146  H    0.997829
   147  H    0.997334
   148  H    1.010140
   149  H    0.997848
   150  H    1.005634
   151  H    1.001995
   152  H    1.020201
   153  H    1.017230
   154  H    1.011407
   155  H    1.008766
   156  H    1.004103
   157  H    1.007171
   158  H    1.002189
 Sum of Mulliken charges = 624.00000

 Dipole moment (field-independent basis, Debye):
    X=              2.2634    Y=            -10.1984    Z=              1.1137  Tot=             10.5058
 Quadrupole moment (field-independent basis, Debye-Ang):
   XX=            136.4602   YY=            -11.3551   ZZ=              0.8639
   XY=           -295.5522   XZ=             31.8472   YZ=             -0.0653

 Normal termination of Gaussian 16 at Fri Oct 15 09:46:40 2021.
