 Gaussian 16, Revision A.03,
 Gaussian 16:  ES64L-G16RevA.03 25-Dec-2016

 --------------------------------------------------------
 #p PBE1PBE/Def2SVP td=(nstates=5) density=(transition=1)
 --------------------------------------------------------

 --------------------------------
 TDDFT excited states in gaussian
 --------------------------------
 Symbolic Z-matrix:
 Charge =  0 Multiplicity = 1

                         Standard orientation:
 ---------------------------------------------------------------------
 Center     Atomic      Atomic             Coordinates (Angstroms)
 Number     Number       Type             X           Y           Z
 ---------------------------------------------------------------------
      1         12           0       20.550046   -0.789213   -0.041573
      2          6           0       22.664975    1.963606   -0.247677
      3          6           0       18.280511    1.140245    1.652320
      4          6           0       18.669533   -3.595763    0.406958
      5          6           0       23.155735   -2.649165   -1.585687
      6          7           0       20.494352    1.289839    0.653264
      7          6           0       21.430296    2.237628    0.333131
      8          6           0       20.900254    3.568930    0.871350
      9          6           0       19.685244    3.219619    1.712187
     10          6           0       19.448271    1.778097    1.276490
     11          6           0       19.731330    3.395978    3.206261
     12          6           0       20.642663    4.705047   -0.229163
     13          6           0       19.899478    5.984662    0.272746
     14          1           0       20.744263    7.177379    0.792198
     15          7           0       18.669105   -1.115790    0.772205
     16          6           0       17.910663   -0.215334    1.445622
     17          6           0       16.743049   -0.921557    1.904965
     18          6           0       16.868802   -2.295267    1.543973
     19          6           0       18.102032   -2.405210    0.904125
     20          6           0       15.662110   -0.197327    2.646477
     21          6           0       15.902813   -3.446975    1.947824
     22          8           0       16.244003   -4.615444    1.904932
     23          6           0       14.582067   -3.227548    2.514706
     24          7           0       20.867785   -2.703657   -0.505553
     25          6           0       19.938053   -3.717289   -0.275604
     26          6           0       20.409491   -5.081440   -0.808570
     27          6           0       21.662588   -4.672830   -1.655325
     28          6           0       21.879988   -3.223956   -1.251139
     29          6           0       20.498871   -6.178517    0.169867
     30          6           0       21.648672   -4.906948   -3.266263
     31          6           0       22.699812   -5.798816   -3.933740
     32          7           0       22.600196   -0.452542   -0.752611
     33          6           0       23.492009   -1.316060   -1.324309
     34          6           0       24.709324   -0.655441   -1.655820
     35          6           0       24.408864    0.717001   -1.308563
     36          6           0       23.132917    0.750407   -0.679270
     37          6           0       25.866429   -1.312817   -2.306226
     38          6           0       24.913727    2.068057   -1.394440
     39          8           0       25.904118    2.570971   -1.887707
     40          6           0       23.742437    2.953865   -0.664216
     41          6           0       24.305614    3.842699    0.383928
     42          8           0       24.806694    3.438869    1.410363
     43          8           0       24.184961    5.145492    0.074068
     44          6           0       24.484932    6.147673    1.167597
     45          1           0       17.530533    1.762805    2.145228
     46          1           0       18.050676   -4.480376    0.570000
     47          1           0       23.811686   -3.378370   -2.066111
     48          1           0       21.745369    3.867100    1.491661
     49          1           0       18.851823    3.859206    1.422677
     50          1           0       19.795486    2.348891    3.500626
     51          1           0       18.867994    3.938056    3.592410
     52          1           0       20.667115    3.841976    3.543835
     53          1           0       20.024897    4.170726   -0.951254
     54          1           0       21.589088    5.008395   -0.675226
     55          1           0       19.238496    5.763718    1.109892
     56          1           0       19.267776    6.342599   -0.540222
     57          1           0       15.743597    0.884930    2.752084
     58          1           0       15.710293   -0.570937    3.668778
     59          1           0       14.661045   -0.445139    2.292995
     60          1           0       14.451014   -2.526303    3.338190
     61          1           0       14.037551   -4.128386    2.797415
     62          1           0       14.022196   -2.880080    1.646679
     63          1           0       19.574925   -5.262782   -1.486405
     64          1           0       22.419758   -5.244909   -1.119358
     65          1           0       19.829630   -7.026978    0.024745
     66          1           0       20.295116   -5.755145    1.153750
     67          1           0       21.474785   -6.662332    0.208030
     68          1           0       21.738743   -3.927905   -3.736477
     69          1           0       20.732192   -5.298952   -3.708914
     70          1           0       23.491203   -5.262498   -4.457994
     71          1           0       22.295160   -6.616665   -4.529289
     72          1           0       23.268511   -6.278430   -3.136970
     73          1           0       26.050780   -2.262120   -1.803851
     74          1           0       26.751206   -0.677324   -2.332684
     75          1           0       25.526704   -1.676655   -3.276456
     76          1           0       23.348249    3.605503   -1.443341
     77          1           0       24.675410    7.054908    0.594678
     78          1           0       25.356856    5.804859    1.724303
     79          1           0       23.570761    6.253422    1.751914
     80         12           0      -21.438351   -0.365478   -0.047780
     81          6           0      -20.405624    2.874748   -0.758326
     82          6           0      -20.884586    0.308075    3.270776
     83          6           0      -22.208347   -3.656309    0.653961
     84          6           0      -21.438916   -1.159689   -3.441864
     85          7           0      -20.819472    1.428192    1.103285
     86          6           0      -20.555512    2.661751    0.639724
     87          6           0      -20.357341    3.737806    1.732639
     88          6           0      -20.278343    2.832524    3.035747
     89          6           0      -20.646442    1.383262    2.456590
     90          6           0      -18.843653    2.959608    3.661435
     91          6           0      -21.639651    4.716616    1.670490
     92          6           0      -21.346443    6.239083    1.526532
     93          1           0      -19.897740    6.656791    1.969842
     94          7           0      -21.477902   -1.569718    1.674106
     95          6           0      -21.293926   -1.055294    2.974191
     96          6           0      -21.666534   -2.073488    3.933028
     97          6           0      -21.998339   -3.228563    3.213705
     98          6           0      -21.984492   -2.837274    1.755530
     99          6           0      -21.364732   -1.906249    5.429064
    100          6           0      -22.361890   -4.630475    3.770812
    101          8           0      -22.655276   -5.622941    3.078322
    102          6           0      -22.444142   -4.805744    5.296967
    103          7           0      -21.690136   -2.143455   -1.268593
    104          6           0      -22.071432   -3.387806   -0.680521
    105          6           0      -22.086047   -4.502855   -1.746950
    106          6           0      -22.117456   -3.625873   -3.084445
    107          6           0      -21.769451   -2.205080   -2.568063
    108          6           0      -20.899265   -5.427193   -1.530427
    109          6           0      -23.555797   -3.638383   -3.754570
    110          6           0      -24.897067   -3.287978   -3.024638
    111          7           0      -20.950304    0.576748   -1.751630
    112          6           0      -20.974516    0.145949   -3.081650
    113          6           0      -20.579273    1.224915   -3.927672
    114          6           0      -20.391021    2.310267   -3.091109
    115          6           0      -20.522265    1.861743   -1.753596
    116          6           0      -20.351343    1.185180   -5.424948
    117          6           0      -20.060339    3.679889   -3.070740
    118          8           0      -19.723408    4.352559   -3.992412
    119          6           0      -19.942967    4.066155   -1.538268
    120          6           0      -18.491121    4.376067   -1.298929
    121          8           0      -17.728544    3.640031   -0.708318
    122          8           0      -18.231681    5.553251   -1.880263
    123          6           0      -16.825147    5.762528   -2.122112
    124          1           0      -20.789903    0.535383    4.334421
    125          1           0      -22.210798   -4.723525    0.882367
    126          1           0      -21.423115   -1.395586   -4.508449
    127          1           0      -19.474842    4.365451    1.610206
    128          1           0      -21.021488    3.062819    3.799507
    129          1           0      -18.399338    2.021219    3.994114
    130          1           0      -19.087115    3.618439    4.494482
    131          1           0      -18.245060    3.536201    2.956624
    132          1           0      -22.273610    4.467371    2.521156
    133          1           0      -22.223641    4.407223    0.803349
    134          1           0      -22.108947    6.657174    2.182818
    135          1           0      -21.496994    6.644662    0.526499
    136          1           0      -20.749560   -2.755870    5.726466
    137          1           0      -22.292781   -1.992879    5.995745
    138          1           0      -20.875929   -0.948307    5.603878
    139          1           0      -21.419241   -4.793122    5.670105
    140          1           0      -22.799286   -5.824009    5.454542
    141          1           0      -23.214243   -4.147485    5.698389
    142          1           0      -23.066008   -4.969340   -1.641989
    143          1           0      -21.467034   -4.073689   -3.834917
    144          1           0      -20.580493   -5.478231   -0.489202
    145          1           0      -20.047225   -5.103396   -2.127723
    146          1           0      -21.160024   -6.455563   -1.779703
    147          1           0      -23.682940   -4.605200   -4.241704
    148          1           0      -23.478180   -2.836316   -4.488621
    149          1           0      -25.286561   -4.199865   -2.571805
    150          1           0      -25.566726   -2.933472   -3.809084
    151          1           0      -24.861368   -2.448007   -2.330162
    152          1           0      -21.249284    0.896844   -5.971749
    153          1           0      -19.589963    0.415476   -5.549616
    154          1           0      -20.147039    2.146749   -5.897934
    155          1           0      -20.493190    4.940789   -1.190858
    156          1           0      -16.613423    6.373296   -2.999429
    157          1           0      -16.108679    4.942234   -2.080953
    158          1           0      -16.332558    6.341176   -1.340390
 ---------------------------------------------------------------------

 SCF Done:  E(RPBE1PBE) =  -4067.38407755     A.U. after   16 cycles

 Excitation energies and oscillator strengths:

 Excited State   1:      Singlet-A      1.8555 eV  668.19 nm  f=0.3429  <S**2>=0.000
     310 -> 316       -0.16934
     312 -> 314        0.69119
     312 <- 314       -0.10746
 This state for optimization and/or second-order correction.
 Total Energy, E(TD-HF/TD-DFT) =  -4067.31588860
 Copying the excited state density for this state as the 1-particle RhoCI density.

 Excited State   2:      Singlet-A      1.8570 eV  667.66 nm  f=0.4155  <S**2>=0.000
     309 -> 315       -0.17238
     311 -> 313        0.69105
     311 <- 313       -0.11139

 Excited State   3:      Singlet-A      1.9292 eV  642.65 nm  f=0.0000  <S**2>=0.000
     312 -> 313        0.70711

 Excited State   4:      Singlet-A      2.0205 eV  613.62 nm  f=0.0000  <S**2>=0.000
     311 -> 314        0.70711

 Excited State   5:      Singlet-A      2.2290 eV  556.23 nm  f=0.0863  <S**2>=0.000
     309 -> 313        0.64379
     311 -> 315        0.27286

 The electronic state is 1-A.
 Alpha  occ. eigenvalues --  -46.91502 -46.91260 -19.26726 -19.25058 -19.20210
 Alpha  occ. eigenvalues --  -19.19377 -19.19270 -19.19024 -19.18921 -19.18471
 Alpha  occ. eigenvalues --  -14.42213 -14.41739 -14.41540 -14.40963 -14.39345
 Alpha  occ. eigenvalues --  -14.38723 -14.38675 -14.38097 -10.36242 -10.34948
 Alpha  occ. eigenvalues --  -10.32686 -10.32467 -10.31806 -10.31771 -10.29353
 Alpha  occ. eigenvalues --  -10.29326 -10.29217 -10.28924 -10.28844 -10.28535
 Alpha  occ. eigenvalues --  -10.28263 -10.28237 -10.28087 -10.27765 -10.27701
 Alpha  occ. eigenvalues --  -10.27651 -10.27592 -10.27439 -10.27402 -10.27317
 Alpha  occ. eigenvalues --  -10.27127 -10.26734 -10.26405 -10.26364 -10.26297
 Alpha  occ. eigenvalues --  -10.25985 -10.25936 -10.25799 -10.25753 -10.25691
 Alpha  occ. eigenvalues --  -10.25645 -10.25612 -10.25563 -10.25361 -10.25329
 Alpha  occ. eigenvalues --  -10.25323 -10.25283 -10.25126 -10.25007 -10.24946
 Alpha  occ. eigenvalues --  -10.24911 -10.24761 -10.24753 -10.24742 -10.24717
 Alpha  occ. eigenvalues --  -10.24707 -10.24664 -10.24507 -10.24502 -10.24349
 Alpha  occ. eigenvalues --  -10.24312 -10.24288 -10.24177 -10.23689 -10.23539
 Alpha  occ. eigenvalues --  -10.23408 -10.23367 -10.23221 -10.23197 -10.23034
 Alpha  occ. eigenvalues --  -10.23033 -10.23024 -10.22948 -10.22946 -10.22809
 Alpha  occ. eigenvalues --  -10.22166  -3.13682  -3.13498  -1.86524  -1.86356
 Alpha  occ. eigenvalues --   -1.86033  -1.85928  -1.85875  -1.85723  -1.12871
 Alpha  occ. eigenvalues --   -1.10609  -1.06610  -1.05688  -1.04270  -1.03813
 Alpha  occ. eigenvalues --   -1.03230  -1.01547  -0.99852  -0.98795  -0.98711
 Alpha  occ. eigenvalues --   -0.97942  -0.97918  -0.97316  -0.96995  -0.96016
 Alpha  occ. eigenvalues --   -0.87041  -0.86797  -0.83476  -0.83019  -0.82963
 Alpha  occ. eigenvalues --   -0.82642  -0.82372  -0.82056  -0.81877  -0.81349
 Alpha  occ. eigenvalues --   -0.81250  -0.80991  -0.80838  -0.80396  -0.78899
 Alpha  occ. eigenvalues --   -0.78215  -0.77990  -0.77654  -0.76789  -0.76705
 Alpha  occ. eigenvalues --   -0.76561  -0.75709  -0.75512  -0.75214  -0.75093
 Alpha  occ. eigenvalues --   -0.74223  -0.73124  -0.72113  -0.72083  -0.71569
 Alpha  occ. eigenvalues --   -0.71405  -0.71038  -0.70201  -0.70125  -0.69518
 Alpha  occ. eigenvalues --   -0.69374  -0.67374  -0.67233  -0.66266  -0.65667
 Alpha  occ. eigenvalues --   -0.63675  -0.63265  -0.63257  -0.63094  -0.62717
 Alpha  occ. eigenvalues --   -0.62342  -0.61343  -0.60892  -0.60289  -0.60089
 Alpha  occ. eigenvalues --   -0.59907  -0.59108  -0.59095  -0.59047  -0.58751
 Alpha  occ. eigenvalues --   -0.58415  -0.56939  -0.56000  -0.55064  -0.54471
 Alpha  occ. eigenvalues --   -0.54281  -0.53949  -0.53587  -0.53566  -0.53442
 Alpha  occ. eigenvalues --   -0.52778  -0.52619  -0.52568  -0.51853  -0.51690
 Alpha  occ. eigenvalues --   -0.50969  -0.50718  -0.50327  -0.50323  -0.49758
 Alpha  occ. eigenvalues --   -0.49536  -0.49351  -0.49079  -0.49056  -0.48522
 Alpha  occ. eigenvalues --   -0.48398  -0.47828  -0.47785  -0.47785  -0.47360
 Alpha  occ. eigenvalues --   -0.47129  -0.47036  -0.46899  -0.46830  -0.46730
 Alpha  occ. eigenvalues --   -0.46541  -0.46401  -0.46234  -0.45873  -0.45606
 Alpha  occ. eigenvalues --   -0.45589  -0.45430  -0.45113  -0.45065  -0.44805
 Alpha  occ. eigenvalues --   -0.44555  -0.44458  -0.44431  -0.44082  -0.44051
 Alpha  occ. eigenvalues --   -0.43935  -0.43845  -0.43691  -0.43596  -0.43553
 Alpha  occ. eigenvalues --   -0.43303  -0.43218  -0.42991  -0.42854  -0.42624
 Alpha  occ. eigenvalues --   -0.42472  -0.42408  -0.42200  -0.42137  -0.41802
 Alpha  occ. eigenvalues --   -0.41715  -0.41581  -0.41371  -0.41341  -0.41214
 Alpha  occ. eigenvalues --   -0.41053  -0.40975  -0.40957  -0.40784  -0.40442
 Alpha  occ. eigenvalues --   -0.40287  -0.39903  -0.39827  -0.39771  -0.39690
 Alpha  occ. eigenvalues --   -0.39571  -0.39527  -0.39261  -0.39235  -0.39045
 Alpha  occ. eigenvalues --   -0.38973  -0.38865  -0.38521  -0.38493  -0.38406
 Alpha  occ. eigenvalues --   -0.38178  -0.38068  -0.37906  -0.37781  -0.37668
 Alpha  occ. eigenvalues --   -0.37543  -0.37509  -0.37274  -0.36895  -0.36767
 Alpha  occ. eigenvalues --   -0.36653  -0.36639  -0.36326  -0.36239  -0.36136
 Alpha  occ. eigenvalues --   -0.35810  -0.35723  -0.35669  -0.35289  -0.35199
 Alpha  occ. eigenvalues --   -0.35082  -0.34517  -0.34457  -0.34205  -0.34115
 Alpha  occ. eigenvalues --   -0.33751  -0.32727  -0.32699  -0.32494  -0.32297
 Alpha  occ. eigenvalues --   -0.32105  -0.31962  -0.31915  -0.31564  -0.31340
 Alpha  occ. eigenvalues --   -0.31228  -0.30987  -0.29633  -0.29481  -0.29249
 Alpha  occ. eigenvalues --   -0.29211  -0.28283  -0.27880  -0.27157  -0.26610
 Alpha  occ. eigenvalues --   -0.26165  -0.26056  -0.25607  -0.25491  -0.25341
 Alpha  occ. eigenvalues --   -0.25192  -0.25187  -0.24673  -0.21115  -0.20704
 Alpha  occ. eigenvalues --   -0.18767  -0.18631
 Alpha virt. eigenvalues --   -0.11226  -0.11027  -0.05367  -0.04943  -0.03654
 Alpha virt. eigenvalues --   -0.03588  -0.01936  -0.01717  -0.00353   0.00524
 Alpha virt. eigenvalues --    0.00562   0.00814   0.01350   0.01589   0.01696

 Mulliken charges:
               1
     1  Mg  11.999804
     2  C    5.998670
     3  C    6.001192
     4  C    6.001091
     5  C    5.999194
     6  N    6.999624
     7  C    6.002458
     8  C    5.999501
     9  C    6.000461
    10  C    5.997949
    11  C    6.000090
    12  C    5.999641
    13  C    6.000122
    14  H    0.999916
    15  N    7.000247
    16  C    5.997379
    17  C    5.997897
    18  C    5.999429
    19  C    5.997576
    20  C    6.000407
    21  C    5.999078
    22  O    7.998367
    23  C    6.000549
    24  N    7.000292
    25  C    5.996957
    26  C    6.000661
    27  C    5.998963
    28  C    6.002656
    29  C    6.000180
    30  C    5.999791
    31  C    5.999978
    32  N    6.999825
    33  C    6.002317
    34  C    6.002300
    35  C    6.000177
    36  C    6.002282
    37  C    5.999884
    38  C    6.001301
    39  O    8.002260
    40  C    6.000248
    41  C    6.000255
    42  O    8.000347
    43  O    8.000092
    44  C    5.999938
    45  H    0.999358
    46  H    0.999306
    47  H    1.000844
    48  H    0.999930
    49  H    1.000074
    50  H    1.000309
    51  H    0.999982
    52  H    0.999087
    53  H    1.000489
    54  H    0.999589
    55  H    1.000476
    56  H    1.000215
    57  H    0.998507
    58  H    0.998329
    59  H    0.998530
    60  H    0.999598
    61  H    0.998929
    62  H    0.999481
    63  H    1.000084
    64  H    1.000144
    65  H    0.999853
    66  H    1.000212
    67  H    0.999070
    68  H    0.999801
    69  H    1.000874
    70  H    0.999691
    71  H    1.000408
    72  H    1.000114
    73  H    1.001350
    74  H    1.001002
    75  H    1.001572
    76  H    1.000567
    77  H    1.000278
    78  H    1.000113
    79  H    1.000483
    80  Mg  11.997271
    81  C    6.017490
    82  C    5.988932
    83  C    5.979113
    84  C    5.996094
    85  N    7.006203
    86  C    5.972477
    87  C    6.009141
    88  C    5.991560
    89  C    6.028300
    90  C    5.996879
    91  C    6.003579
    92  C    6.002240
    93  H    0.996335
    94  N    6.995388
    95  C    6.043416
    96  C    6.015988
    97  C    6.015538
    98  C    6.037716
    99  C    5.998277
   100  C    6.012830
   101  O    8.029563
   102  C    5.994650
   103  N    6.990497
   104  C    6.032441
   105  C    5.992040
   106  C    6.010424
   107  C    5.977007
   108  C    5.996315
   109  C    6.006350
   110  C    5.996041
   111  N    7.003877
   112  C    5.971524
   113  C    5.969300
   114  C    6.000843
   115  C    5.970114
   116  C    5.999445
   117  C    5.981870
   118  O    7.972662
   119  C    5.998833
   120  C    5.997965
   121  O    7.989660
   122  O    8.000805
   123  C    6.004864
   124  H    1.010716
   125  H    1.004284
   126  H    0.988382
   127  H    1.000421
   128  H    1.000242
   129  H    0.996553
   130  H    1.004700
   131  H    1.012386
   132  H    0.989006
   133  H    1.004072
   134  H    0.996040
   135  H    1.003637
   136  H    1.015026
   137  H    1.016692
   138  H    1.015980
   139  H    1.007998
   140  H    1.014005
   141  H    1.007124
   142  H    0.998769
   143  H    0.996885
   144  H    0.991892
   145  H    1.011050
   146  H    1.004461
   147  H    0.991207
   148  H    1.005865
   149  H    0.992117
   150  H    1.001109
   151  H    0.998341
   152  H    0.981663
   153  H    0.984192
   154  H    0.987309
   155  H    0.989015
   156  H    0.997309
   157  H    0.997008
   158  H    0.992686
 Sum of Mulliken charges = 624.00000

 Dipole moment (field-independent basis, Debye):
    X=             -0.6881    Y=             -5.0305    Z=              8.4660  Tot=              9.8718
 Quadrupole moment (field-independent basis, Debye-Ang):
   XX=             86.7983   YY=              3.9168   ZZ=              1.0518
   XY=            112.9935   XZ=           -192.3065   YZ=             -5.5535

 Normal termination of Gaussian 16 at Fri Oct 15 05:27:48 2021.
