 Gaussian 16, Revision A.03,
 Gaussian 16:  ES64L-G16RevA.03 25-Dec-2016

 --------------------------------------------------------
 #p PBE1PBE/Def2SVP td=(nstates=5) density=(transition=1)
 --------------------------------------------------------

 --------------------------------
 TDDFT excited states in gaussian
 --------------------------------
 Symbolic Z-matrix:
 Charge =  0 Multiplicity = 1

                         Standard orientation:
 ---------------------------------------------------------------------
 Center     Atomic      Atomic             Coordinates (Angstroms)
 Number     Number       Type             X           Y           Z
 ---------------------------------------------------------------------
      1         12           0      -31.360859   -0.622915   -0.279158
      2          6           0      -28.358395    1.472769   -0.521922
      3          6           0      -29.288987   -2.892355    1.313535
      4          6           0      -34.015200   -1.957302    0.880047
      5          6           0      -33.122822    2.227099   -1.577111
      6          7           0      -29.011740   -0.582491    0.452130
      7          6           0      -28.013527    0.341933    0.234706
      8          6           0      -26.706662   -0.118621    0.978186
      9          6           0      -26.948693   -1.603620    1.299750
     10          6           0      -28.494399   -1.708533    1.010509
     11          6           0      -26.175789   -2.698436    0.453060
     12          6           0      -26.340649    0.768198    2.217328
     13          6           0      -24.870303    1.062193    2.423390
     14          1           0      -24.136291    0.233195    3.523640
     15          7           0      -31.638951   -2.251916    0.810029
     16          6           0      -30.704223   -3.127451    1.291950
     17          6           0      -31.379596   -4.237139    2.018762
     18          6           0      -32.762911   -3.940013    1.907326
     19          6           0      -32.847963   -2.655964    1.216004
     20          6           0      -30.709000   -5.387915    2.786701
     21          6           0      -33.945401   -4.636814    2.586529
     22          8           0      -33.702224   -5.650892    3.235079
     23          6           0      -35.289007   -4.220133    2.495486
     24          7           0      -33.302724    0.216277   -0.124781
     25          6           0      -34.251593   -0.735771    0.191071
     26          6           0      -35.675040   -0.124203   -0.107410
     27          6           0      -35.354806    1.332665   -0.599769
     28          6           0      -33.836804    1.211646   -0.875320
     29          6           0      -36.560163   -0.929781   -1.097676
     30          6           0      -35.728167    2.554355    0.333183
     31          6           0      -37.190753    3.031677    0.349418
     32          7           0      -30.930920    1.433293   -0.984201
     33          6           0      -31.735402    2.380138   -1.586088
     34          6           0      -30.967045    3.479822   -2.117250
     35          6           0      -29.613568    3.152738   -1.730599
     36          6           0      -29.591071    1.923280   -0.983900
     37          6           0      -31.564107    4.671510   -2.800165
     38          6           0      -28.307579    3.641176   -1.741880
     39          8           0      -27.860376    4.733633   -2.063919
     40          6           0      -27.456546    2.674961   -0.867875
     41          6           0      -26.327853    2.240276   -1.773345
     42          8           0      -25.141088    2.260790   -1.437550
     43          8           0      -26.733214    1.630042   -3.028061
     44          6           0      -25.637156    0.915646   -3.680609
     45          1           0      -28.646333   -3.657199    1.753395
     46          1           0      -35.004712   -2.386588    1.050416
     47          1           0      -33.786587    2.969439   -2.025026
     48          1           0      -25.896838   -0.172155    0.249174
     49          1           0      -26.842665   -1.810236    2.364718
     50          1           0      -25.415266   -3.082759    1.132440
     51          1           0      -25.650579   -2.247307   -0.388307
     52          1           0      -26.795969   -3.482154    0.018140
     53          1           0      -26.569040    0.316768    3.183146
     54          1           0      -26.819802    1.744334    2.139002
     55          1           0      -24.780446    2.138808    2.568164
     56          1           0      -24.355925    0.827051    1.491060
     57          1           0      -31.257517   -6.314512    2.615363
     58          1           0      -30.712094   -5.045855    3.821568
     59          1           0      -29.701262   -5.570503    2.416054
     60          1           0      -35.613737   -4.354585    1.463211
     61          1           0      -35.485055   -3.217645    2.875986
     62          1           0      -35.754687   -4.876358    3.231547
     63          1           0      -36.300271   -0.016606    0.778303
     64          1           0      -35.784579    1.522541   -1.583007
     65          1           0      -36.795330   -0.231207   -1.900785
     66          1           0      -37.472012   -1.223391   -0.578588
     67          1           0      -35.923529   -1.768912   -1.380794
     68          1           0      -35.094590    3.358428   -0.042600
     69          1           0      -35.544356    2.315312    1.380850
     70          1           0      -37.619745    2.386887   -0.418135
     71          1           0      -37.280973    4.042552   -0.050749
     72          1           0      -37.735158    2.934014    1.288353
     73          1           0      -32.267990    5.089877   -2.081906
     74          1           0      -32.186343    4.415159   -3.657420
     75          1           0      -30.847168    5.478959   -2.949388
     76          1           0      -27.036279    3.270976   -0.058016
     77          1           0      -26.275348    0.226124   -4.234511
     78          1           0      -24.901235    0.548249   -2.965420
     79          1           0      -25.217563    1.605502   -4.412929
     80         12           0       30.406440    0.423253    0.484448
     81          6           0       30.889440   -2.297898   -1.539807
     82          6           0       28.667195    1.937088   -1.940979
     83          6           0       30.228048    3.116400    2.503926
     84          6           0       32.729673   -1.052328    2.860268
     85          7           0       30.077281   -0.053410   -1.654787
     86          6           0       30.252297   -1.247214   -2.234237
     87          6           0       29.625670   -1.255931   -3.721838
     88          6           0       28.929246    0.156132   -3.729287
     89          6           0       29.262906    0.780857   -2.359550
     90          6           0       29.284643    1.015741   -4.957992
     91          6           0       28.646277   -2.435160   -3.983602
     92          6           0       27.709983   -2.357987   -5.233526
     93          1           0       28.093350   -3.228229   -6.490109
     94          7           0       29.594836    2.308730    0.281375
     95          6           0       28.842965    2.708156   -0.723174
     96          6           0       28.360178    4.050574   -0.436791
     97          6           0       28.879777    4.497350    0.815279
     98          6           0       29.603406    3.286462    1.261232
     99          6           0       27.569724    4.926963   -1.394274
    100          6           0       28.780765    5.852231    1.508511
    101          8           0       29.529417    6.145013    2.436319
    102          6           0       27.757146    6.824498    1.036245
    103          7           0       31.391666    0.967381    2.396934
    104          6           0       31.103951    2.101741    3.024043
    105          6           0       31.708174    2.150208    4.437219
    106          6           0       32.286943    0.742133    4.548834
    107          6           0       32.152714    0.208898    3.171381
    108          6           0       32.701430    3.276709    4.758929
    109          6           0       31.756160   -0.051771    5.715598
    110          6           0       32.805104   -0.462721    6.809612
    111          7           0       31.512827   -1.284438    0.682547
    112          6           0       32.348974   -1.809661    1.724173
    113          6           0       32.769735   -3.160791    1.425070
    114          6           0       32.175555   -3.348963    0.146186
    115          6           0       31.460284   -2.208098   -0.239029
    116          6           0       33.471233   -4.182754    2.248354
    117          6           0       31.931964   -4.420703   -0.785991
    118          8           0       32.126829   -5.645247   -0.766653
    119          6           0       31.221428   -3.822885   -1.974525
    120          6           0       32.214176   -3.763664   -3.156401
    121          8           0       33.406812   -3.423376   -3.127217
    122          8           0       31.541714   -4.151331   -4.277139
    123          6           0       32.307208   -4.212330   -5.562536
    124          1           0       27.985107    2.484080   -2.595221
    125          1           0       30.390468    4.000928    3.123353
    126          1           0       33.306730   -1.486806    3.678537
    127          1           0       30.501205   -1.272609   -4.369869
    128          1           0       27.852289   -0.011344   -3.716392
    129          1           0       28.358421    1.477502   -5.298296
    130          1           0       29.654116    0.410760   -5.786066
    131          1           0       30.022161    1.776182   -4.700998
    132          1           0       27.926373   -2.389732   -3.166444
    133          1           0       29.202317   -3.368597   -4.070131
    134          1           0       27.788733   -1.342261   -5.622443
    135          1           0       26.707645   -2.665252   -4.937180
    136          1           0       27.368881    4.410202   -2.332715
    137          1           0       28.136030    5.831975   -1.612817
    138          1           0       26.617219    5.238298   -0.967311
    139          1           0       26.827840    6.256309    0.986870
    140          1           0       27.832774    7.352323    0.086056
    141          1           0       27.627208    7.664897    1.717263
    142          1           0       30.884781    2.258662    5.142342
    143          1           0       33.353715    0.848625    4.744903
    144          1           0       32.449750    3.564518    5.779377
    145          1           0       32.629929    4.074678    4.019997
    146          1           0       33.749278    2.998097    4.647611
    147          1           0       31.443015   -0.992017    5.262864
    148          1           0       30.945483    0.443710    6.249050
    149          1           0       33.797600   -0.113271    6.523873
    150          1           0       32.826446   -1.552479    6.841505
    151          1           0       32.554686   -0.173792    7.830453
    152          1           0       33.554918   -3.840723    3.279576
    153          1           0       34.494328   -4.194831    1.874318
    154          1           0       32.864961   -5.084065    2.147061
    155          1           0       30.399372   -4.512584   -2.166875
    156          1           0       32.933754   -3.344765   -5.771030
    157          1           0       31.695991   -4.416492   -6.441024
    158          1           0       33.015354   -5.031090   -5.436154
 ---------------------------------------------------------------------

 SCF Done:  E(RPBE1PBE) =  -4067.32860235     A.U. after   16 cycles

 Excitation energies and oscillator strengths:

 Excited State   1:      Singlet-A      1.8703 eV  662.91 nm  f=0.3329  <S**2>=0.000
     309 -> 315        0.19147
     311 -> 313        0.68639
 This state for optimization and/or second-order correction.
 Total Energy, E(TD-HF/TD-DFT) =  -4067.25986977
 Copying the excited state density for this state as the 1-particle RhoCI density.

 Excited State   2:      Singlet-A      1.8791 eV  659.82 nm  f=0.3962  <S**2>=0.000
     310 -> 316        0.16679
     312 -> 314        0.69060
     312 <- 314       -0.10564

 Excited State   3:      Singlet-A      1.9489 eV  636.16 nm  f=0.0000  <S**2>=0.000
     312 -> 313        0.70711

 Excited State   4:      Singlet-A      2.1464 eV  577.63 nm  f=0.0000  <S**2>=0.000
     311 -> 314        0.70711

 Excited State   5:      Singlet-A      2.2322 eV  555.44 nm  f=0.0728  <S**2>=0.000
     308 -> 313        0.10212
     309 -> 313        0.63201
     311 -> 315       -0.29401

 The electronic state is 1-A.
 Alpha  occ. eigenvalues --  -46.94154 -46.92575 -19.26288 -19.24396 -19.20350
 Alpha  occ. eigenvalues --  -19.19722 -19.19656 -19.18947 -19.18199 -19.17994
 Alpha  occ. eigenvalues --  -14.42097 -14.41654 -14.41441 -14.41372 -14.40342
 Alpha  occ. eigenvalues --  -14.39628 -14.38955 -14.38927 -10.36626 -10.36477
 Alpha  occ. eigenvalues --  -10.33142 -10.31988 -10.30720 -10.30530 -10.29943
 Alpha  occ. eigenvalues --  -10.29575 -10.29482 -10.29403 -10.29403 -10.29092
 Alpha  occ. eigenvalues --  -10.28884 -10.28803 -10.28642 -10.28242 -10.28095
 Alpha  occ. eigenvalues --  -10.28020 -10.27905 -10.27797 -10.27790 -10.27262
 Alpha  occ. eigenvalues --  -10.27166 -10.27147 -10.26865 -10.26695 -10.26678
 Alpha  occ. eigenvalues --  -10.26666 -10.26425 -10.26273 -10.26212 -10.26194
 Alpha  occ. eigenvalues --  -10.26138 -10.26135 -10.26020 -10.25984 -10.25981
 Alpha  occ. eigenvalues --  -10.25837 -10.25819 -10.25585 -10.25573 -10.25179
 Alpha  occ. eigenvalues --  -10.25086 -10.25065 -10.24944 -10.24824 -10.24670
 Alpha  occ. eigenvalues --  -10.24542 -10.24497 -10.24451 -10.24437 -10.24428
 Alpha  occ. eigenvalues --  -10.24352 -10.24115 -10.24042 -10.23971 -10.23951
 Alpha  occ. eigenvalues --  -10.23893 -10.23768 -10.23763 -10.23641 -10.23623
 Alpha  occ. eigenvalues --  -10.23526 -10.23318 -10.23153 -10.23137 -10.23099
 Alpha  occ. eigenvalues --  -10.22194  -3.16146  -3.14681  -1.88928  -1.88572
 Alpha  occ. eigenvalues --   -1.88333  -1.87512  -1.87049  -1.86917  -1.10342
 Alpha  occ. eigenvalues --   -1.08687  -1.05122  -1.05030  -1.03814  -1.02744
 Alpha  occ. eigenvalues --   -1.01370  -1.01200  -1.00328  -0.99583  -0.99036
 Alpha  occ. eigenvalues --   -0.98561  -0.98022  -0.97914  -0.97668  -0.95858
 Alpha  occ. eigenvalues --   -0.87332  -0.85662  -0.84221  -0.83270  -0.83217
 Alpha  occ. eigenvalues --   -0.82993  -0.82790  -0.82477  -0.81774  -0.81463
 Alpha  occ. eigenvalues --   -0.81303  -0.81288  -0.81139  -0.80366  -0.79253
 Alpha  occ. eigenvalues --   -0.78460  -0.78137  -0.77945  -0.77593  -0.76853
 Alpha  occ. eigenvalues --   -0.76495  -0.76386  -0.75549  -0.75392  -0.74414
 Alpha  occ. eigenvalues --   -0.74253  -0.72856  -0.72533  -0.71831  -0.71686
 Alpha  occ. eigenvalues --   -0.71336  -0.71032  -0.70390  -0.70155  -0.69695
 Alpha  occ. eigenvalues --   -0.69629  -0.67358  -0.67098  -0.66401  -0.66138
 Alpha  occ. eigenvalues --   -0.63774  -0.63521  -0.63445  -0.63060  -0.62206
 Alpha  occ. eigenvalues --   -0.62175  -0.61981  -0.61400  -0.60289  -0.60031
 Alpha  occ. eigenvalues --   -0.59855  -0.59492  -0.59457  -0.58914  -0.58625
 Alpha  occ. eigenvalues --   -0.58426  -0.57204  -0.56422  -0.55228  -0.54901
 Alpha  occ. eigenvalues --   -0.54446  -0.54228  -0.53795  -0.53532  -0.53469
 Alpha  occ. eigenvalues --   -0.53256  -0.52612  -0.51872  -0.51870  -0.51564
 Alpha  occ. eigenvalues --   -0.51236  -0.50891  -0.50293  -0.50228  -0.49659
 Alpha  occ. eigenvalues --   -0.49374  -0.49109  -0.48752  -0.48638  -0.48444
 Alpha  occ. eigenvalues --   -0.48317  -0.48302  -0.48137  -0.47996  -0.47869
 Alpha  occ. eigenvalues --   -0.47487  -0.47140  -0.47136  -0.47081  -0.46768
 Alpha  occ. eigenvalues --   -0.46618  -0.46429  -0.46372  -0.45930  -0.45756
 Alpha  occ. eigenvalues --   -0.45659  -0.45612  -0.45325  -0.45258  -0.45015
 Alpha  occ. eigenvalues --   -0.44572  -0.44533  -0.44514  -0.44375  -0.44212
 Alpha  occ. eigenvalues --   -0.44077  -0.43959  -0.43890  -0.43641  -0.43603
 Alpha  occ. eigenvalues --   -0.43554  -0.43320  -0.43192  -0.43054  -0.42867
 Alpha  occ. eigenvalues --   -0.42852  -0.42651  -0.42455  -0.42425  -0.42284
 Alpha  occ. eigenvalues --   -0.41942  -0.41888  -0.41480  -0.41462  -0.41167
 Alpha  occ. eigenvalues --   -0.41158  -0.40929  -0.40897  -0.40664  -0.40623
 Alpha  occ. eigenvalues --   -0.40177  -0.39766  -0.39705  -0.39552  -0.39513
 Alpha  occ. eigenvalues --   -0.39292  -0.39268  -0.39167  -0.39132  -0.38955
 Alpha  occ. eigenvalues --   -0.38849  -0.38796  -0.38746  -0.38665  -0.38499
 Alpha  occ. eigenvalues --   -0.38363  -0.38068  -0.37753  -0.37671  -0.37428
 Alpha  occ. eigenvalues --   -0.37378  -0.37165  -0.37000  -0.36863  -0.36843
 Alpha  occ. eigenvalues --   -0.36792  -0.36756  -0.36733  -0.36385  -0.36375
 Alpha  occ. eigenvalues --   -0.36185  -0.35947  -0.35677  -0.35389  -0.35201
 Alpha  occ. eigenvalues --   -0.35082  -0.34859  -0.34280  -0.34218  -0.34002
 Alpha  occ. eigenvalues --   -0.33821  -0.33230  -0.32900  -0.32868  -0.32577
 Alpha  occ. eigenvalues --   -0.32183  -0.32084  -0.31661  -0.31368  -0.31201
 Alpha  occ. eigenvalues --   -0.31015  -0.30277  -0.29688  -0.29496  -0.29244
 Alpha  occ. eigenvalues --   -0.29131  -0.28671  -0.28430  -0.27128  -0.26774
 Alpha  occ. eigenvalues --   -0.26673  -0.26621  -0.26137  -0.26094  -0.25360
 Alpha  occ. eigenvalues --   -0.25185  -0.24789  -0.24454  -0.21401  -0.20855
 Alpha  occ. eigenvalues --   -0.19128  -0.18726
 Alpha virt. eigenvalues --   -0.11350  -0.11025  -0.06129  -0.05329  -0.04394
 Alpha virt. eigenvalues --   -0.03582  -0.02437  -0.02170  -0.01872  -0.00835
 Alpha virt. eigenvalues --    0.00075   0.00120   0.00790   0.00953   0.01358

 Mulliken charges:
               1
     1  Mg  12.003229
     2  C    5.985014
     3  C    5.999347
     4  C    6.028434
     5  C    5.988967
     6  N    6.990245
     7  C    6.027185
     8  C    5.994671
     9  C    6.004038
    10  C    5.973789
    11  C    6.006889
    12  C    5.998451
    13  C    5.998705
    14  H    1.008092
    15  N    7.007452
    16  C    5.966491
    17  C    5.975160
    18  C    5.997065
    19  C    5.962923
    20  C    6.000908
    21  C    5.987108
    22  O    7.983287
    23  C    6.003849
    24  N    7.000935
    25  C    5.962277
    26  C    6.010481
    27  C    5.994666
    28  C    6.032562
    29  C    6.000664
    30  C    5.996919
    31  C    6.001236
    32  N    6.996641
    33  C    6.027491
    34  C    6.036567
    35  C    5.993149
    36  C    6.037813
    37  C    5.999371
    38  C    6.016660
    39  O    8.027799
    40  C    5.998205
    41  C    6.003703
    42  O    8.009131
    43  O    7.996490
    44  C    5.998630
    45  H    0.988425
    46  H    0.993789
    47  H    1.008296
    48  H    0.998941
    49  H    0.999856
    50  H    0.994205
    51  H    0.986888
    52  H    1.002814
    53  H    1.008170
    54  H    0.993122
    55  H    0.997387
    56  H    0.999143
    57  H    0.986224
    58  H    0.983596
    59  H    0.985325
    60  H    0.991921
    61  H    0.989963
    62  H    0.989448
    63  H    0.996452
    64  H    0.997435
    65  H    0.989920
    66  H    0.999573
    67  H    1.003005
    68  H    0.993367
    69  H    1.008893
    70  H    1.004365
    71  H    0.998954
    72  H    1.005313
    73  H    1.019446
    74  H    1.019796
    75  H    1.013401
    76  H    1.007346
    77  H    1.004174
    78  H    1.006358
    79  H    1.002000
    80  Mg  12.000003
    81  C    5.999780
    82  C    6.000411
    83  C    6.000004
    84  C    5.999821
    85  N    6.999972
    86  C    6.000470
    87  C    5.999875
    88  C    6.000136
    89  C    5.999481
    90  C    6.000027
    91  C    5.999931
    92  C    6.000018
    93  H    0.999999
    94  N    7.000053
    95  C    5.999325
    96  C    5.999756
    97  C    5.999714
    98  C    5.999638
    99  C    6.000032
   100  C    5.999801
   101  O    7.999634
   102  C    6.000094
   103  N    7.000000
   104  C    5.999540
   105  C    6.000150
   106  C    5.999819
   107  C    6.000539
   108  C    6.000020
   109  C    5.999995
   110  C    5.999995
   111  N    6.999970
   112  C    6.000574
   113  C    6.000369
   114  C    6.000124
   115  C    6.000388
   116  C    5.999991
   117  C    6.000253
   118  O    8.000517
   119  C    5.999972
   120  C    6.000096
   121  O    8.000026
   122  O    8.000036
   123  C    5.999982
   124  H    0.999911
   125  H    0.999890
   126  H    1.000174
   127  H    0.999993
   128  H    0.999982
   129  H    1.000006
   130  H    0.999854
   131  H    1.000027
   132  H    1.000055
   133  H    0.999921
   134  H    1.000087
   135  H    1.000028
   136  H    0.999707
   137  H    0.999730
   138  H    0.999719
   139  H    0.999918
   140  H    0.999852
   141  H    0.999779
   142  H    1.000001
   143  H    1.000001
   144  H    0.999937
   145  H    1.000090
   146  H    0.999859
   147  H    0.999922
   148  H    1.000164
   149  H    1.000025
   150  H    0.999964
   151  H    1.000082
   152  H    1.000247
   153  H    1.000246
   154  H    1.000184
   155  H    1.000140
   156  H    1.000067
   157  H    1.000085
   158  H    1.000025
 Sum of Mulliken charges = 624.00000

 Dipole moment (field-independent basis, Debye):
    X=              1.6955    Y=              8.4826    Z=             -4.3623  Tot=              9.6881
 Quadrupole moment (field-independent basis, Debye-Ang):
   XX=            -95.6683   YY=             -5.4360   ZZ=              0.6774
   XY=           -273.3501   XZ=            136.3914   YZ=              1.7101

 Normal termination of Gaussian 16 at Fri Oct 15 07:36:36 2021.
