 Gaussian 16, Revision A.03,
 Gaussian 16:  ES64L-G16RevA.03 25-Dec-2016

 --------------------------------------------------------
 #p PBE1PBE/Def2SVP td=(nstates=5) density=(transition=1)
 --------------------------------------------------------

 --------------------------------
 TDDFT excited states in gaussian
 --------------------------------
 Symbolic Z-matrix:
 Charge =  0 Multiplicity = 1

                         Standard orientation:
 ---------------------------------------------------------------------
 Center     Atomic      Atomic             Coordinates (Angstroms)
 Number     Number       Type             X           Y           Z
 ---------------------------------------------------------------------
      1         12           0       20.350041   -0.756380    0.254167
      2          6           0       19.600884    2.357438   -1.092233
      3          6           0       21.022741    0.913574    3.218691
      4          6           0       21.573209   -3.697730    1.445202
      5          6           0       19.794067   -2.194641   -2.840699
      6          7           0       20.365715    1.401480    0.956030
      7          6           0       19.983949    2.527264    0.242252
      8          6           0       20.163078    3.878727    1.039329
      9          6           0       20.933624    3.341969    2.307330
     10          6           0       20.813450    1.780638    2.156834
     11          6           0       22.400033    3.707989    2.554672
     12          6           0       18.800923    4.547579    1.299718
     13          6           0       18.481873    5.786767    0.505502
     14          1           0       17.702608    6.896015    1.234118
     15          7           0       21.003723   -1.400695    2.113249
     16          6           0       21.116766   -0.558463    3.175108
     17          6           0       21.631815   -1.388555    4.281483
     18          6           0       21.896046   -2.677917    3.793717
     19          6           0       21.497797   -2.672460    2.439757
     20          6           0       21.687122   -0.866011    5.659626
     21          6           0       22.504976   -3.865751    4.479425
     22          8           0       22.585329   -5.009045    3.950243
     23          6           0       23.085964   -3.822069    5.784419
     24          7           0       20.561979   -2.642523   -0.528395
     25          6           0       21.062938   -3.708113    0.154323
     26          6           0       21.129195   -4.947586   -0.648153
     27          6           0       20.502872   -4.503849   -2.018789
     28          6           0       20.339373   -3.046683   -1.800261
     29          6           0       22.443665   -5.752603   -0.868712
     30          6           0       19.193846   -5.318719   -2.475819
     31          6           0       17.757261   -4.960663   -1.991922
     32          7           0       19.852387   -0.124793   -1.614984
     33          6           0       19.623558   -0.819009   -2.767997
     34          6           0       19.069916    0.023619   -3.735813
     35          6           0       19.137434    1.326566   -3.107683
     36          6           0       19.593739    1.162631   -1.814972
     37          6           0       18.523427   -0.354847   -5.111148
     38          6           0       18.747171    2.690726   -3.320404
     39          8           0       18.156203    3.281245   -4.201534
     40          6           0       19.266763    3.464536   -2.058316
     41          6           0       20.442322    4.281505   -2.419266
     42          8           0       21.617676    4.105802   -2.029494
     43          8           0       20.180068    5.292198   -3.276463
     44          6           0       21.228102    6.337234   -3.536891
     45          1           0       21.293973    1.451921    4.128525
     46          1           0       21.986634   -4.659766    1.755677
     47          1           0       19.435506   -2.596704   -3.791085
     48          1           0       20.948512    4.504823    0.614717
     49          1           0       20.334938    3.653807    3.163098
     50          1           0       23.034330    2.831776    2.418354
     51          1           0       22.486862    3.895185    3.623947
     52          1           0       22.784948    4.537133    1.959984
     53          1           0       18.838094    4.864747    2.342549
     54          1           0       18.027842    3.783097    1.222193
     55          1           0       17.885291    5.478071   -0.353329
     56          1           0       19.336670    6.287438    0.050588
     57          1           0       21.008212   -1.503116    6.224972
     58          1           0       21.431484    0.176659    5.852646
     59          1           0       22.692590   -0.998363    6.059064
     60          1           0       23.689903   -2.915149    5.797211
     61          1           0       23.536689   -4.780125    6.040177
     62          1           0       22.333056   -3.606419    6.542568
     63          1           0       20.433975   -5.559697   -0.074361
     64          1           0       21.251407   -4.601632   -2.804186
     65          1           0       22.405018   -6.736008   -0.400099
     66          1           0       23.296656   -5.245854   -0.416095
     67          1           0       22.717002   -5.856720   -1.918672
     68          1           0       19.397736   -6.312366   -2.076257
     69          1           0       19.321098   -5.303504   -3.558364
     70          1           0       17.668484   -4.022364   -1.444979
     71          1           0       17.203658   -5.761378   -1.500710
     72          1           0       17.195386   -4.868260   -2.920436
     73          1           0       19.016766    0.197474   -5.911621
     74          1           0       17.477127   -0.051267   -5.141692
     75          1           0       18.521956   -1.424996   -5.319894
     76          1           0       18.517738    4.216507   -1.809525
     77          1           0       20.567343    7.069260   -4.001470
     78          1           0       22.044707    6.021493   -4.185338
     79          1           0       21.653543    6.674411   -2.591178
     80         12           0      -20.900574   -0.402343   -0.163673
     81          6           0      -18.534320    2.034043    0.025962
     82          6           0      -23.267127    1.701888    1.181145
     83          6           0      -23.099337   -2.975201   -0.245001
     84          6           0      -18.341318   -2.658569   -1.086392
     85          7           0      -20.835467    1.583522    0.734259
     86          6           0      -19.855747    2.460166    0.386848
     87          6           0      -20.228301    3.886417    0.611631
     88          6           0      -21.703834    3.681614    1.237637
     89          6           0      -21.980067    2.226050    1.049036
     90          6           0      -21.786216    4.105324    2.773772
     91          6           0      -20.271286    4.637426   -0.800099
     92          6           0      -20.106746    6.158757   -0.790700
     93          1           0      -20.213509    7.042385    0.477095
     94          7           0      -22.930860   -0.631771    0.283207
     95          6           0      -23.726367    0.372468    0.858672
     96          6           0      -25.041486   -0.191889    1.055302
     97          6           0      -25.015097   -1.532361    0.619643
     98          6           0      -23.649437   -1.725362    0.151729
     99          6           0      -26.207042    0.667032    1.598945
    100          6           0      -26.202314   -2.626566    0.718890
    101          8           0      -26.132404   -3.738879    0.180987
    102          6           0      -27.520806   -2.394613    1.438271
    103          7           0      -20.721338   -2.545890   -0.686229
    104          6           0      -21.795430   -3.365048   -0.586754
    105          6           0      -21.390510   -4.833388   -0.705706
    106          6           0      -19.878811   -4.707133   -1.318328
    107          6           0      -19.612494   -3.204466   -1.137538
    108          6           0      -21.576210   -5.723308    0.607372
    109          6           0      -19.717601   -4.990063   -2.897419
    110          6           0      -18.634762   -5.933174   -3.388490
    111          7           0      -18.845875   -0.394607   -0.539164
    112          6           0      -17.951325   -1.338667   -0.880260
    113          6           0      -16.609425   -0.711571   -1.093966
    114          6           0      -16.857058    0.647206   -0.785956
    115          6           0      -18.199130    0.726564   -0.340422
    116          6           0      -15.321556   -1.294005   -1.558422
    117          6           0      -16.179268    1.887914   -0.730392
    118          8           0      -14.991503    2.170848   -0.989499
    119          6           0      -17.235631    2.851294   -0.195125
    120          6           0      -16.768980    3.407596    1.054252
    121          8           0      -16.408018    2.875479    2.057088
    122          8           0      -16.919442    4.786725    0.943731
    123          6           0      -16.593707    5.728246    2.082508
    124          1           0      -24.112364    2.361828    1.385396
    125          1           0      -23.788855   -3.819595   -0.176395
    126          1           0      -17.478159   -3.320577   -1.175554
    127          1           0      -19.642881    4.533918    1.264114
    128          1           0      -22.448300    4.265686    0.696623
    129          1           0      -22.720782    4.567872    3.090318
    130          1           0      -20.903350    4.691088    3.029297
    131          1           0      -21.712530    3.181529    3.348520
    132          1           0      -21.195282    4.424594   -1.338072
    133          1           0      -19.455593    4.200672   -1.376844
    134          1           0      -20.822149    6.533100   -1.524030
    135          1           0      -19.141208    6.404146   -1.231352
    136          1           0      -25.955323    1.715378    1.758736
    137          1           0      -26.534335    0.194568    2.524505
    138          1           0      -27.027212    0.577980    0.886187
    139          1           0      -28.036304   -1.655178    0.826527
    140          1           0      -27.401376   -1.813157    2.352683
    141          1           0      -27.982865   -3.345491    1.702875
    142          1           0      -22.007909   -5.282770   -1.484424
    143          1           0      -19.187739   -5.363825   -0.789498
    144          1           0      -20.631548   -6.167809    0.921523
    145          1           0      -22.320318   -6.499226    0.431142
    146          1           0      -21.883460   -5.104194    1.450560
    147          1           0      -19.648461   -4.065181   -3.469869
    148          1           0      -20.674071   -5.394009   -3.227850
    149          1           0      -18.028399   -5.365215   -4.093214
    150          1           0      -19.033280   -6.841737   -3.839074
    151          1           0      -17.966654   -6.185212   -2.563766
    152          1           0      -15.371187   -2.342392   -1.852110
    153          1           0      -14.563700   -1.234469   -0.776832
    154          1           0      -14.976110   -0.718365   -2.416913
    155          1           0      -17.438888    3.667174   -0.889371
    156          1           0      -16.295060    5.165099    2.966954
    157          1           0      -17.488359    6.286029    2.362443
    158          1           0      -15.785829    6.359568    1.712650
 ---------------------------------------------------------------------

 SCF Done:  E(RPBE1PBE) =  -4067.38193929     A.U. after   16 cycles

 Excitation energies and oscillator strengths:

 Excited State   1:      Singlet-A      1.8654 eV  664.64 nm  f=0.3691  <S**2>=0.000
     310 -> 316        0.17002
     312 -> 313        0.69165
     312 <- 313       -0.10905
 This state for optimization and/or second-order correction.
 Total Energy, E(TD-HF/TD-DFT) =  -4067.31338624
 Copying the excited state density for this state as the 1-particle RhoCI density.

 Excited State   2:      Singlet-A      1.8923 eV  655.19 nm  f=0.3847  <S**2>=0.000
     309 -> 315        0.18635
     311 -> 314        0.68956
     311 <- 314       -0.10198

 Excited State   3:      Singlet-A      2.0010 eV  619.61 nm  f=0.0000  <S**2>=0.000
     312 -> 314        0.70710

 Excited State   4:      Singlet-A      2.0142 eV  615.55 nm  f=0.0000  <S**2>=0.000
     311 -> 313        0.70711

 Excited State   5:      Singlet-A      2.2250 eV  557.22 nm  f=0.1268  <S**2>=0.000
     310 -> 313        0.65894
     312 -> 316       -0.23870

 The electronic state is 1-A.
 Alpha  occ. eigenvalues --  -46.92773 -46.90902 -19.24640 -19.24322 -19.19717
 Alpha  occ. eigenvalues --  -19.19495 -19.18940 -19.18473 -19.18469 -19.18139
 Alpha  occ. eigenvalues --  -14.41998 -14.41434 -14.41370 -14.41141 -14.39227
 Alpha  occ. eigenvalues --  -14.39153 -14.38951 -14.38024 -10.35574 -10.35494
 Alpha  occ. eigenvalues --  -10.33494 -10.31559 -10.31514 -10.31319 -10.29397
 Alpha  occ. eigenvalues --  -10.29188 -10.29092 -10.28706 -10.28547 -10.28442
 Alpha  occ. eigenvalues --  -10.28338 -10.28220 -10.28109 -10.27993 -10.27756
 Alpha  occ. eigenvalues --  -10.27716 -10.27647 -10.27604 -10.27492 -10.26507
 Alpha  occ. eigenvalues --  -10.26383 -10.26346 -10.26322 -10.26251 -10.26131
 Alpha  occ. eigenvalues --  -10.26120 -10.26045 -10.25997 -10.25945 -10.25933
 Alpha  occ. eigenvalues --  -10.25923 -10.25830 -10.25674 -10.25601 -10.25537
 Alpha  occ. eigenvalues --  -10.25421 -10.25343 -10.25277 -10.25216 -10.25081
 Alpha  occ. eigenvalues --  -10.25075 -10.25073 -10.24921 -10.24900 -10.24884
 Alpha  occ. eigenvalues --  -10.24798 -10.24444 -10.24318 -10.24282 -10.24234
 Alpha  occ. eigenvalues --  -10.24009 -10.23969 -10.23759 -10.23736 -10.23695
 Alpha  occ. eigenvalues --  -10.23585 -10.23560 -10.23533 -10.23463 -10.23430
 Alpha  occ. eigenvalues --  -10.23384 -10.23120 -10.22872 -10.22775 -10.22380
 Alpha  occ. eigenvalues --  -10.22370  -3.14765  -3.13194  -1.87626  -1.87121
 Alpha  occ. eigenvalues --   -1.86999  -1.86047  -1.85573  -1.85422  -1.10311
 Alpha  occ. eigenvalues --   -1.09838  -1.04320  -1.04289  -1.02959  -1.02574
 Alpha  occ. eigenvalues --   -1.01984  -1.00193  -0.99842  -0.99494  -0.99098
 Alpha  occ. eigenvalues --   -0.98728  -0.98293  -0.97830  -0.97278  -0.96840
 Alpha  occ. eigenvalues --   -0.87808  -0.87450  -0.83236  -0.82946  -0.82697
 Alpha  occ. eigenvalues --   -0.82578  -0.82503  -0.81837  -0.81803  -0.81333
 Alpha  occ. eigenvalues --   -0.81293  -0.81185  -0.80522  -0.80424  -0.78644
 Alpha  occ. eigenvalues --   -0.78593  -0.77902  -0.77736  -0.76944  -0.76676
 Alpha  occ. eigenvalues --   -0.76621  -0.75816  -0.75447  -0.75267  -0.74841
 Alpha  occ. eigenvalues --   -0.74665  -0.72850  -0.72751  -0.71801  -0.71794
 Alpha  occ. eigenvalues --   -0.71377  -0.71104  -0.70478  -0.70473  -0.69615
 Alpha  occ. eigenvalues --   -0.69550  -0.67523  -0.67023  -0.66443  -0.65743
 Alpha  occ. eigenvalues --   -0.64457  -0.63716  -0.63090  -0.63001  -0.62614
 Alpha  occ. eigenvalues --   -0.62402  -0.61471  -0.60434  -0.59711  -0.59660
 Alpha  occ. eigenvalues --   -0.59641  -0.59465  -0.59179  -0.59066  -0.58876
 Alpha  occ. eigenvalues --   -0.58802  -0.56319  -0.56040  -0.55068  -0.54461
 Alpha  occ. eigenvalues --   -0.54452  -0.54142  -0.53791  -0.53684  -0.53376
 Alpha  occ. eigenvalues --   -0.53230  -0.52884  -0.52308  -0.52215  -0.51804
 Alpha  occ. eigenvalues --   -0.50739  -0.50657  -0.50146  -0.50081  -0.49795
 Alpha  occ. eigenvalues --   -0.49432  -0.48889  -0.48650  -0.48364  -0.48328
 Alpha  occ. eigenvalues --   -0.47797  -0.47688  -0.47494  -0.47339  -0.47229
 Alpha  occ. eigenvalues --   -0.47065  -0.46984  -0.46715  -0.46628  -0.46555
 Alpha  occ. eigenvalues --   -0.46474  -0.46232  -0.46146  -0.45980  -0.45627
 Alpha  occ. eigenvalues --   -0.45373  -0.45373  -0.45116  -0.44926  -0.44761
 Alpha  occ. eigenvalues --   -0.44455  -0.44314  -0.44192  -0.44169  -0.44046
 Alpha  occ. eigenvalues --   -0.43967  -0.43713  -0.43568  -0.43537  -0.43408
 Alpha  occ. eigenvalues --   -0.43008  -0.42935  -0.42784  -0.42776  -0.42597
 Alpha  occ. eigenvalues --   -0.42569  -0.42384  -0.42302  -0.41945  -0.41860
 Alpha  occ. eigenvalues --   -0.41612  -0.41397  -0.41284  -0.41161  -0.41147
 Alpha  occ. eigenvalues --   -0.40955  -0.40946  -0.40863  -0.40743  -0.40394
 Alpha  occ. eigenvalues --   -0.40351  -0.40142  -0.40039  -0.39885  -0.39885
 Alpha  occ. eigenvalues --   -0.39551  -0.39429  -0.39147  -0.39023  -0.39009
 Alpha  occ. eigenvalues --   -0.38773  -0.38751  -0.38744  -0.38542  -0.38530
 Alpha  occ. eigenvalues --   -0.38509  -0.38147  -0.38069  -0.37730  -0.37631
 Alpha  occ. eigenvalues --   -0.37510  -0.37314  -0.37133  -0.36644  -0.36468
 Alpha  occ. eigenvalues --   -0.36414  -0.36217  -0.36155  -0.35978  -0.35962
 Alpha  occ. eigenvalues --   -0.35897  -0.35665  -0.35603  -0.35139  -0.35082
 Alpha  occ. eigenvalues --   -0.34773  -0.34681  -0.34567  -0.34335  -0.33787
 Alpha  occ. eigenvalues --   -0.33401  -0.33189  -0.32800  -0.32795  -0.32554
 Alpha  occ. eigenvalues --   -0.31880  -0.31830  -0.31587  -0.31556  -0.31439
 Alpha  occ. eigenvalues --   -0.31029  -0.30486  -0.29497  -0.29417  -0.29334
 Alpha  occ. eigenvalues --   -0.28747  -0.28669  -0.27532  -0.26805  -0.26629
 Alpha  occ. eigenvalues --   -0.26104  -0.25993  -0.25677  -0.25601  -0.25473
 Alpha  occ. eigenvalues --   -0.25175  -0.24983  -0.24855  -0.20787  -0.20577
 Alpha  occ. eigenvalues --   -0.18772  -0.18672
 Alpha virt. eigenvalues --   -0.11050  -0.10996  -0.05185  -0.04846  -0.04195
 Alpha virt. eigenvalues --   -0.03479  -0.02121  -0.01997  -0.00087   0.00651
 Alpha virt. eigenvalues --    0.00779   0.00874   0.01355   0.01474   0.01612

 Mulliken charges:
               1
     1  Mg  12.000166
     2  C    6.017691
     3  C    5.986181
     4  C    5.982561
     5  C    5.996470
     6  N    7.004953
     7  C    5.973774
     8  C    6.011456
     9  C    5.994413
    10  C    6.025938
    11  C    5.998302
    12  C    6.003805
    13  C    6.001975
    14  H    0.993603
    15  N    6.995796
    16  C    6.039675
    17  C    6.029759
    18  C    6.005820
    19  C    6.032776
    20  C    5.994326
    21  C    6.011447
    22  O    8.024831
    23  C    5.995784
    24  N    6.991375
    25  C    6.038114
    26  C    5.985851
    27  C    6.012713
    28  C    5.966984
    29  C    6.001055
    30  C    6.003863
    31  C    6.001414
    32  N    7.003167
    33  C    5.975671
    34  C    5.971730
    35  C    5.995359
    36  C    5.973813
    37  C    6.001846
    38  C    5.985880
    39  O    7.972398
    40  C    5.995463
    41  C    5.999115
    42  O    7.989372
    43  O    8.001573
    44  C    6.001933
    45  H    1.009712
    46  H    1.007941
    47  H    0.987167
    48  H    0.996427
    49  H    1.000640
    50  H    0.996253
    51  H    0.999110
    52  H    1.011731
    53  H    0.991349
    54  H    0.999593
    55  H    1.005161
    56  H    1.000364
    57  H    1.020293
    58  H    1.019701
    59  H    1.021121
    60  H    1.003441
    61  H    1.013224
    62  H    1.006469
    63  H    0.999731
    64  H    0.999506
    65  H    0.999787
    66  H    0.997131
    67  H    1.009899
    68  H    0.988067
    69  H    1.001490
    70  H    1.000811
    71  H    0.991703
    72  H    1.001641
    73  H    0.982613
    74  H    0.983342
    75  H    0.984288
    76  H    0.991717
    77  H    0.997087
    78  H    0.997264
    79  H    0.994037
    80  Mg  11.999982
    81  C    5.999700
    82  C    6.000126
    83  C    6.000074
    84  C    5.999836
    85  N    6.999881
    86  C    6.000514
    87  C    5.999716
    88  C    6.000153
    89  C    5.999528
    90  C    6.000052
    91  C    5.999918
    92  C    6.000020
    93  H    1.000142
    94  N    7.000123
    95  C    5.999407
    96  C    5.999693
    97  C    5.999569
    98  C    5.999669
    99  C    6.000019
   100  C    5.999956
   101  O    7.999568
   102  C    6.000042
   103  N    7.000048
   104  C    5.999665
   105  C    6.000216
   106  C    5.999895
   107  C    6.000503
   108  C    6.000059
   109  C    5.999868
   110  C    6.000024
   111  N    6.999880
   112  C    6.000485
   113  C    6.000572
   114  C    6.000098
   115  C    6.000386
   116  C    5.999967
   117  C    6.000162
   118  O    8.000578
   119  C    6.000046
   120  C    6.000129
   121  O    7.999928
   122  O    8.000073
   123  C    5.999859
   124  H    0.999880
   125  H    0.999853
   126  H    1.000095
   127  H    1.000069
   128  H    0.999975
   129  H    0.999972
   130  H    0.999783
   131  H    0.999938
   132  H    1.000166
   133  H    0.999905
   134  H    1.000040
   135  H    0.999962
   136  H    0.999779
   137  H    0.999713
   138  H    0.999741
   139  H    0.999883
   140  H    0.999864
   141  H    0.999757
   142  H    0.999994
   143  H    1.000026
   144  H    0.999812
   145  H    0.999972
   146  H    1.000016
   147  H    1.000031
   148  H    1.000186
   149  H    1.000013
   150  H    1.000085
   151  H    0.999963
   152  H    1.000267
   153  H    1.000322
   154  H    1.000361
   155  H    1.000198
   156  H    1.000035
   157  H    1.000116
   158  H    1.000100
 Sum of Mulliken charges = 624.00000

 Dipole moment (field-independent basis, Debye):
    X=              3.4959    Y=             -3.0321    Z=              9.1064  Tot=             10.2148
 Quadrupole moment (field-independent basis, Debye-Ang):
   XX=            129.0444   YY=              0.3602   ZZ=              6.6879
   XY=            -66.3577   XZ=            189.4049   YZ=             -7.6135

 Normal termination of Gaussian 16 at Thu Oct 14 04:04:04 2021.
