 Gaussian 16, Revision A.03,
 Gaussian 16:  ES64L-G16RevA.03 25-Dec-2016

 --------------------------------------------------------
 #p PBE1PBE/Def2SVP td=(nstates=5) density=(transition=1)
 --------------------------------------------------------

 --------------------------------
 TDDFT excited states in gaussian
 --------------------------------
 Symbolic Z-matrix:
 Charge =  0 Multiplicity = 1

                         Standard orientation:
 ---------------------------------------------------------------------
 Center     Atomic      Atomic             Coordinates (Angstroms)
 Number     Number       Type             X           Y           Z
 ---------------------------------------------------------------------
      1         12           0       29.961239    0.421251    0.595171
      2          6           0       30.195397   -2.027005   -1.810826
      3          6           0       28.231564    2.392698   -1.724357
      4          6           0       29.767737    2.911906    2.865321
      5          6           0       31.959459   -1.385409    2.659232
      6          7           0       29.528151    0.275306   -1.639799
      7          6           0       29.523435   -0.948459   -2.320709
      8          6           0       28.690671   -0.887017   -3.616448
      9          6           0       28.185368    0.601874   -3.566218
     10          6           0       28.609663    1.155274   -2.222823
     11          6           0       28.696515    1.446016   -4.726863
     12          6           0       27.515350   -1.905149   -3.831130
     13          6           0       27.693944   -3.002901   -5.014653
     14          1           0       26.578893   -2.880482   -6.057809
     15          7           0       29.230419    2.379179    0.558362
     16          6           0       28.437033    2.949701   -0.450096
     17          6           0       27.819406    4.201327    0.000404
     18          6           0       28.321892    4.462169    1.387457
     19          6           0       29.103706    3.203787    1.715608
     20          6           0       26.898686    5.029270   -0.868703
     21          6           0       28.116472    5.583186    2.293115
     22          8           0       28.724739    5.621062    3.372861
     23          6           0       27.231455    6.770170    1.955284
     24          7           0       30.809193    0.710503    2.389437
     25          6           0       30.493518    1.774785    3.254218
     26          6           0       31.068821    1.637430    4.721600
     27          6           0       31.807827    0.209257    4.570880
     28          6           0       31.486057   -0.185838    3.111835
     29          6           0       32.055632    2.826340    5.166509
     30          6           0       31.285531   -0.828006    5.623571
     31          6           0       32.275799   -1.773141    6.228593
     32          7           0       30.988166   -1.337936    0.397619
     33          6           0       31.741906   -1.996038    1.373688
     34          6           0       32.102470   -3.303311    0.942360
     35          6           0       31.407954   -3.398759   -0.319991
     36          6           0       30.834728   -2.151003   -0.596182
     37          6           0       32.854604   -4.374940    1.613120
     38          6           0       31.236693   -4.235174   -1.466453
     39          8           0       31.562348   -5.389932   -1.763239
     40          6           0       30.548891   -3.292721   -2.555348
     41          6           0       31.481211   -3.127698   -3.701850
     42          8           0       32.197765   -2.235605   -3.935998
     43          8           0       31.319492   -4.173797   -4.607257
     44          6           0       31.692660   -3.866347   -5.972306
     45          1           0       27.616954    2.964497   -2.422795
     46          1           0       29.721042    3.607266    3.705927
     47          1           0       32.474202   -2.030504    3.374264
     48          1           0       29.365575   -0.981768   -4.466429
     49          1           0       27.104132    0.665693   -3.691628
     50          1           0       29.362639    2.213568   -4.333760
     51          1           0       27.783585    1.901362   -5.108783
     52          1           0       29.145745    0.895571   -5.553214
     53          1           0       26.610096   -1.330951   -4.029975
     54          1           0       27.350918   -2.512652   -2.941074
     55          1           0       27.543466   -3.940016   -4.478384
     56          1           0       28.672658   -2.901536   -5.483106
     57          1           0       27.528482    5.509064   -1.618896
     58          1           0       26.431997    5.784600   -0.238293
     59          1           0       26.195658    4.431882   -1.449603
     60          1           0       27.529736    7.559659    2.645398
     61          1           0       26.164060    6.557753    2.024127
     62          1           0       27.419146    7.281472    1.011328
     63          1           0       30.251202    1.484453    5.425266
     64          1           0       32.882565    0.226324    4.753275
     65          1           0       32.871242    2.395421    5.747565
     66          1           0       31.658266    3.554948    5.872095
     67          1           0       32.457208    3.386026    4.321533
     68          1           0       30.439318   -1.421309    5.277523
     69          1           0       30.910435   -0.350309    6.528469
     70          1           0       31.988279   -2.751666    5.844319
     71          1           0       32.248541   -1.995082    7.295415
     72          1           0       33.282319   -1.512648    5.899608
     73          1           0       32.738929   -4.252135    2.690336
     74          1           0       33.891741   -4.176702    1.342930
     75          1           0       32.586238   -5.327350    1.155565
     76          1           0       29.628532   -3.750488   -2.917096
     77          1           0       32.781418   -3.903105   -5.958292
     78          1           0       31.350182   -2.846346   -6.145949
     79          1           0       31.307871   -4.609820   -6.670952
     80         12           0      -30.673449   -0.769836   -0.389122
     81          6           0      -27.744770    1.167491   -0.906869
     82          6           0      -28.694741   -3.005690    1.414429
     83          6           0      -33.462550   -1.812053    1.014746
     84          6           0      -32.482952    1.940053   -2.058305
     85          7           0      -28.444978   -0.744405    0.397697
     86          6           0      -27.457723   -0.013016   -0.176334
     87          6           0      -26.110619   -0.597921    0.208446
     88          6           0      -26.391523   -2.089971    0.387615
     89          6           0      -27.940704   -1.954188    0.817267
     90          6           0      -26.275934   -3.006630   -0.831694
     91          6           0      -25.528060    0.185393    1.464584
     92          6           0      -24.096236    0.516724    1.306382
     93          1           0      -23.183276    0.341791    2.535558
     94          7           0      -31.077898   -2.212766    1.093024
     95          6           0      -30.116085   -3.089845    1.653059
     96          6           0      -30.839342   -3.985703    2.519954
     97          6           0      -32.235803   -3.762061    2.390684
     98          6           0      -32.345980   -2.552163    1.500248
     99          6           0      -30.099328   -5.023534    3.357941
    100          6           0      -33.306552   -4.479531    3.113380
    101          8           0      -32.996377   -5.368385    3.896871
    102          6           0      -34.770810   -4.187993    3.074619
    103          7           0      -32.739052    0.085506   -0.463568
    104          6           0      -33.675228   -0.723367    0.071283
    105          6           0      -35.088393   -0.244911   -0.308042
    106          6           0      -34.805880    0.892792   -1.442059
    107          6           0      -33.258886    0.975860   -1.375477
    108          6           0      -36.100292   -1.412967   -0.702091
    109          6           0      -35.542704    2.252188   -1.229405
    110          6           0      -34.737090    3.423021   -0.569866
    111          7           0      -30.269632    1.087441   -1.276424
    112          6           0      -31.101849    2.019554   -1.959390
    113          6           0      -30.209954    3.041073   -2.662807
    114          6           0      -28.940609    2.724080   -2.206176
    115          6           0      -29.034787    1.536278   -1.395995
    116          6           0      -30.518594    4.221066   -3.604393
    117          6           0      -27.559630    3.076859   -2.301261
    118          8           0      -27.000664    3.936408   -2.984507
    119          6           0      -26.850735    2.175467   -1.354581
    120          6           0      -26.463682    3.123826   -0.196824
    121          8           0      -27.191592    3.533329    0.705076
    122          8           0      -25.109525    3.507285   -0.403937
    123          6           0      -24.551369    4.470805    0.455383
    124          1           0      -28.121748   -3.792206    1.910201
    125          1           0      -34.338285   -2.340478    1.396688
    126          1           0      -32.916177    2.709147   -2.700089
    127          1           0      -25.377497   -0.558836   -0.597086
    128          1           0      -25.836093   -2.672536    1.121715
    129          1           0      -25.687482   -2.584059   -1.645591
    130          1           0      -27.239617   -3.438807   -1.102321
    131          1           0      -25.674846   -3.829138   -0.442305
    132          1           0      -25.609537   -0.456688    2.341687
    133          1           0      -26.132687    1.034958    1.782197
    134          1           0      -24.148138    1.553927    0.977240
    135          1           0      -23.687398   -0.108708    0.512933
    136          1           0      -30.195523   -6.034849    2.963340
    137          1           0      -30.428297   -4.934815    4.392287
    138          1           0      -29.030590   -4.809015    3.367448
    139          1           0      -35.141587   -4.442981    2.081537
    140          1           0      -35.058417   -3.162080    3.307826
    141          1           0      -35.338934   -4.910456    3.659350
    142          1           0      -35.420134    0.267996    0.594467
    143          1           0      -35.024566    0.466430   -2.420504
    144          1           0      -35.798947   -2.360384   -0.255434
    145          1           0      -36.371321   -1.549089   -1.749719
    146          1           0      -37.057946   -1.014283   -0.363707
    147          1           0      -36.471026    2.138386   -0.670201
    148          1           0      -35.766440    2.550073   -2.253476
    149          1           0      -35.595095    3.874601   -0.071316
    150          1           0      -34.270984    4.159245   -1.225074
    151          1           0      -34.048930    2.982344    0.151772
    152          1           0      -30.004060    4.105326   -4.557673
    153          1           0      -29.946254    4.970081   -3.057954
    154          1           0      -31.594242    4.393166   -3.572956
    155          1           0      -25.940952    1.799919   -1.823078
    156          1           0      -23.514901    4.730117    0.235973
    157          1           0      -24.585657    4.063637    1.465110
    158          1           0      -25.185210    5.350291    0.338530
 ---------------------------------------------------------------------

 SCF Done:  E(RPBE1PBE) =  -4067.31884765     A.U. after   16 cycles

 Excitation energies and oscillator strengths:

 Excited State   1:      Singlet-A      1.8151 eV  683.08 nm  f=0.3908  <S**2>=0.000
     309 -> 316        0.14961
     311 -> 313        0.69581
     311 <- 313       -0.11534
 This state for optimization and/or second-order correction.
 Total Energy, E(TD-HF/TD-DFT) =  -4067.25214459
 Copying the excited state density for this state as the 1-particle RhoCI density.

 Excited State   2:      Singlet-A      1.8406 eV  673.62 nm  f=0.3488  <S**2>=0.000
     310 -> 315        0.18901
     312 -> 314        0.68699

 Excited State   3:      Singlet-A      1.8594 eV  666.79 nm  f=0.0000  <S**2>=0.000
     312 -> 313        0.70711

 Excited State   4:      Singlet-A      2.1150 eV  586.20 nm  f=0.0000  <S**2>=0.000
     311 -> 314        0.70711

 Excited State   5:      Singlet-A      2.1895 eV  566.27 nm  f=0.1159  <S**2>=0.000
     309 -> 313        0.65571
     311 -> 316       -0.22775

 The electronic state is 1-A.
 Alpha  occ. eigenvalues --  -46.94701 -46.91370 -19.25381 -19.22903 -19.21602
 Alpha  occ. eigenvalues --  -19.19814 -19.19099 -19.18896 -19.18458 -19.17848
 Alpha  occ. eigenvalues --  -14.42055 -14.41894 -14.41569 -14.41525 -14.39884
 Alpha  occ. eigenvalues --  -14.39880 -14.39472 -14.38378 -10.37664 -10.35166
 Alpha  occ. eigenvalues --  -10.32240 -10.31643 -10.31562 -10.31310 -10.29647
 Alpha  occ. eigenvalues --  -10.29438 -10.29249 -10.29225 -10.29013 -10.28850
 Alpha  occ. eigenvalues --  -10.28718 -10.28647 -10.28621 -10.28555 -10.28469
 Alpha  occ. eigenvalues --  -10.28257 -10.28186 -10.27901 -10.27896 -10.27848
 Alpha  occ. eigenvalues --  -10.27345 -10.27111 -10.27084 -10.27066 -10.27020
 Alpha  occ. eigenvalues --  -10.26660 -10.26384 -10.26246 -10.26211 -10.26171
 Alpha  occ. eigenvalues --  -10.26118 -10.26069 -10.25917 -10.25704 -10.25691
 Alpha  occ. eigenvalues --  -10.25549 -10.25478 -10.25383 -10.25361 -10.25328
 Alpha  occ. eigenvalues --  -10.25214 -10.25186 -10.25142 -10.25089 -10.24915
 Alpha  occ. eigenvalues --  -10.24906 -10.24871 -10.24754 -10.24560 -10.24418
 Alpha  occ. eigenvalues --  -10.24313 -10.24208 -10.23950 -10.23887 -10.23873
 Alpha  occ. eigenvalues --  -10.23836 -10.23598 -10.23582 -10.23364 -10.23329
 Alpha  occ. eigenvalues --  -10.23124 -10.23115 -10.22824 -10.22787 -10.22662
 Alpha  occ. eigenvalues --  -10.22535  -3.16489  -3.13704  -1.89266  -1.88914
 Alpha  occ. eigenvalues --   -1.88665  -1.86515  -1.86089  -1.85945  -1.11601
 Alpha  occ. eigenvalues --   -1.10564  -1.04285  -1.04146  -1.04088  -1.03462
 Alpha  occ. eigenvalues --   -1.03076  -1.02650  -0.99508  -0.98816  -0.98088
 Alpha  occ. eigenvalues --   -0.98076  -0.97491  -0.96627  -0.95992  -0.95108
 Alpha  occ. eigenvalues --   -0.88766  -0.87097  -0.83473  -0.83453  -0.83027
 Alpha  occ. eigenvalues --   -0.82921  -0.82761  -0.82102  -0.81777  -0.81578
 Alpha  occ. eigenvalues --   -0.81566  -0.81189  -0.80802  -0.79921  -0.79079
 Alpha  occ. eigenvalues --   -0.78477  -0.77957  -0.77835  -0.76990  -0.76673
 Alpha  occ. eigenvalues --   -0.75955  -0.75882  -0.75252  -0.75157  -0.74636
 Alpha  occ. eigenvalues --   -0.74616  -0.72962  -0.72372  -0.71756  -0.71597
 Alpha  occ. eigenvalues --   -0.71210  -0.71022  -0.70351  -0.69631  -0.69591
 Alpha  occ. eigenvalues --   -0.69590  -0.67579  -0.67192  -0.66333  -0.66123
 Alpha  occ. eigenvalues --   -0.64283  -0.63629  -0.63181  -0.63134  -0.62434
 Alpha  occ. eigenvalues --   -0.61951  -0.61709  -0.61261  -0.60132  -0.59851
 Alpha  occ. eigenvalues --   -0.59812  -0.59461  -0.59459  -0.59224  -0.59113
 Alpha  occ. eigenvalues --   -0.58522  -0.56779  -0.55493  -0.54636  -0.54495
 Alpha  occ. eigenvalues --   -0.54338  -0.54007  -0.53926  -0.53624  -0.53307
 Alpha  occ. eigenvalues --   -0.53164  -0.52929  -0.52891  -0.52236  -0.51600
 Alpha  occ. eigenvalues --   -0.51059  -0.50665  -0.50587  -0.50247  -0.50110
 Alpha  occ. eigenvalues --   -0.49795  -0.49443  -0.49163  -0.48530  -0.48322
 Alpha  occ. eigenvalues --   -0.48303  -0.47966  -0.47778  -0.47660  -0.47585
 Alpha  occ. eigenvalues --   -0.47329  -0.47327  -0.46813  -0.46753  -0.46490
 Alpha  occ. eigenvalues --   -0.46422  -0.46220  -0.46218  -0.45998  -0.45990
 Alpha  occ. eigenvalues --   -0.45838  -0.45827  -0.45402  -0.45181  -0.45165
 Alpha  occ. eigenvalues --   -0.44796  -0.44792  -0.44518  -0.44489  -0.44414
 Alpha  occ. eigenvalues --   -0.44141  -0.44035  -0.43816  -0.43622  -0.43488
 Alpha  occ. eigenvalues --   -0.43281  -0.43262  -0.43167  -0.42936  -0.42779
 Alpha  occ. eigenvalues --   -0.42685  -0.42530  -0.42222  -0.41940  -0.41857
 Alpha  occ. eigenvalues --   -0.41664  -0.41640  -0.41557  -0.41181  -0.40974
 Alpha  occ. eigenvalues --   -0.40815  -0.40814  -0.40647  -0.40615  -0.40553
 Alpha  occ. eigenvalues --   -0.40200  -0.40164  -0.40093  -0.40073  -0.39919
 Alpha  occ. eigenvalues --   -0.39813  -0.39463  -0.39313  -0.39242  -0.39065
 Alpha  occ. eigenvalues --   -0.38934  -0.38566  -0.38445  -0.38360  -0.38337
 Alpha  occ. eigenvalues --   -0.38163  -0.38150  -0.37837  -0.37812  -0.37777
 Alpha  occ. eigenvalues --   -0.37274  -0.37254  -0.37018  -0.36823  -0.36583
 Alpha  occ. eigenvalues --   -0.36431  -0.36299  -0.36167  -0.36062  -0.35930
 Alpha  occ. eigenvalues --   -0.35876  -0.35784  -0.35537  -0.35372  -0.35105
 Alpha  occ. eigenvalues --   -0.34967  -0.34852  -0.34085  -0.34020  -0.33716
 Alpha  occ. eigenvalues --   -0.33527  -0.33300  -0.32916  -0.32810  -0.32718
 Alpha  occ. eigenvalues --   -0.32642  -0.32166  -0.31608  -0.31327  -0.31184
 Alpha  occ. eigenvalues --   -0.30811  -0.30050  -0.29850  -0.29683  -0.29457
 Alpha  occ. eigenvalues --   -0.29195  -0.28981  -0.28625  -0.27107  -0.26771
 Alpha  occ. eigenvalues --   -0.26266  -0.26071  -0.25885  -0.25541  -0.25265
 Alpha  occ. eigenvalues --   -0.25252  -0.24864  -0.24824  -0.21302  -0.21012
 Alpha  occ. eigenvalues --   -0.19089  -0.18768
 Alpha virt. eigenvalues --   -0.11717  -0.11099  -0.06018  -0.05802  -0.04393
 Alpha virt. eigenvalues --   -0.04271  -0.03160  -0.02205  -0.02204  -0.00569
 Alpha virt. eigenvalues --    0.00086   0.00772   0.00803   0.01191   0.01658

 Mulliken charges:
               1
     1  Mg  12.002309
     2  C    5.990178
     3  C    6.010586
     4  C    6.015191
     5  C    5.993304
     6  N    6.995044
     7  C    6.024732
     8  C    5.988124
     9  C    6.008389
    10  C    5.974863
    11  C    6.001031
    12  C    5.998943
    13  C    5.996228
    14  H    1.008418
    15  N    7.000577
    16  C    5.966375
    17  C    5.971207
    18  C    5.987581
    19  C    5.972033
    20  C    6.001995
    21  C    5.988569
    22  O    7.970149
    23  C    6.006343
    24  N    7.001328
    25  C    5.967287
    26  C    6.013266
    27  C    5.987684
    28  C    6.030878
    29  C    6.002642
    30  C    5.994492
    31  C    6.000359
    32  N    7.000497
    33  C    6.035166
    34  C    6.027070
    35  C    6.004684
    36  C    6.024919
    37  C    5.999865
    38  C    6.016024
    39  O    8.032379
    40  C    5.999608
    41  C    6.000772
    42  O    8.008159
    43  O    7.999639
    44  C    5.998007
    45  H    0.991817
    46  H    0.993401
    47  H    1.009513
    48  H    1.002594
    49  H    1.000163
    50  H    1.002913
    51  H    1.000057
    52  H    0.987650
    53  H    1.009045
    54  H    0.997388
    55  H    0.997104
    56  H    0.997972
    57  H    0.980438
    58  H    0.986097
    59  H    0.980741
    60  H    0.986562
    61  H    0.990044
    62  H    0.992293
    63  H    0.997539
    64  H    1.003301
    65  H    0.989596
    66  H    1.001744
    67  H    1.001544
    68  H    1.000623
    69  H    1.011122
    70  H    0.995137
    71  H    1.004959
    72  H    1.000114
    73  H    1.017377
    74  H    1.017867
    75  H    1.012669
    76  H    1.010982
    77  H    1.002117
    78  H    1.006068
    79  H    1.004558
    80  Mg  11.999983
    81  C    5.999986
    82  C    5.999993
    83  C    5.999996
    84  C    5.999982
    85  N    7.000023
    86  C    6.000075
    87  C    5.999991
    88  C    6.000009
    89  C    5.999894
    90  C    6.000007
    91  C    5.999982
    92  C    5.999988
    93  H    1.000057
    94  N    7.000006
    95  C    5.999830
    96  C    5.999932
    97  C    5.999937
    98  C    5.999887
    99  C    6.000015
   100  C    5.999941
   101  O    7.999866
   102  C    6.000014
   103  N    6.999972
   104  C    5.999911
   105  C    6.000049
   106  C    5.999957
   107  C    6.000135
   108  C    6.000022
   109  C    6.000000
   110  C    5.999964
   111  N    7.000000
   112  C    6.000173
   113  C    6.000131
   114  C    5.999974
   115  C    6.000103
   116  C    6.000010
   117  C    6.000115
   118  O    8.000179
   119  C    5.999977
   120  C    6.000024
   121  O    8.000032
   122  O    8.000014
   123  C    5.999976
   124  H    0.999956
   125  H    0.999972
   126  H    1.000038
   127  H    0.999996
   128  H    0.999999
   129  H    0.999934
   130  H    0.999999
   131  H    0.999987
   132  H    1.000059
   133  H    0.999988
   134  H    0.999983
   135  H    1.000012
   136  H    0.999887
   137  H    0.999918
   138  H    0.999919
   139  H    0.999939
   140  H    0.999948
   141  H    0.999924
   142  H    0.999993
   143  H    1.000012
   144  H    1.000035
   145  H    0.999956
   146  H    0.999967
   147  H    1.000043
   148  H    0.999994
   149  H    1.000043
   150  H    0.999984
   151  H    1.000012
   152  H    1.000090
   153  H    1.000079
   154  H    1.000077
   155  H    1.000059
   156  H    1.000048
   157  H    1.000033
   158  H    1.000004
 Sum of Mulliken charges = 624.00000

 Dipole moment (field-independent basis, Debye):
    X=              4.5200    Y=             -9.6245    Z=             -0.6976  Tot=             10.6559
 Quadrupole moment (field-independent basis, Debye-Ang):
   XX=            269.1180   YY=            -10.5589   ZZ=              2.0012
   XY=           -287.9188   XZ=            -16.7667   YZ=             -3.9074

 Normal termination of Gaussian 16 at Fri Oct 15 13:22:49 2021.
