 Gaussian 16, Revision A.03,
 Gaussian 16:  ES64L-G16RevA.03 25-Dec-2016

 --------------------------------------------------------
 #p PBE1PBE/Def2SVP td=(nstates=5) density=(transition=1)
 --------------------------------------------------------

 --------------------------------
 TDDFT excited states in gaussian
 --------------------------------
 Symbolic Z-matrix:
 Charge =  0 Multiplicity = 1

                         Standard orientation:
 ---------------------------------------------------------------------
 Center     Atomic      Atomic             Coordinates (Angstroms)
 Number     Number       Type             X           Y           Z
 ---------------------------------------------------------------------
      1         12           0       30.284039    0.298656   -0.656288
      2          6           0       27.195687   -1.334791    0.372732
      3          6           0       28.499517    3.226400   -0.838973
      4          6           0       33.127759    1.975283   -0.122815
      5          6           0       31.856908   -2.711750   -0.556913
      6          7           0       28.102378    0.887025   -0.072178
      7          6           0       26.998669    0.018493    0.252488
      8          6           0       25.694421    0.820066    0.217937
      9          6           0       26.069785    2.139413   -0.519131
     10          6           0       27.661606    2.138886   -0.519590
     11          6           0       25.510770    2.218970   -2.018085
     12          6           0       24.934196    0.951291    1.505262
     13          6           0       25.692936    0.642557    2.817545
     14          1           0       25.147222    0.774387    4.251167
     15          7           0       30.777941    2.357093   -0.639367
     16          6           0       29.883862    3.402396   -0.711084
     17          6           0       30.664405    4.677795   -0.764225
     18          6           0       31.962491    4.290290   -0.441764
     19          6           0       32.035311    2.835607   -0.326994
     20          6           0       29.984013    5.982200   -0.985042
     21          6           0       33.146843    5.276409   -0.223698
     22          8           0       32.905696    6.470152   -0.253867
     23          6           0       34.528618    4.869338    0.167991
     24          7           0       32.181497   -0.355982   -0.224870
     25          6           0       33.211266    0.583734   -0.194766
     26          6           0       34.576909   -0.101362   -0.144283
     27          6           0       34.238453   -1.572682   -0.581239
     28          6           0       32.710621   -1.549732   -0.496759
     29          6           0       35.736560    0.497559   -0.981059
     30          6           0       34.902139   -2.710103    0.259511
     31          6           0       36.088919   -3.505114   -0.454514
     32          7           0       29.684264   -1.671294   -0.273730
     33          6           0       30.455616   -2.821372   -0.356825
     34          6           0       29.596314   -3.973831   -0.240187
     35          6           0       28.368130   -3.401640    0.118045
     36          6           0       28.492064   -1.991754    0.053696
     37          6           0       30.099267   -5.425738   -0.317799
     38          6           0       26.999142   -3.672499    0.433823
     39          8           0       26.483921   -4.807700    0.481555
     40          6           0       26.105452   -2.354874    0.482168
     41          6           0       25.390366   -2.444984    1.770834
     42          8           0       25.886351   -2.691973    2.875145
     43          8           0       24.108186   -2.079617    1.525897
     44          6           0       23.137095   -2.274588    2.647794
     45          1           0       27.934145    4.159250   -0.879652
     46          1           0       34.050629    2.537326    0.036542
     47          1           0       32.368821   -3.670924   -0.655127
     48          1           0       25.153573    0.171120   -0.470913
     49          1           0       25.838006    3.032291    0.061783
     50          1           0       24.775409    3.020811   -1.964929
     51          1           0       25.105834    1.248473   -2.305901
     52          1           0       26.358659    2.530933   -2.628930
     53          1           0       24.028614    0.357839    1.380742
     54          1           0       24.638662    1.999976    1.458965
     55          1           0       26.589635    1.261057    2.767690
     56          1           0       26.000771   -0.403250    2.822642
     57          1           0       30.063781    6.522534   -0.042214
     58          1           0       28.949322    5.782411   -1.261972
     59          1           0       30.447431    6.492550   -1.830096
     60          1           0       34.671955    4.405475    1.143151
     61          1           0       35.201927    5.719068    0.276864
     62          1           0       34.809591    4.270239   -0.698058
     63          1           0       34.749016    0.025872    0.925124
     64          1           0       34.519512   -1.614134   -1.633798
     65          1           0       36.427147    1.105230   -0.395435
     66          1           0       35.331391    1.177724   -1.729525
     67          1           0       36.228699   -0.329441   -1.494055
     68          1           0       34.202551   -3.459629    0.630548
     69          1           0       35.247279   -2.200849    1.159398
     70          1           0       36.826703   -3.569330    0.344874
     71          1           0       36.511622   -3.012755   -1.330433
     72          1           0       35.662008   -4.435740   -0.826689
     73          1           0       29.375220   -6.150234   -0.691231
     74          1           0       30.289303   -5.629397    0.735451
     75          1           0       30.900938   -5.507561   -1.051454
     76          1           0       25.438533   -2.341915   -0.381149
     77          1           0       22.149390   -1.938839    2.329968
     78          1           0       23.419453   -1.685862    3.520798
     79          1           0       23.192736   -3.350425    2.807805
     80         12           0      -30.215643    0.247624    0.339529
     81          6           0      -27.902437   -2.112972   -0.884756
     82          6           0      -30.621440    1.289231   -2.930793
     83          6           0      -32.386113    2.663138    1.392595
     84          6           0      -29.471380   -0.632707    3.492363
     85          7           0      -29.372189   -0.378734   -1.706227
     86          6           0      -28.543866   -1.456403   -1.995557
     87          6           0      -28.502706   -1.705941   -3.489813
     88          6           0      -29.088264   -0.381283   -4.101001
     89          6           0      -29.733837    0.186519   -2.856986
     90          6           0      -28.046093    0.559700   -4.823279
     91          6           0      -29.358824   -2.903715   -3.927483
     92          6           0      -28.781240   -3.741401   -5.073366
     93          1           0      -28.723890   -3.114272   -6.494102
     94          7           0      -31.411634    1.700310   -0.624292
     95          6           0      -31.360555    1.946528   -1.953676
     96          6           0      -32.180645    3.079023   -2.237942
     97          6           0      -32.863338    3.468271   -1.034011
     98          6           0      -32.195133    2.650298   -0.037267
     99          6           0      -32.293052    3.658575   -3.620718
    100          6           0      -33.895913    4.560347   -0.754049
    101          8           0      -34.498095    4.631223    0.339982
    102          6           0      -34.202490    5.674573   -1.748321
    103          7           0      -30.896615    0.846964    2.153388
    104          6           0      -31.748216    1.922094    2.388915
    105          6           0      -31.894012    2.113052    3.863738
    106          6           0      -31.033265    1.035876    4.616777
    107          6           0      -30.448390    0.323645    3.386396
    108          6           0      -31.704213    3.580605    4.352382
    109          6           0      -31.821771    0.071349    5.528972
    110          6           0      -31.830406    0.495142    7.010450
    111          7           0      -28.956396   -1.023404    1.181987
    112          6           0      -28.760470   -1.371635    2.517676
    113          6           0      -27.779026   -2.506809    2.684807
    114          6           0      -27.431269   -2.757243    1.347465
    115          6           0      -28.187410   -1.898359    0.486646
    116          6           0      -27.337475   -3.145300    3.989090
    117          6           0      -26.582232   -3.621262    0.541252
    118          8           0      -25.771325   -4.489226    0.867006
    119          6           0      -26.973866   -3.290089   -0.961197
    120          6           0      -25.636693   -3.012680   -1.675899
    121          8           0      -24.691913   -2.397924   -1.225734
    122          8           0      -25.616139   -3.728748   -2.871246
    123          6           0      -24.379267   -3.539204   -3.629312
    124          1           0      -30.785628    1.539475   -3.980790
    125          1           0      -33.064840    3.392935    1.838384
    126          1           0      -29.197396   -0.771592    4.539934
    127          1           0      -27.502516   -1.843972   -3.899772
    128          1           0      -29.841742   -0.531128   -4.874299
    129          1           0      -27.039095    0.154415   -4.926374
    130          1           0      -27.856593    1.526231   -4.356977
    131          1           0      -28.347530    0.748803   -5.853572
    132          1           0      -30.357852   -2.588358   -4.227589
    133          1           0      -29.466599   -3.618905   -3.111769
    134          1           0      -29.264136   -4.715602   -5.148549
    135          1           0      -27.757439   -4.048546   -4.860849
    136          1           0      -31.245314    3.749614   -3.907566
    137          1           0      -32.723040    4.655139   -3.720022
    138          1           0      -32.789501    3.015839   -4.347359
    139          1           0      -33.284014    6.144747   -2.100047
    140          1           0      -34.820866    6.344230   -1.150776
    141          1           0      -34.717631    5.286370   -2.626964
    142          1           0      -32.958761    2.027404    4.082825
    143          1           0      -30.186235    1.430067    5.179731
    144          1           0      -31.428843    4.184144    3.487231
    145          1           0      -30.883160    3.608505    5.068259
    146          1           0      -32.683748    3.854565    4.745671
    147          1           0      -31.451761   -0.934529    5.331706
    148          1           0      -32.885930    0.098018    5.293528
    149          1           0      -31.658178    1.568847    7.087791
    150          1           0      -31.041810    0.083916    7.640891
    151          1           0      -32.826152    0.298593    7.408996
    152          1           0      -28.174993   -3.739249    4.355419
    153          1           0      -27.080527   -2.452306    4.789993
    154          1           0      -26.492023   -3.783104    3.731666
    155          1           0      -27.502493   -4.078830   -1.496162
    156          1           0      -24.396139   -2.705282   -4.331666
    157          1           0      -24.239331   -4.493729   -4.136467
    158          1           0      -23.453504   -3.330455   -3.093159
 ---------------------------------------------------------------------

 SCF Done:  E(RPBE1PBE) =  -4067.37233710     A.U. after   16 cycles

 Excitation energies and oscillator strengths:

 Excited State   1:      Singlet-A      1.8047 eV  687.00 nm  f=0.3440  <S**2>=0.000
     309 -> 315       -0.15293
     312 -> 313        0.69766
     312 <- 313       -0.11784
 This state for optimization and/or second-order correction.
 Total Energy, E(TD-HF/TD-DFT) =  -4067.30601444
 Copying the excited state density for this state as the 1-particle RhoCI density.

 Excited State   2:      Singlet-A      1.8492 eV  670.48 nm  f=0.3674  <S**2>=0.000
     310 -> 316       -0.18103
     311 -> 314        0.69138
     311 <- 314       -0.10447

 Excited State   3:      Singlet-A      1.9504 eV  635.68 nm  f=0.0000  <S**2>=0.000
     312 -> 314        0.70711

 Excited State   4:      Singlet-A      2.0112 eV  616.47 nm  f=0.0000  <S**2>=0.000
     311 -> 313        0.70711

 Excited State   5:      Singlet-A      2.2265 eV  556.85 nm  f=0.0981  <S**2>=0.000
     310 -> 314        0.64902
     311 -> 316        0.27347

 The electronic state is 1-A.
 Alpha  occ. eigenvalues --  -46.92676 -46.91076 -19.26409 -19.26058 -19.20618
 Alpha  occ. eigenvalues --  -19.19734 -19.19370 -19.19337 -19.19078 -19.17596
 Alpha  occ. eigenvalues --  -14.42035 -14.41961 -14.41145 -14.40968 -14.39597
 Alpha  occ. eigenvalues --  -14.39255 -14.39070 -14.38492 -10.36709 -10.36218
 Alpha  occ. eigenvalues --  -10.32899 -10.32485 -10.32278 -10.30954 -10.29456
 Alpha  occ. eigenvalues --  -10.29362 -10.29302 -10.29255 -10.29008 -10.28710
 Alpha  occ. eigenvalues --  -10.28462 -10.28386 -10.28370 -10.28277 -10.28228
 Alpha  occ. eigenvalues --  -10.28197 -10.28168 -10.28164 -10.27101 -10.27080
 Alpha  occ. eigenvalues --  -10.27076 -10.26629 -10.26603 -10.26477 -10.26463
 Alpha  occ. eigenvalues --  -10.26435 -10.26400 -10.26382 -10.26211 -10.26206
 Alpha  occ. eigenvalues --  -10.26181 -10.26156 -10.26137 -10.25822 -10.25762
 Alpha  occ. eigenvalues --  -10.25606 -10.25562 -10.25459 -10.25118 -10.25100
 Alpha  occ. eigenvalues --  -10.25067 -10.25042 -10.24981 -10.24944 -10.24890
 Alpha  occ. eigenvalues --  -10.24831 -10.24737 -10.24505 -10.24375 -10.24322
 Alpha  occ. eigenvalues --  -10.24317 -10.24050 -10.24025 -10.23979 -10.23938
 Alpha  occ. eigenvalues --  -10.23898 -10.23785 -10.23742 -10.23638 -10.23611
 Alpha  occ. eigenvalues --  -10.23530 -10.23508 -10.23503 -10.23170 -10.23035
 Alpha  occ. eigenvalues --  -10.22014  -3.14745  -3.13432  -1.87556  -1.87142
 Alpha  occ. eigenvalues --   -1.86948  -1.86273  -1.85783  -1.85700  -1.11051
 Alpha  occ. eigenvalues --   -1.10889  -1.05236  -1.04006  -1.03544  -1.02999
 Alpha  occ. eigenvalues --   -1.02365  -1.01612  -0.99676  -0.99260  -0.98771
 Alpha  occ. eigenvalues --   -0.98244  -0.97813  -0.97264  -0.96100  -0.94861
 Alpha  occ. eigenvalues --   -0.86940  -0.86396  -0.83680  -0.83645  -0.83321
 Alpha  occ. eigenvalues --   -0.83218  -0.82880  -0.82588  -0.81824  -0.81222
 Alpha  occ. eigenvalues --   -0.81086  -0.80897  -0.80504  -0.80502  -0.78645
 Alpha  occ. eigenvalues --   -0.78591  -0.78070  -0.77896  -0.76760  -0.76587
 Alpha  occ. eigenvalues --   -0.76581  -0.75846  -0.75338  -0.75259  -0.74524
 Alpha  occ. eigenvalues --   -0.74393  -0.72702  -0.72278  -0.72075  -0.71795
 Alpha  occ. eigenvalues --   -0.71569  -0.70841  -0.70465  -0.70346  -0.69530
 Alpha  occ. eigenvalues --   -0.69412  -0.67537  -0.67161  -0.66079  -0.66078
 Alpha  occ. eigenvalues --   -0.64022  -0.63713  -0.63324  -0.63264  -0.62647
 Alpha  occ. eigenvalues --   -0.62153  -0.61676  -0.61316  -0.60558  -0.60182
 Alpha  occ. eigenvalues --   -0.59928  -0.59794  -0.59255  -0.59009  -0.58776
 Alpha  occ. eigenvalues --   -0.58126  -0.57152  -0.56752  -0.54900  -0.54629
 Alpha  occ. eigenvalues --   -0.54101  -0.53754  -0.53677  -0.53516  -0.53165
 Alpha  occ. eigenvalues --   -0.52512  -0.52284  -0.52038  -0.52034  -0.51800
 Alpha  occ. eigenvalues --   -0.51354  -0.50719  -0.50627  -0.50016  -0.49732
 Alpha  occ. eigenvalues --   -0.49732  -0.49176  -0.49061  -0.48781  -0.48384
 Alpha  occ. eigenvalues --   -0.48305  -0.48093  -0.47765  -0.47699  -0.47490
 Alpha  occ. eigenvalues --   -0.47448  -0.47156  -0.47132  -0.46967  -0.46697
 Alpha  occ. eigenvalues --   -0.46475  -0.46427  -0.46207  -0.45915  -0.45811
 Alpha  occ. eigenvalues --   -0.45799  -0.45498  -0.45320  -0.45133  -0.44633
 Alpha  occ. eigenvalues --   -0.44590  -0.44577  -0.44404  -0.44329  -0.44003
 Alpha  occ. eigenvalues --   -0.43981  -0.43696  -0.43636  -0.43518  -0.43349
 Alpha  occ. eigenvalues --   -0.43151  -0.42987  -0.42802  -0.42798  -0.42715
 Alpha  occ. eigenvalues --   -0.42460  -0.42270  -0.42197  -0.42109  -0.41862
 Alpha  occ. eigenvalues --   -0.41556  -0.41499  -0.41385  -0.41364  -0.41248
 Alpha  occ. eigenvalues --   -0.41233  -0.40994  -0.40989  -0.40636  -0.40485
 Alpha  occ. eigenvalues --   -0.40255  -0.40217  -0.39932  -0.39735  -0.39701
 Alpha  occ. eigenvalues --   -0.39411  -0.39302  -0.39300  -0.39193  -0.39030
 Alpha  occ. eigenvalues --   -0.38812  -0.38724  -0.38404  -0.38341  -0.38307
 Alpha  occ. eigenvalues --   -0.38223  -0.37965  -0.37931  -0.37658  -0.37563
 Alpha  occ. eigenvalues --   -0.37479  -0.37363  -0.37166  -0.37067  -0.37034
 Alpha  occ. eigenvalues --   -0.36786  -0.36764  -0.36658  -0.36561  -0.36412
 Alpha  occ. eigenvalues --   -0.36076  -0.35954  -0.35892  -0.35743  -0.35454
 Alpha  occ. eigenvalues --   -0.35182  -0.34895  -0.34667  -0.34323  -0.34031
 Alpha  occ. eigenvalues --   -0.33704  -0.33378  -0.33331  -0.32939  -0.32407
 Alpha  occ. eigenvalues --   -0.32231  -0.32149  -0.31863  -0.31675  -0.31583
 Alpha  occ. eigenvalues --   -0.31383  -0.30859  -0.30354  -0.29863  -0.29266
 Alpha  occ. eigenvalues --   -0.29042  -0.28443  -0.28297  -0.27090  -0.26706
 Alpha  occ. eigenvalues --   -0.26323  -0.26065  -0.25829  -0.25795  -0.25535
 Alpha  occ. eigenvalues --   -0.25397  -0.25271  -0.24289  -0.21261  -0.20861
 Alpha  occ. eigenvalues --   -0.18703  -0.18451
 Alpha virt. eigenvalues --   -0.11092  -0.11065  -0.05295  -0.05250  -0.04232
 Alpha virt. eigenvalues --   -0.03120  -0.02637  -0.02006  -0.01393   0.00168
 Alpha virt. eigenvalues --    0.00299   0.00514   0.01027   0.01331   0.01648

 Mulliken charges:
               1
     1  Mg  12.000278
     2  C    6.027469
     3  C    6.008875
     4  C    5.968919
     5  C    5.992090
     6  N    7.023615
     7  C    5.974368
     8  C    6.003558
     9  C    5.997858
    10  C    6.011818
    11  C    5.997981
    12  C    6.001358
    13  C    6.005892
    14  H    0.998010
    15  N    6.991802
    16  C    6.031703
    17  C    6.027168
    18  C    6.001878
    19  C    6.045047
    20  C    5.995520
    21  C    6.011889
    22  O    8.015826
    23  C    5.998239
    24  N    6.991466
    25  C    6.039316
    26  C    5.989809
    27  C    6.011424
    28  C    5.968148
    29  C    6.000075
    30  C    6.006461
    31  C    5.998016
    32  N    6.999662
    33  C    5.969427
    34  C    5.976242
    35  C    5.998526
    36  C    5.964302
    37  C    5.998746
    38  C    5.983800
    39  O    7.967725
    40  C    5.992963
    41  C    5.996096
    42  O    7.998920
    43  O    7.997732
    44  C    5.999896
    45  H    1.013300
    46  H    1.005126
    47  H    0.984286
    48  H    1.004864
    49  H    0.999220
    50  H    1.005000
    51  H    1.013910
    52  H    0.997218
    53  H    1.002797
    54  H    0.992215
    55  H    0.990088
    56  H    1.006837
    57  H    1.017408
    58  H    1.014240
    59  H    1.017944
    60  H    1.010280
    61  H    1.010931
    62  H    1.007535
    63  H    1.000488
    64  H    0.993346
    65  H    0.997168
    66  H    0.995113
    67  H    1.008775
    68  H    1.005413
    69  H    0.991107
    70  H    0.995169
    71  H    0.994386
    72  H    1.002515
    73  H    0.985114
    74  H    0.984508
    75  H    0.986984
    76  H    0.994244
    77  H    0.995441
    78  H    0.995953
    79  H    1.001164
    80  Mg  11.999998
    81  C    6.000016
    82  C    5.999987
    83  C    6.000004
    84  C    5.999996
    85  N    7.000017
    86  C    6.000039
    87  C    5.999980
    88  C    6.000025
    89  C    5.999939
    90  C    6.000006
    91  C    5.999985
    92  C    5.999997
    93  H    1.000021
    94  N    6.999978
    95  C    5.999920
    96  C    5.999937
    97  C    5.999976
    98  C    5.999933
    99  C    6.000014
   100  C    5.999952
   101  O    7.999919
   102  C    6.000016
   103  N    6.999981
   104  C    5.999955
   105  C    6.000022
   106  C    5.999979
   107  C    6.000063
   108  C    6.000004
   109  C    5.999991
   110  C    5.999997
   111  N    7.000025
   112  C    6.000078
   113  C    6.000090
   114  C    5.999991
   115  C    6.000055
   116  C    5.999992
   117  C    6.000066
   118  O    8.000108
   119  C    5.999985
   120  C    6.000016
   121  O    8.000012
   122  O    8.000005
   123  C    5.999984
   124  H    0.999973
   125  H    0.999977
   126  H    1.000030
   127  H    1.000008
   128  H    0.999997
   129  H    0.999967
   130  H    0.999996
   131  H    0.999991
   132  H    1.000031
   133  H    0.999988
   134  H    1.000011
   135  H    0.999999
   136  H    0.999950
   137  H    0.999941
   138  H    0.999936
   139  H    0.999974
   140  H    0.999950
   141  H    0.999976
   142  H    0.999996
   143  H    0.999999
   144  H    1.000008
   145  H    0.999964
   146  H    0.999990
   147  H    0.999989
   148  H    1.000026
   149  H    1.000009
   150  H    1.000002
   151  H    1.000010
   152  H    1.000062
   153  H    1.000055
   154  H    1.000049
   155  H    1.000034
   156  H    1.000012
   157  H    1.000028
   158  H    1.000017
 Sum of Mulliken charges = 624.00000

 Dipole moment (field-independent basis, Debye):
    X=              1.3894    Y=              9.8976    Z=             -0.7975  Tot=             10.0264
 Quadrupole moment (field-independent basis, Debye-Ang):
   XX=             79.2562   YY=              6.9330   ZZ=              0.1379
   XY=            300.7500   XZ=            -21.7466   YZ=             -4.1957

 Normal termination of Gaussian 16 at Thu Oct 14 00:30:22 2021.
