 Gaussian 16, Revision A.03,
 Gaussian 16:  ES64L-G16RevA.03 25-Dec-2016

 --------------------------------------------------------
 #p PBE1PBE/Def2SVP td=(nstates=5) density=(transition=1)
 --------------------------------------------------------

 --------------------------------
 TDDFT excited states in gaussian
 --------------------------------
 Symbolic Z-matrix:
 Charge =  0 Multiplicity = 1

                         Standard orientation:
 ---------------------------------------------------------------------
 Center     Atomic      Atomic             Coordinates (Angstroms)
 Number     Number       Type             X           Y           Z
 ---------------------------------------------------------------------
      1         12           0       -9.106600   -0.151194   -0.058679
      2          6           0       -6.941846    2.230925    1.029828
      3          6           0      -11.007424    2.091885   -1.863820
      4          6           0      -11.265862   -2.684315   -0.861331
      5          6           0       -7.464898   -2.511341    2.138001
      6          7           0       -9.090313    1.937964   -0.194330
      7          6           0       -7.935273    2.724777    0.132311
      8          6           0       -7.994612    4.046767   -0.522336
      9          6           0       -9.490912    4.056648   -1.072967
     10          6           0       -9.939798    2.612379   -1.059562
     11          6           0      -10.483151    4.971433   -0.195004
     12          6           0       -6.829866    4.335571   -1.518596
     13          6           0       -6.212149    5.691772   -1.401919
     14          1           0       -7.208449    6.888632   -1.137725
     15          7           0      -10.854006   -0.291313   -1.266781
     16          6           0      -11.435368    0.776645   -1.883098
     17          6           0      -12.563925    0.293253   -2.602075
     18          6           0      -12.644368   -1.142254   -2.417501
     19          6           0      -11.493660   -1.488910   -1.517745
     20          6           0      -13.537106    1.239868   -3.338182
     21          6           0      -13.560337   -2.194300   -2.960222
     22          8           0      -13.617091   -3.392467   -2.661501
     23          6           0      -14.540791   -1.707525   -4.093442
     24          7           0       -9.416029   -2.325923    0.639293
     25          6           0      -10.288762   -3.125549    0.078540
     26          6           0      -10.050014   -4.591167    0.435752
     27          6           0       -8.829032   -4.513993    1.396294
     28          6           0       -8.546877   -3.013016    1.417903
     29          6           0      -11.326142   -5.308575    1.112286
     30          6           0       -7.630099   -5.352883    0.768565
     31          6           0       -6.932122   -4.895192   -0.535990
     32          7           0       -7.624915   -0.125302    1.436360
     33          6           0       -7.058378   -1.151552    2.168521
     34          6           0       -5.888614   -0.572261    2.859798
     35          6           0       -5.745288    0.728011    2.478628
     36          6           0       -6.859607    0.951245    1.590872
     37          6           0       -5.114838   -1.274094    3.922100
     38          6           0       -4.966269    1.959483    2.605564
     39          8           0       -3.975487    2.218816    3.267780
     40          6           0       -5.746505    2.974670    1.660058
     41          6           0       -6.254779    4.064459    2.517776
     42          8           0       -6.983253    3.972634    3.521202
     43          8           0       -5.725705    5.208141    1.954815
     44          6           0       -6.240270    6.459879    2.525448
     45          1           0      -11.603557    2.759590   -2.489083
     46          1           0      -11.922151   -3.465952   -1.251323
     47          1           0       -6.909163   -3.227105    2.746314
     48          1           0       -7.883795    4.757583    0.297523
     49          1           0       -9.465395    4.414373   -2.101830
     50          1           0       -9.966265    5.646782    0.486782
     51          1           0      -10.999245    4.289905    0.481065
     52          1           0      -11.144652    5.411061   -0.940338
     53          1           0       -7.189758    4.235293   -2.542609
     54          1           0       -6.096736    3.573941   -1.253377
     55          1           0       -5.719947    6.016321   -2.317867
     56          1           0       -5.405615    5.893241   -0.696793
     57          1           0      -13.185545    1.635126   -4.291147
     58          1           0      -13.728342    2.004411   -2.585369
     59          1           0      -14.445460    0.739508   -3.673104
     60          1           0      -15.322691   -1.095028   -3.644393
     61          1           0      -14.817140   -2.574666   -4.692994
     62          1           0      -14.051710   -1.121987   -4.872201
     63          1           0       -9.760297   -5.123962   -0.469636
     64          1           0       -9.028369   -4.916358    2.389548
     65          1           0      -11.736307   -5.968187    0.346738
     66          1           0      -12.078643   -4.564957    1.376714
     67          1           0      -11.186938   -5.952866    1.979457
     68          1           0       -7.837745   -6.412134    0.617878
     69          1           0       -6.872238   -5.237396    1.544110
     70          1           0       -5.921701   -4.670077   -0.194429
     71          1           0       -7.431959   -4.049321   -1.006304
     72          1           0       -6.891909   -5.663022   -1.308561
     73          1           0       -4.110777   -0.873308    3.786505
     74          1           0       -5.141390   -2.359145    3.820080
     75          1           0       -5.399891   -0.829901    4.874901
     76          1           0       -4.907147    3.341513    1.069883
     77          1           0       -5.618089    7.206568    2.031193
     78          1           0       -5.971071    6.437468    3.581449
     79          1           0       -7.321601    6.591778    2.482423
     80         12           0        8.428557   -1.004956   -0.471329
     81          6           0       10.577477    1.711253   -0.808309
     82          6           0        5.810777    1.087621   -0.125243
     83          6           0        6.510684   -3.681466    0.292568
     84          6           0       11.205377   -3.045258   -0.343970
     85          7           0        8.255605    1.204383   -0.454982
     86          6           0        9.235917    2.091401   -0.820688
     87          6           0        8.684193    3.463575   -0.906995
     88          6           0        7.178417    3.344585   -0.644610
     89          6           0        7.002317    1.783951   -0.400985
     90          6           0        6.546419    4.217432    0.428528
     91          6           0        9.058598    4.168926   -2.331215
     92          6           0        9.924035    5.450263   -2.293050
     93          1           0        9.638668    6.604860   -3.221690
     94          7           0        6.424423   -1.279132   -0.104568
     95          6           0        5.477252   -0.273570    0.017719
     96          6           0        4.220383   -0.841797    0.345191
     97          6           0        4.393495   -2.246031    0.479953
     98          6           0        5.817295   -2.458014    0.199802
     99          6           0        2.954844    0.101806    0.366732
    100          6           0        3.307646   -3.231410    0.908708
    101          8           0        3.475233   -4.445001    1.102419
    102          6           0        1.922636   -2.770833    1.039638
    103          7           0        8.777778   -3.060059    0.172373
    104          6           0        7.848442   -3.982421    0.313896
    105          6           0        8.471091   -5.339165    0.713496
    106          6           0        9.869024   -5.142601    0.004997
    107          6           0        9.969847   -3.623910   -0.096329
    108          6           0        8.666850   -5.718997    2.227985
    109          6           0       10.067558   -5.847555   -1.421555
    110          6           0        9.153007   -5.474306   -2.515334
    111          7           0       10.566869   -0.800582   -0.508236
    112          6           0       11.600861   -1.756034   -0.459583
    113          6           0       12.862214   -1.093096   -0.555887
    114          6           0       12.543029    0.248309   -0.626477
    115          6           0       11.116390    0.365189   -0.701603
    116          6           0       14.165733   -1.682683   -0.319418
    117          6           0       13.076339    1.501682   -0.887350
    118          8           0       14.242304    1.887683   -1.019889
    119          6           0       11.870168    2.547002   -0.925089
    120          6           0       12.026901    3.377138    0.305912
    121          8           0       12.042621    3.083169    1.482804
    122          8           0       12.196189    4.623566   -0.138864
    123          6           0       12.349367    5.681822    0.912574
    124          1           0        5.030227    1.840223   -0.254610
    125          1           0        5.830339   -4.529620    0.386459
    126          1           0       12.070519   -3.710826   -0.368129
    127          1           0        9.172748    4.009172   -0.100646
    128          1           0        6.642167    3.552693   -1.570212
    129          1           0        6.607425    3.481218    1.229140
    130          1           0        5.552838    4.603799    0.200638
    131          1           0        7.065029    5.111701    0.773039
    132          1           0        8.134962    4.372024   -2.872393
    133          1           0        9.687041    3.551226   -2.973274
    134          1           0       10.925597    5.142540   -2.594908
    135          1           0       10.056038    5.824919   -1.278880
    136          1           0        2.440930   -0.034372    1.318095
    137          1           0        2.398356   -0.413682   -0.416110
    138          1           0        3.110230    1.179433    0.314056
    139          1           0        1.848183   -1.951873    1.753741
    140          1           0        1.408854   -3.551605    1.599961
    141          1           0        1.402640   -2.584533    0.099607
    142          1           0        8.004391   -6.117553    0.109673
    143          1           0       10.571413   -5.604139    0.698658
    144          1           0        8.994747   -4.910497    2.880264
    145          1           0        9.396101   -6.527829    2.169837
    146          1           0        7.736206   -6.093861    2.654811
    147          1           0        9.974933   -6.933189   -1.382550
    148          1           0       10.985170   -5.509750   -1.903107
    149          1           0        9.580408   -4.543343   -2.885164
    150          1           0        8.106552   -5.267504   -2.289072
    151          1           0        9.090100   -6.126644   -3.385689
    152          1           0       14.257251   -1.669945    0.767313
    153          1           0       15.009177   -1.146139   -0.752996
    154          1           0       14.283243   -2.669799   -0.767853
    155          1           0       11.819094    3.115849   -1.853540
    156          1           0       11.396192    6.210904    0.901086
    157          1           0       13.202483    6.316249    0.673232
    158          1           0       12.479741    5.350087    1.943034
 ---------------------------------------------------------------------

 SCF Done:  E(RPBE1PBE) =  -4067.34996754     A.U. after   17 cycles

 Excitation energies and oscillator strengths:

 Excited State   1:      Singlet-A      1.8174 eV  682.22 nm  f=0.0000  <S**2>=0.000
     312 -> 313        0.70704
 This state for optimization and/or second-order correction.
 Total Energy, E(TD-HF/TD-DFT) =  -4067.28318082
 Copying the excited state density for this state as the 1-particle RhoCI density.

 Excited State   2:      Singlet-A      1.8336 eV  676.17 nm  f=0.5801  <S**2>=0.000
     309 -> 315        0.16578
     311 -> 313       -0.25421
     312 -> 314        0.64412

 Excited State   3:      Singlet-A      1.8624 eV  665.72 nm  f=0.1779  <S**2>=0.000
     310 -> 316        0.15356
     311 -> 313        0.64421
     312 -> 314        0.25251
     311 <- 313       -0.10065

 Excited State   4:      Singlet-A      1.9160 eV  647.11 nm  f=0.0000  <S**2>=0.000
     311 -> 314        0.70703

 Excited State   5:      Singlet-A      2.1776 eV  569.37 nm  f=0.1357  <S**2>=0.000
     310 -> 313        0.66009
     311 -> 316       -0.23509

 The electronic state is 1-A.
 Alpha  occ. eigenvalues --  -46.92793 -46.92666 -19.26553 -19.25632 -19.20741
 Alpha  occ. eigenvalues --  -19.20145 -19.19678 -19.19246 -19.18821 -19.18411
 Alpha  occ. eigenvalues --  -14.42127 -14.41720 -14.41572 -14.41155 -14.39384
 Alpha  occ. eigenvalues --  -14.39310 -14.39231 -14.38549 -10.36793 -10.35549
 Alpha  occ. eigenvalues --  -10.32915 -10.32793 -10.32125 -10.31219 -10.29797
 Alpha  occ. eigenvalues --  -10.29746 -10.29279 -10.29142 -10.28881 -10.28843
 Alpha  occ. eigenvalues --  -10.28654 -10.28302 -10.28248 -10.28069 -10.27943
 Alpha  occ. eigenvalues --  -10.27773 -10.27759 -10.27491 -10.27438 -10.26877
 Alpha  occ. eigenvalues --  -10.26813 -10.26794 -10.26729 -10.26558 -10.26472
 Alpha  occ. eigenvalues --  -10.26344 -10.26317 -10.26309 -10.26282 -10.26078
 Alpha  occ. eigenvalues --  -10.25922 -10.25771 -10.25748 -10.25690 -10.25610
 Alpha  occ. eigenvalues --  -10.25585 -10.25576 -10.25520 -10.25505 -10.25482
 Alpha  occ. eigenvalues --  -10.25375 -10.25292 -10.25234 -10.25178 -10.25110
 Alpha  occ. eigenvalues --  -10.25086 -10.24862 -10.24856 -10.24834 -10.24320
 Alpha  occ. eigenvalues --  -10.24232 -10.23975 -10.23915 -10.23914 -10.23870
 Alpha  occ. eigenvalues --  -10.23652 -10.23440 -10.23350 -10.23310 -10.23292
 Alpha  occ. eigenvalues --  -10.23122 -10.23048 -10.22832 -10.22767 -10.22275
 Alpha  occ. eigenvalues --  -10.22093  -3.14782  -3.14660  -1.87625  -1.87503
 Alpha  occ. eigenvalues --   -1.87146  -1.87011  -1.87005  -1.86898  -1.11724
 Alpha  occ. eigenvalues --   -1.10967  -1.05303  -1.04283  -1.03773  -1.03238
 Alpha  occ. eigenvalues --   -1.02516  -1.02114  -0.99970  -0.99911  -0.98863
 Alpha  occ. eigenvalues --   -0.98754  -0.97987  -0.97589  -0.97247  -0.96477
 Alpha  occ. eigenvalues --   -0.87002  -0.86496  -0.83556  -0.83461  -0.83261
 Alpha  occ. eigenvalues --   -0.82976  -0.82635  -0.82434  -0.82202  -0.81879
 Alpha  occ. eigenvalues --   -0.81877  -0.81399  -0.81066  -0.80545  -0.79114
 Alpha  occ. eigenvalues --   -0.78879  -0.78494  -0.77838  -0.77307  -0.76823
 Alpha  occ. eigenvalues --   -0.76163  -0.76046  -0.75766  -0.75635  -0.75013
 Alpha  occ. eigenvalues --   -0.74270  -0.73001  -0.72490  -0.71884  -0.71846
 Alpha  occ. eigenvalues --   -0.71651  -0.71616  -0.70318  -0.70224  -0.69638
 Alpha  occ. eigenvalues --   -0.69447  -0.67854  -0.67097  -0.66807  -0.66076
 Alpha  occ. eigenvalues --   -0.64310  -0.63808  -0.63713  -0.63427  -0.63028
 Alpha  occ. eigenvalues --   -0.62103  -0.61989  -0.61516  -0.60201  -0.59969
 Alpha  occ. eigenvalues --   -0.59851  -0.59646  -0.59374  -0.59271  -0.59084
 Alpha  occ. eigenvalues --   -0.58436  -0.57305  -0.56563  -0.54983  -0.54928
 Alpha  occ. eigenvalues --   -0.54426  -0.54164  -0.53817  -0.53656  -0.53540
 Alpha  occ. eigenvalues --   -0.53198  -0.52758  -0.52685  -0.52317  -0.52268
 Alpha  occ. eigenvalues --   -0.50959  -0.50707  -0.50261  -0.50195  -0.50012
 Alpha  occ. eigenvalues --   -0.49710  -0.49600  -0.49552  -0.49293  -0.49181
 Alpha  occ. eigenvalues --   -0.49142  -0.48301  -0.48097  -0.47857  -0.47837
 Alpha  occ. eigenvalues --   -0.47749  -0.47350  -0.47212  -0.47146  -0.47036
 Alpha  occ. eigenvalues --   -0.46657  -0.46625  -0.46463  -0.46428  -0.46362
 Alpha  occ. eigenvalues --   -0.45818  -0.45791  -0.45632  -0.45552  -0.44873
 Alpha  occ. eigenvalues --   -0.44714  -0.44455  -0.44355  -0.44258  -0.44144
 Alpha  occ. eigenvalues --   -0.44057  -0.43760  -0.43628  -0.43533  -0.43393
 Alpha  occ. eigenvalues --   -0.43373  -0.43248  -0.43088  -0.42913  -0.42907
 Alpha  occ. eigenvalues --   -0.42640  -0.42476  -0.42242  -0.42162  -0.41893
 Alpha  occ. eigenvalues --   -0.41761  -0.41696  -0.41472  -0.41460  -0.41338
 Alpha  occ. eigenvalues --   -0.41017  -0.40918  -0.40780  -0.40685  -0.40466
 Alpha  occ. eigenvalues --   -0.40465  -0.40101  -0.39997  -0.39664  -0.39467
 Alpha  occ. eigenvalues --   -0.39343  -0.39080  -0.38952  -0.38926  -0.38794
 Alpha  occ. eigenvalues --   -0.38472  -0.38426  -0.38154  -0.38107  -0.37979
 Alpha  occ. eigenvalues --   -0.37888  -0.37844  -0.37812  -0.37698  -0.37266
 Alpha  occ. eigenvalues --   -0.37236  -0.37200  -0.37029  -0.36989  -0.36956
 Alpha  occ. eigenvalues --   -0.36869  -0.36642  -0.36638  -0.36588  -0.36353
 Alpha  occ. eigenvalues --   -0.35893  -0.35835  -0.35716  -0.35531  -0.35515
 Alpha  occ. eigenvalues --   -0.35042  -0.34874  -0.34627  -0.34329  -0.33823
 Alpha  occ. eigenvalues --   -0.33011  -0.32993  -0.32986  -0.32684  -0.32626
 Alpha  occ. eigenvalues --   -0.32314  -0.31985  -0.31908  -0.31652  -0.31534
 Alpha  occ. eigenvalues --   -0.31317  -0.31117  -0.29805  -0.29617  -0.29534
 Alpha  occ. eigenvalues --   -0.29181  -0.29134  -0.28922  -0.27040  -0.27034
 Alpha  occ. eigenvalues --   -0.26522  -0.26135  -0.26097  -0.25785  -0.25717
 Alpha  occ. eigenvalues --   -0.25656  -0.25582  -0.25179  -0.21452  -0.20904
 Alpha  occ. eigenvalues --   -0.19008  -0.18816
 Alpha virt. eigenvalues --   -0.11368  -0.11218  -0.05945  -0.05097  -0.04613
 Alpha virt. eigenvalues --   -0.03846  -0.02436  -0.02057  -0.01034  -0.00552
 Alpha virt. eigenvalues --   -0.00119   0.00618   0.00879   0.01096   0.01980

 Mulliken charges:
               1
     1  Mg  12.000000
     2  C    6.000002
     3  C    5.999998
     4  C    6.000000
     5  C    6.000001
     6  N    7.000000
     7  C    5.999997
     8  C    6.000001
     9  C    5.999999
    10  C    6.000003
    11  C    6.000000
    12  C    6.000000
    13  C    6.000000
    14  H    0.999999
    15  N    6.999999
    16  C    6.000003
    17  C    6.000002
    18  C    6.000001
    19  C    6.000002
    20  C    6.000000
    21  C    6.000001
    22  O    8.000002
    23  C    6.000000
    24  N    7.000000
    25  C    6.000002
    26  C    5.999999
    27  C    6.000001
    28  C    5.999998
    29  C    6.000000
    30  C    6.000000
    31  C    6.000000
    32  N    7.000000
    33  C    5.999996
    34  C    5.999998
    35  C    6.000000
    36  C    5.999998
    37  C    6.000000
    38  C    5.999999
    39  O    7.999998
    40  C    6.000000
    41  C    6.000000
    42  O    8.000000
    43  O    8.000000
    44  C    6.000000
    45  H    1.000001
    46  H    1.000001
    47  H    0.999999
    48  H    1.000000
    49  H    1.000000
    50  H    1.000001
    51  H    1.000000
    52  H    1.000000
    53  H    0.999999
    54  H    1.000000
    55  H    1.000000
    56  H    1.000000
    57  H    1.000002
    58  H    1.000001
    59  H    1.000001
    60  H    1.000001
    61  H    1.000001
    62  H    1.000001
    63  H    1.000000
    64  H    1.000000
    65  H    1.000000
    66  H    1.000000
    67  H    1.000001
    68  H    0.999999
    69  H    1.000000
    70  H    1.000000
    71  H    0.999999
    72  H    0.999999
    73  H    0.999998
    74  H    0.999999
    75  H    0.999999
    76  H    0.999999
    77  H    1.000000
    78  H    1.000000
    79  H    0.999999
    80  Mg  12.000000
    81  C    6.000000
    82  C    6.000000
    83  C    6.000000
    84  C    6.000000
    85  N    7.000000
    86  C    5.999999
    87  C    6.000000
    88  C    6.000000
    89  C    6.000000
    90  C    6.000000
    91  C    6.000000
    92  C    6.000000
    93  H    1.000000
    94  N    7.000000
    95  C    6.000000
    96  C    6.000000
    97  C    6.000000
    98  C    6.000001
    99  C    6.000000
   100  C    6.000000
   101  O    8.000000
   102  C    6.000000
   103  N    7.000000
   104  C    6.000001
   105  C    6.000000
   106  C    6.000000
   107  C    5.999999
   108  C    6.000000
   109  C    6.000000
   110  C    6.000000
   111  N    7.000000
   112  C    5.999999
   113  C    6.000000
   114  C    6.000000
   115  C    6.000000
   116  C    6.000000
   117  C    6.000000
   118  O    7.999999
   119  C    6.000000
   120  C    6.000000
   121  O    8.000000
   122  O    8.000000
   123  C    6.000000
   124  H    1.000000
   125  H    1.000000
   126  H    1.000000
   127  H    1.000000
   128  H    1.000000
   129  H    1.000000
   130  H    1.000000
   131  H    1.000000
   132  H    1.000000
   133  H    1.000000
   134  H    1.000000
   135  H    1.000000
   136  H    1.000000
   137  H    1.000000
   138  H    1.000000
   139  H    1.000000
   140  H    1.000000
   141  H    1.000000
   142  H    1.000000
   143  H    1.000000
   144  H    1.000000
   145  H    1.000000
   146  H    1.000000
   147  H    1.000000
   148  H    1.000000
   149  H    1.000000
   150  H    1.000000
   151  H    1.000000
   152  H    1.000000
   153  H    1.000000
   154  H    1.000000
   155  H    1.000000
   156  H    1.000000
   157  H    1.000000
   158  H    1.000000
 Sum of Mulliken charges = 624.00000

 Dipole moment (field-independent basis, Debye):
    X=             -0.0010    Y=             -0.0001    Z=             -0.0005  Tot=              0.0011
 Quadrupole moment (field-independent basis, Debye-Ang):
   XX=              0.0094   YY=             -0.0002   ZZ=             -0.0001
   XY=              0.0010   XZ=              0.0048   YZ=              0.0001

 Normal termination of Gaussian 16 at Wed Oct 13 20:35:36 2021.
