 Gaussian 16, Revision A.03,
 Gaussian 16:  ES64L-G16RevA.03 25-Dec-2016

 --------------------------------------------------------
 #p PBE1PBE/Def2SVP td=(nstates=5) density=(transition=1)
 --------------------------------------------------------

 --------------------------------
 TDDFT excited states in gaussian
 --------------------------------
 Symbolic Z-matrix:
 Charge =  0 Multiplicity = 1

                         Standard orientation:
 ---------------------------------------------------------------------
 Center     Atomic      Atomic             Coordinates (Angstroms)
 Number     Number       Type             X           Y           Z
 ---------------------------------------------------------------------
      1         12           0       20.253472    0.140477    0.536347
      2          6           0       17.605054   -1.668273   -1.238957
      3          6           0       20.484022    2.169598   -2.310660
      4          6           0       22.847840    1.572776    1.894786
      5          6           0       19.726532   -1.850787    3.278450
      6          7           0       19.329901    0.108749   -1.582524
      7          6           0       18.170538   -0.632828   -2.062985
      8          6           0       17.756238   -0.274401   -3.506280
      9          6           0       18.899435    0.850130   -3.836484
     10          6           0       19.659358    1.082071   -2.515770
     11          6           0       19.811405    0.475293   -4.988490
     12          6           0       16.266210    0.180752   -3.552917
     13          6           0       15.833733    0.833468   -4.831358
     14          1           0       14.507120    0.459555   -5.454220
     15          7           0       21.547576    1.669666   -0.110306
     16          6           0       21.484046    2.394142   -1.306000
     17          6           0       22.535431    3.409523   -1.322632
     18          6           0       23.259176    3.260521   -0.069267
     19          6           0       22.579257    2.131994    0.667782
     20          6           0       22.731152    4.486479   -2.451945
     21          6           0       24.456951    3.960308    0.464232
     22          8           0       24.955992    3.758544    1.563322
     23          6           0       25.063706    5.066442   -0.295167
     24          7           0       21.079621   -0.029161    2.311656
     25          6           0       22.227736    0.573527    2.626140
     26          6           0       22.719615    0.217039    4.048565
     27          6           0       21.505050   -0.497200    4.604202
     28          6           0       20.715105   -0.893545    3.297097
     29          6           0       23.974798   -0.647849    4.052554
     30          6           0       20.573031    0.131711    5.607315
     31          6           0       19.844671    1.357071    5.097893
     32          7           0       19.029940   -1.494899    0.944108
     33          6           0       18.868107   -2.143108    2.181884
     34          6           0       17.858476   -3.163789    2.045093
     35          6           0       17.338802   -2.910168    0.749649
     36          6           0       18.080351   -1.902672    0.103660
     37          6           0       17.331030   -4.106272    3.087241
     38          6           0       16.235951   -3.361411   -0.154348
     39          8           0       15.282326   -4.143854    0.045460
     40          6           0       16.424315   -2.583688   -1.454960
     41          6           0       16.552169   -3.553758   -2.631367
     42          8           0       17.441565   -4.418870   -2.885204
     43          8           0       15.564586   -3.234586   -3.515771
     44          6           0       15.559253   -4.006550   -4.779060
     45          1           0       20.415259    2.916704   -3.102878
     46          1           0       23.751134    1.993521    2.341319
     47          1           0       19.521430   -2.537591    4.102416
     48          1           0       17.803798   -1.214873   -4.055156
     49          1           0       18.409899    1.809820   -4.002290
     50          1           0       19.736276    1.248053   -5.754073
     51          1           0       19.429229   -0.463654   -5.387438
     52          1           0       20.815745    0.129493   -4.744858
     53          1           0       16.113243    0.766551   -2.645864
     54          1           0       15.633638   -0.694541   -3.404706
     55          1           0       16.474735    0.691523   -5.701150
     56          1           0       15.694278    1.900110   -4.657860
     57          1           0       22.574766    5.441999   -1.950484
     58          1           0       22.012034    4.397687   -3.266104
     59          1           0       23.754204    4.367158   -2.808862
     60          1           0       25.160808    4.867544   -1.362658
     61          1           0       26.053254    5.166296    0.149455
     62          1           0       24.319443    5.859811   -0.233401
     63          1           0       22.949931    1.157337    4.549586
     64          1           0       21.774884   -1.407400    5.140504
     65          1           0       24.630757   -0.299106    4.849338
     66          1           0       24.509629   -0.572210    3.106404
     67          1           0       23.729681   -1.665838    4.357532
     68          1           0       21.139033    0.311321    6.521776
     69          1           0       19.732313   -0.526804    5.824978
     70          1           0       19.865081    2.173585    5.818756
     71          1           0       18.781809    1.177859    4.934158
     72          1           0       20.252712    1.771748    4.176045
     73          1           0       16.244393   -4.034971    3.127684
     74          1           0       17.664269   -4.035412    4.122602
     75          1           0       17.600882   -5.112645    2.766412
     76          1           0       15.510538   -2.020728   -1.647319
     77          1           0       16.010988   -3.413815   -5.574215
     78          1           0       14.488833   -4.200092   -4.848798
     79          1           0       16.014480   -4.991496   -4.667715
     80         12           0      -19.886092   -0.533838   -0.302444
     81          6           0      -19.274038    2.862384   -0.445614
     82          6           0      -16.482653   -1.050355   -0.314257
     83          6           0      -20.462590   -3.837938    0.439028
     84          6           0      -23.272796    0.071636   -0.180679
     85          7           0      -18.103509    0.746960   -0.169868
     86          6           0      -18.125173    2.119871   -0.317280
     87          6           0      -16.718411    2.711690   -0.341409
     88          6           0      -15.856265    1.429502   -0.642778
     89          6           0      -16.849882    0.324657   -0.314705
     90          6           0      -15.163416    1.332168   -2.076903
     91          6           0      -16.285954    3.527059    0.918788
     92          6           0      -15.588326    4.842378    0.643440
     93          1           0      -14.117013    4.802121    1.026088
     94          7           0      -18.633726   -2.159774    0.023007
     95          6           0      -17.298114   -2.178792   -0.050936
     96          6           0      -16.791036   -3.528886    0.123242
     97          6           0      -17.836196   -4.408646    0.350450
     98          6           0      -19.055234   -3.491053    0.332870
     99          6           0      -15.224480   -3.865863    0.143728
    100          6           0      -17.745981   -5.964614    0.503137
    101          8           0      -16.604861   -6.507236    0.507372
    102          6           0      -18.950131   -6.805306    0.692558
    103          7           0      -21.663134   -1.731788    0.334449
    104          6           0      -21.660891   -3.043215    0.401777
    105          6           0      -23.052141   -3.637706    0.335169
    106          6           0      -24.047334   -2.432991    0.226400
    107          6           0      -22.966110   -1.264172    0.036969
    108          6           0      -23.325671   -4.888290   -0.560056
    109          6           0      -25.040269   -2.120337    1.383203
    110          6           0      -26.182132   -1.221423    0.956012
    111          7           0      -21.072478    1.158084   -0.299319
    112          6           0      -22.482474    1.260799   -0.331281
    113          6           0      -22.819055    2.647205   -0.507491
    114          6           0      -21.590277    3.345813   -0.595622
    115          6           0      -20.605039    2.378462   -0.418092
    116          6           0      -24.197837    3.213252   -0.813070
    117          6           0      -21.069634    4.606365   -0.793239
    118          8           0      -21.519329    5.717189   -0.870118
    119          6           0      -19.485397    4.389121   -0.557051
    120          6           0      -19.253795    4.898728    0.864642
    121          8           0      -19.484676    4.281187    1.886365
    122          8           0      -18.757528    6.187286    0.750166
    123          6           0      -18.565596    6.910032    2.003339
    124          1           0      -15.436947   -1.293013   -0.513619
    125          1           0      -20.573806   -4.901429    0.659142
    126          1           0      -24.307920    0.400056   -0.295081
    127          1           0      -16.647576    3.345717   -1.224729
    128          1           0      -15.149062    1.331311    0.181630
    129          1           0      -15.035507    0.255055   -2.183902
    130          1           0      -14.138776    1.703654   -2.105699
    131          1           0      -15.702776    1.772983   -2.915167
    132          1           0      -15.609139    2.844631    1.433304
    133          1           0      -17.026359    3.644053    1.709856
    134          1           0      -16.114831    5.611672    1.208773
    135          1           0      -15.616665    5.117482   -0.411077
    136          1           0      -14.562345   -3.004035    0.050396
    137          1           0      -14.974241   -4.569063   -0.651323
    138          1           0      -14.883597   -4.255802    1.101814
    139          1           0      -19.615265   -6.685582   -0.162058
    140          1           0      -19.389697   -6.661218    1.679622
    141          1           0      -18.588681   -7.819159    0.525182
    142          1           0      -23.438855   -4.034748    1.273964
    143          1           0      -24.515002   -2.365347   -0.756132
    144          1           0      -22.344463   -5.272690   -0.841960
    145          1           0      -24.006613   -4.696375   -1.390064
    146          1           0      -23.809766   -5.714383   -0.038969
    147          1           0      -24.436859   -1.712601    2.194107
    148          1           0      -25.367613   -3.101861    1.725917
    149          1           0      -27.051839   -1.489986    1.556186
    150          1           0      -26.475437   -1.304743   -0.091144
    151          1           0      -25.956172   -0.197007    1.252118
    152          1           0      -24.188843    4.262535   -1.108210
    153          1           0      -24.819707    3.057210    0.067470
    154          1           0      -24.679530    2.665481   -1.623100
    155          1           0      -18.898249    4.844101   -1.355360
    156          1           0      -19.533244    7.082139    2.474942
    157          1           0      -18.015080    7.838518    1.855767
    158          1           0      -18.010839    6.283537    2.701232
 ---------------------------------------------------------------------

 SCF Done:  E(RPBE1PBE) =  -4067.38424810     A.U. after   18 cycles

 Excitation energies and oscillator strengths:

 Excited State   1:      Singlet-A      1.8174 eV  682.19 nm  f=0.3855  <S**2>=0.000
     309 -> 316        0.16216
     311 -> 313        0.69594
     311 <- 313       -0.11404
 This state for optimization and/or second-order correction.
 Total Energy, E(TD-HF/TD-DFT) =  -4067.31745805
 Copying the excited state density for this state as the 1-particle RhoCI density.

 Excited State   2:      Singlet-A      1.8787 eV  659.93 nm  f=0.0000  <S**2>=0.000
     312 -> 313        0.70710

 Excited State   3:      Singlet-A      1.8859 eV  657.42 nm  f=0.3615  <S**2>=0.000
     310 -> 315        0.14507
     312 -> 314        0.69234

 Excited State   4:      Singlet-A      2.0949 eV  591.84 nm  f=0.0000  <S**2>=0.000
     311 -> 314        0.70711

 Excited State   5:      Singlet-A      2.1799 eV  568.77 nm  f=0.1284  <S**2>=0.000
     309 -> 313        0.66143
     311 -> 316       -0.23371

 The electronic state is 1-A.
 Alpha  occ. eigenvalues --  -46.92785 -46.91175 -19.26525 -19.25315 -19.20266
 Alpha  occ. eigenvalues --  -19.20062 -19.20021 -19.18913 -19.18785 -19.18466
 Alpha  occ. eigenvalues --  -14.42099 -14.41711 -14.41670 -14.41576 -14.39967
 Alpha  occ. eigenvalues --  -14.39532 -14.38685 -14.38409 -10.37106 -10.36294
 Alpha  occ. eigenvalues --  -10.33817 -10.32000 -10.31624 -10.30935 -10.30213
 Alpha  occ. eigenvalues --  -10.29925 -10.29675 -10.29220 -10.29060 -10.29002
 Alpha  occ. eigenvalues --  -10.28807 -10.28661 -10.28585 -10.28531 -10.28469
 Alpha  occ. eigenvalues --  -10.28155 -10.28110 -10.27866 -10.27838 -10.27326
 Alpha  occ. eigenvalues --  -10.26854 -10.26847 -10.26831 -10.26815 -10.26583
 Alpha  occ. eigenvalues --  -10.26568 -10.26473 -10.26353 -10.26337 -10.26115
 Alpha  occ. eigenvalues --  -10.26041 -10.26008 -10.25830 -10.25826 -10.25720
 Alpha  occ. eigenvalues --  -10.25519 -10.25488 -10.25397 -10.25316 -10.25255
 Alpha  occ. eigenvalues --  -10.25137 -10.25129 -10.25106 -10.24855 -10.24717
 Alpha  occ. eigenvalues --  -10.24552 -10.24545 -10.24527 -10.24517 -10.24496
 Alpha  occ. eigenvalues --  -10.24482 -10.24441 -10.24278 -10.23822 -10.23704
 Alpha  occ. eigenvalues --  -10.23621 -10.23559 -10.23345 -10.23333 -10.23270
 Alpha  occ. eigenvalues --  -10.23111 -10.23073 -10.22933 -10.22735 -10.21988
 Alpha  occ. eigenvalues --  -10.21432  -3.14806  -3.13492  -1.87629  -1.87184
 Alpha  occ. eigenvalues --   -1.87033  -1.86339  -1.85879  -1.85717  -1.10884
 Alpha  occ. eigenvalues --   -1.10361  -1.05028  -1.04910  -1.03470  -1.02884
 Alpha  occ. eigenvalues --   -1.02708  -1.00667  -0.99672  -0.99156  -0.98368
 Alpha  occ. eigenvalues --   -0.97890  -0.97716  -0.97201  -0.96739  -0.95166
 Alpha  occ. eigenvalues --   -0.86778  -0.86225  -0.84004  -0.83465  -0.83139
 Alpha  occ. eigenvalues --   -0.82964  -0.82753  -0.82167  -0.81631  -0.81369
 Alpha  occ. eigenvalues --   -0.81092  -0.80565  -0.80351  -0.80350  -0.79029
 Alpha  occ. eigenvalues --   -0.78640  -0.78418  -0.77925  -0.77234  -0.77222
 Alpha  occ. eigenvalues --   -0.76344  -0.76319  -0.75824  -0.75183  -0.74592
 Alpha  occ. eigenvalues --   -0.74416  -0.72673  -0.71974  -0.71632  -0.71339
 Alpha  occ. eigenvalues --   -0.71216  -0.70920  -0.70339  -0.69819  -0.69743
 Alpha  occ. eigenvalues --   -0.69472  -0.67306  -0.66933  -0.66342  -0.66106
 Alpha  occ. eigenvalues --   -0.64598  -0.64078  -0.63829  -0.63473  -0.62474
 Alpha  occ. eigenvalues --   -0.62068  -0.61639  -0.61602  -0.60017  -0.59903
 Alpha  occ. eigenvalues --   -0.59595  -0.59242  -0.59209  -0.58766  -0.58702
 Alpha  occ. eigenvalues --   -0.58390  -0.56594  -0.56390  -0.54680  -0.54347
 Alpha  occ. eigenvalues --   -0.54140  -0.53806  -0.53721  -0.53559  -0.52981
 Alpha  occ. eigenvalues --   -0.52927  -0.52520  -0.52298  -0.52059  -0.51960
 Alpha  occ. eigenvalues --   -0.50827  -0.50824  -0.50463  -0.50121  -0.50000
 Alpha  occ. eigenvalues --   -0.49797  -0.49686  -0.49364  -0.48957  -0.48712
 Alpha  occ. eigenvalues --   -0.48334  -0.48086  -0.48016  -0.47870  -0.47755
 Alpha  occ. eigenvalues --   -0.47505  -0.47357  -0.47204  -0.47090  -0.46819
 Alpha  occ. eigenvalues --   -0.46597  -0.46194  -0.45834  -0.45699  -0.45468
 Alpha  occ. eigenvalues --   -0.45429  -0.45218  -0.45179  -0.45014  -0.44820
 Alpha  occ. eigenvalues --   -0.44741  -0.44532  -0.44506  -0.44256  -0.43970
 Alpha  occ. eigenvalues --   -0.43953  -0.43736  -0.43523  -0.43488  -0.43372
 Alpha  occ. eigenvalues --   -0.43245  -0.43230  -0.42951  -0.42860  -0.42764
 Alpha  occ. eigenvalues --   -0.42433  -0.42249  -0.42170  -0.42010  -0.41745
 Alpha  occ. eigenvalues --   -0.41594  -0.41494  -0.41339  -0.41254  -0.41031
 Alpha  occ. eigenvalues --   -0.40914  -0.40810  -0.40717  -0.40590  -0.40507
 Alpha  occ. eigenvalues --   -0.40212  -0.40077  -0.40015  -0.39921  -0.39705
 Alpha  occ. eigenvalues --   -0.39565  -0.39434  -0.39263  -0.39158  -0.39098
 Alpha  occ. eigenvalues --   -0.38871  -0.38855  -0.38794  -0.38504  -0.38370
 Alpha  occ. eigenvalues --   -0.38239  -0.37921  -0.37847  -0.37494  -0.37491
 Alpha  occ. eigenvalues --   -0.37372  -0.37364  -0.37172  -0.37063  -0.37058
 Alpha  occ. eigenvalues --   -0.36851  -0.36701  -0.36494  -0.36449  -0.36094
 Alpha  occ. eigenvalues --   -0.35839  -0.35746  -0.35366  -0.35355  -0.35088
 Alpha  occ. eigenvalues --   -0.34889  -0.34859  -0.34213  -0.34180  -0.34012
 Alpha  occ. eigenvalues --   -0.33944  -0.33858  -0.33024  -0.32432  -0.32345
 Alpha  occ. eigenvalues --   -0.32188  -0.31828  -0.31596  -0.31540  -0.31410
 Alpha  occ. eigenvalues --   -0.31198  -0.30473  -0.29638  -0.29545  -0.29254
 Alpha  occ. eigenvalues --   -0.29143  -0.28691  -0.28629  -0.27208  -0.27092
 Alpha  occ. eigenvalues --   -0.26757  -0.26383  -0.25865  -0.25796  -0.25396
 Alpha  occ. eigenvalues --   -0.25298  -0.25025  -0.24926  -0.21173  -0.20858
 Alpha  occ. eigenvalues --   -0.19118  -0.18937
 Alpha virt. eigenvalues --   -0.11708  -0.11083  -0.05462  -0.05247  -0.03904
 Alpha virt. eigenvalues --   -0.03884  -0.02506  -0.02215  -0.00922  -0.00337
 Alpha virt. eigenvalues --    0.00081   0.00897   0.01270   0.01459   0.01932

 Mulliken charges:
               1
     1  Mg  11.997754
     2  C    6.015981
     3  C    5.993861
     4  C    5.985471
     5  C    6.009579
     6  N    7.005770
     7  C    5.968729
     8  C    6.010526
     9  C    5.992324
    10  C    6.024168
    11  C    5.993317
    12  C    6.003012
    13  C    5.999615
    14  H    0.999475
    15  N    6.995496
    16  C    6.035620
    17  C    6.021997
    18  C    6.015108
    19  C    6.029381
    20  C    6.001438
    21  C    6.011955
    22  O    8.030141
    23  C    5.996816
    24  N    7.001573
    25  C    6.033074
    26  C    5.992508
    27  C    6.001688
    28  C    5.967602
    29  C    5.998346
    30  C    6.006987
    31  C    6.005025
    32  N    7.001307
    33  C    5.960602
    34  C    5.978523
    35  C    5.993989
    36  C    5.967548
    37  C    6.002715
    38  C    5.980748
    39  O    7.969352
    40  C    6.001991
    41  C    5.997522
    42  O    7.994037
    43  O    7.998326
    44  C    6.001052
    45  H    1.010735
    46  H    1.006279
    47  H    0.990703
    48  H    1.000001
    49  H    0.999949
    50  H    1.001292
    51  H    1.012756
    52  H    0.997980
    53  H    0.997560
    54  H    1.005747
    55  H    0.995372
    56  H    0.994899
    57  H    1.015293
    58  H    1.016864
    59  H    1.014873
    60  H    1.006875
    61  H    1.013803
    62  H    1.007859
    63  H    0.998508
    64  H    0.999647
    65  H    1.002420
    66  H    0.994760
    67  H    1.012508
    68  H    0.989931
    69  H    1.004398
    70  H    0.994268
    71  H    1.005485
    72  H    0.985298
    73  H    0.985661
    74  H    0.982563
    75  H    0.983262
    76  H    0.991876
    77  H    0.993516
    78  H    0.997122
    79  H    0.997887
    80  Mg  11.999991
    81  C    6.000059
    82  C    5.999891
    83  C    5.999865
    84  C    6.000081
    85  N    7.000007
    86  C    5.999814
    87  C    6.000061
    88  C    5.999899
    89  C    6.000351
    90  C    5.999981
    91  C    6.000049
    92  C    5.999996
    93  H    1.000008
    94  N    6.999978
    95  C    6.000302
    96  C    6.000265
    97  C    6.000070
    98  C    6.000374
    99  C    5.999966
   100  C    6.000155
   101  O    8.000289
   102  C    5.999953
   103  N    6.999991
   104  C    6.000283
   105  C    5.999895
   106  C    6.000045
   107  C    5.999706
   108  C    5.999988
   109  C    6.000045
   110  C    6.000037
   111  N    6.999955
   112  C    5.999651
   113  C    5.999633
   114  C    5.999940
   115  C    5.999825
   116  C    5.999995
   117  C    5.999801
   118  O    7.999631
   119  C    6.000011
   120  C    5.999952
   121  O    7.999957
   122  O    7.999990
   123  C    6.000025
   124  H    1.000163
   125  H    1.000068
   126  H    0.999885
   127  H    0.999997
   128  H    1.000067
   129  H    0.999993
   130  H    1.000126
   131  H    1.000059
   132  H    0.999960
   133  H    1.000004
   134  H    0.999986
   135  H    0.999973
   136  H    1.000233
   137  H    1.000208
   138  H    1.000244
   139  H    1.000042
   140  H    1.000071
   141  H    1.000153
   142  H    1.000061
   143  H    0.999985
   144  H    0.999977
   145  H    1.000047
   146  H    1.000010
   147  H    0.999982
   148  H    0.999883
   149  H    0.999910
   150  H    0.999967
   151  H    1.000046
   152  H    0.999836
   153  H    0.999807
   154  H    0.999787
   155  H    0.999868
   156  H    0.999948
   157  H    0.999916
   158  H    0.999979
 Sum of Mulliken charges = 624.00000

 Dipole moment (field-independent basis, Debye):
    X=              6.9551    Y=              7.5918    Z=             -2.4180  Tot=             10.5762
 Quadrupole moment (field-independent basis, Debye-Ang):
   XX=            275.6776   YY=              2.7642   ZZ=             -4.4470
   XY=            158.7118   XZ=            -48.3252   YZ=              0.5926

 Normal termination of Gaussian 16 at Thu Oct 14 08:34:17 2021.
