 Gaussian 16, Revision A.03,
 Gaussian 16:  ES64L-G16RevA.03 25-Dec-2016

 --------------------------------------------------------
 #p PBE1PBE/Def2SVP td=(nstates=5) density=(transition=1)
 --------------------------------------------------------

 --------------------------------
 TDDFT excited states in gaussian
 --------------------------------
 Symbolic Z-matrix:
 Charge =  0 Multiplicity = 1

                         Standard orientation:
 ---------------------------------------------------------------------
 Center     Atomic      Atomic             Coordinates (Angstroms)
 Number     Number       Type             X           Y           Z
 ---------------------------------------------------------------------
      1         12           0        9.033694    0.323560   -0.138657
      2          6           0        7.137916   -2.344944    1.094536
      3          6           0       10.951167   -1.769138   -1.785975
      4          6           0       11.273001    2.871246   -0.685103
      5          6           0        7.299372    2.506974    2.027064
      6          7           0        8.940150   -1.769103   -0.369612
      7          6           0        8.070951   -2.705451    0.145623
      8          6           0        8.279386   -4.076971   -0.483422
      9          6           0        9.645104   -3.880008   -1.216331
     10          6           0        9.807425   -2.399798   -1.219060
     11          6           0       10.859608   -4.659080   -0.759666
     12          6           0        7.094259   -4.581677   -1.367157
     13          6           0        7.284656   -5.972774   -1.981459
     14          1           0        6.154205   -6.964902   -1.750678
     15          7           0       10.985519    0.510756   -1.101339
     16          6           0       11.519975   -0.475121   -1.851753
     17          6           0       12.680807    0.026347   -2.533633
     18          6           0       12.849139    1.362379   -2.130887
     19          6           0       11.675937    1.624935   -1.253663
     20          6           0       13.551946   -0.812048   -3.445105
     21          6           0       13.874563    2.365068   -2.548118
     22          8           0       14.052500    3.504229   -2.039681
     23          6           0       14.802024    2.068040   -3.720110
     24          7           0        9.258405    2.343907    0.584017
     25          6           0       10.297709    3.146865    0.257292
     26          6           0       10.012783    4.650607    0.796645
     27          6           0        8.511450    4.556040    1.242785
     28          6           0        8.280506    3.078955    1.235159
     29          6           0       11.037970    4.986914    1.949130
     30          6           0        7.563426    5.169761    0.148659
     31          6           0        7.692536    4.706093   -1.293943
     32          7           0        7.438155    0.171916    1.284651
     33          6           0        6.880158    1.159661    2.048898
     34          6           0        5.875448    0.569860    2.805185
     35          6           0        5.889424   -0.828738    2.534554
     36          6           0        6.867451   -1.024350    1.595188
     37          6           0        4.989516    1.186769    3.829333
     38          6           0        5.319185   -2.162477    2.831126
     39          8           0        4.472432   -2.561756    3.622287
     40          6           0        6.059210   -3.191141    1.811943
     41          6           0        6.491378   -4.418641    2.531840
     42          8           0        6.916296   -4.445936    3.725003
     43          8           0        6.182764   -5.449380    1.756515
     44          6           0        6.098692   -6.714685    2.460509
     45          1           0       11.551210   -2.402626   -2.442739
     46          1           0       11.955975    3.701961   -0.878096
     47          1           0        6.702311    3.230676    2.584110
     48          1           0        8.282437   -4.758465    0.367471
     49          1           0        9.598037   -4.129486   -2.276910
     50          1           0       10.675451   -5.554072   -0.165414
     51          1           0       11.530542   -3.988820   -0.221688
     52          1           0       11.483243   -4.816315   -1.639922
     53          1           0        6.885367   -3.852427   -2.150303
     54          1           0        6.186924   -4.601420   -0.764341
     55          1           0        7.997861   -6.565005   -1.408408
     56          1           0        7.567174   -5.906801   -3.032555
     57          1           0       13.311973   -1.875163   -3.457799
     58          1           0       14.596532   -0.905425   -3.149091
     59          1           0       13.546400   -0.474592   -4.481995
     60          1           0       15.484117    1.275917   -3.412504
     61          1           0       15.531087    2.863044   -3.875097
     62          1           0       14.270881    1.895381   -4.656852
     63          1           0       10.194858    5.366294   -0.005082
     64          1           0        8.494454    4.963741    2.253502
     65          1           0       11.873064    4.288509    2.006216
     66          1           0       10.604138    4.976805    2.949157
     67          1           0       11.539503    5.944981    1.820246
     68          1           0        7.839927    6.218565    0.257112
     69          1           0        6.499807    5.090863    0.371547
     70          1           0        8.605639    4.124034   -1.420479
     71          1           0        7.591759    5.473086   -2.061072
     72          1           0        6.785240    4.117299   -1.429209
     73          1           0        4.434921    2.057264    3.478058
     74          1           0        5.664533    1.533437    4.611278
     75          1           0        4.300020    0.469534    4.273425
     76          1           0        5.270139   -3.470697    1.114339
     77          1           0        5.223640   -7.271824    2.123542
     78          1           0        5.989100   -6.658895    3.543287
     79          1           0        6.999594   -7.266136    2.189505
     80         12           0       -8.452919    1.039846   -0.494715
     81          6           0      -11.065448   -1.403541   -0.693148
     82          6           0       -6.212836   -1.685133   -0.504126
     83          6           0       -6.019642    3.037600    0.395404
     84          6           0      -10.810105    3.465197   -0.142846
     85          7           0       -8.655671   -1.260356   -0.640945
     86          6           0       -9.820072   -1.929957   -0.817303
     87          6           0       -9.502530   -3.388694   -1.102065
     88          6           0       -7.956885   -3.555714   -1.086267
     89          6           0       -7.564826   -2.101584   -0.760727
     90          6           0       -7.429692   -4.674759   -0.022385
     91          6           0      -10.080736   -3.882949   -2.496775
     92          6           0      -10.842208   -5.208870   -2.490552
     93          1           0      -10.437426   -6.376587   -1.503927
     94          7           0       -6.388275    0.705861   -0.052645
     95          6           0       -5.714298   -0.420845   -0.145671
     96          6           0       -4.355846   -0.139494    0.224325
     97          6           0       -4.172520    1.259758    0.362545
     98          6           0       -5.535759    1.714011    0.276712
     99          6           0       -3.243030   -1.182500    0.135214
    100          6           0       -2.957192    2.167181    0.471849
    101          8           0       -3.040984    3.367870    0.654449
    102          6           0       -1.619753    1.506968    0.278673
    103          7           0       -8.487074    2.888025    0.388434
    104          6           0       -7.291960    3.604357    0.475995
    105          6           0       -7.508593    5.135930    0.613308
    106          6           0       -9.043868    5.203419    0.267287
    107          6           0       -9.498066    3.748137    0.155107
    108          6           0       -7.113567    5.620959    2.015685
    109          6           0       -9.353495    5.908631   -1.137022
    110          6           0       -9.923350    7.287480   -1.130318
    111          7           0      -10.470188    1.082820   -0.540627
    112          6           0      -11.303009    2.163710   -0.347166
    113          6           0      -12.714063    1.789910   -0.297618
    114          6           0      -12.680583    0.356643   -0.438346
    115          6           0      -11.316620   -0.019163   -0.454339
    116          6           0      -13.837744    2.761697   -0.327766
    117          6           0      -13.486927   -0.841083   -0.616673
    118          8           0      -14.728069   -0.908241   -0.678972
    119          6           0      -12.444506   -2.089560   -0.765224
    120          6           0      -12.738936   -2.956102    0.365069
    121          8           0      -12.711428   -2.589497    1.519534
    122          8           0      -13.028985   -4.200433   -0.033027
    123          6           0      -13.425736   -5.275338    0.929742
    124          1           0       -5.471086   -2.483159   -0.576529
    125          1           0       -5.267370    3.821155    0.277555
    126          1           0      -11.528275    4.286859   -0.110930
    127          1           0       -9.920378   -3.971472   -0.281151
    128          1           0       -7.579334   -3.949034   -2.030271
    129          1           0       -8.217623   -5.391475    0.209301
    130          1           0       -7.116355   -4.101247    0.850356
    131          1           0       -6.560479   -5.189202   -0.431839
    132          1           0       -9.356334   -3.924341   -3.309029
    133          1           0      -10.816486   -3.162309   -2.853577
    134          1           0      -10.870527   -5.660367   -3.482467
    135          1           0      -11.868600   -4.892131   -2.305324
    136          1           0       -2.660272   -1.136249   -0.784912
    137          1           0       -3.612910   -2.184847    0.353158
    138          1           0       -2.574531   -0.979099    0.971472
    139          1           0       -1.578710    0.764432   -0.518801
    140          1           0       -1.227219    1.002530    1.160495
    141          1           0       -0.925108    2.235683   -0.139195
    142          1           0       -6.876100    5.619381   -0.130725
    143          1           0       -9.541274    5.754078    1.065807
    144          1           0       -6.584205    4.881996    2.617033
    145          1           0       -7.986893    5.889964    2.608817
    146          1           0       -6.491202    6.511733    1.924262
    147          1           0      -10.050156    5.367328   -1.777119
    148          1           0       -8.483045    5.938734   -1.791357
    149          1           0       -9.225023    7.985609   -1.590126
    150          1           0      -10.049197    7.493543   -0.067234
    151          1           0      -10.858359    7.316936   -1.689692
    152          1           0      -14.687519    2.368865   -0.885004
    153          1           0      -13.418266    3.700252   -0.689586
    154          1           0      -14.147790    2.909488    0.707609
    155          1           0      -12.605373   -2.642428   -1.689750
    156          1           0      -14.219970   -4.904391    1.577842
    157          1           0      -12.599665   -5.595015    1.565444
    158          1           0      -13.679710   -6.220628    0.450928
 ---------------------------------------------------------------------

 SCF Done:  E(RPBE1PBE) =  -4067.38190670     A.U. after   17 cycles

 Excitation energies and oscillator strengths:

 Excited State   1:      Singlet-A      1.6045 eV  772.71 nm  f=0.0000  <S**2>=0.000
     312 -> 313        0.70706
 This state for optimization and/or second-order correction.
 Total Energy, E(TD-HF/TD-DFT) =  -4067.32294099
 Copying the excited state density for this state as the 1-particle RhoCI density.

 Excited State   2:      Singlet-A      1.8393 eV  674.09 nm  f=0.7118  <S**2>=0.000
     310 -> 316        0.12438
     311 -> 313        0.43528
     312 -> 314        0.54318

 Excited State   3:      Singlet-A      1.8603 eV  666.48 nm  f=0.0910  <S**2>=0.000
     309 -> 315        0.12418
     310 -> 316       -0.10357
     311 -> 313        0.54347
     312 -> 314       -0.43394

 Excited State   4:      Singlet-A      2.0692 eV  599.19 nm  f=0.0000  <S**2>=0.000
     311 -> 314        0.70701

 Excited State   5:      Singlet-A      2.1944 eV  565.01 nm  f=0.0000  <S**2>=0.000
     310 -> 313        0.70702

 The electronic state is 1-A.
 Alpha  occ. eigenvalues --  -46.92892 -46.91950 -19.27508 -19.25771 -19.19611
 Alpha  occ. eigenvalues --  -19.19572 -19.19214 -19.19195 -19.19075 -19.18608
 Alpha  occ. eigenvalues --  -14.42472 -14.41501 -14.41292 -14.41191 -14.39363
 Alpha  occ. eigenvalues --  -14.39010 -14.38626 -14.38008 -10.36479 -10.35354
 Alpha  occ. eigenvalues --  -10.32772 -10.32770 -10.32579 -10.32371 -10.29734
 Alpha  occ. eigenvalues --  -10.29650 -10.29444 -10.29006 -10.29000 -10.28814
 Alpha  occ. eigenvalues --  -10.28452 -10.28298 -10.28171 -10.28145 -10.28106
 Alpha  occ. eigenvalues --  -10.27885 -10.27236 -10.27234 -10.27183 -10.26949
 Alpha  occ. eigenvalues --  -10.26838 -10.26591 -10.26504 -10.26350 -10.26241
 Alpha  occ. eigenvalues --  -10.26230 -10.26180 -10.26134 -10.26105 -10.25964
 Alpha  occ. eigenvalues --  -10.25954 -10.25815 -10.25782 -10.25762 -10.25752
 Alpha  occ. eigenvalues --  -10.25680 -10.25584 -10.25575 -10.25433 -10.25354
 Alpha  occ. eigenvalues --  -10.25346 -10.25100 -10.24867 -10.24652 -10.24613
 Alpha  occ. eigenvalues --  -10.24556 -10.24334 -10.24293 -10.24180 -10.24011
 Alpha  occ. eigenvalues --  -10.23910 -10.23862 -10.23847 -10.23829 -10.23453
 Alpha  occ. eigenvalues --  -10.23433 -10.23309 -10.23247 -10.23222 -10.23207
 Alpha  occ. eigenvalues --  -10.23172 -10.22955 -10.22899 -10.22646 -10.22430
 Alpha  occ. eigenvalues --  -10.22410  -3.14865  -3.14155  -1.87714  -1.87208
 Alpha  occ. eigenvalues --   -1.87101  -1.86961  -1.86535  -1.86389  -1.13130
 Alpha  occ. eigenvalues --   -1.11207  -1.05453  -1.03910  -1.03103  -1.02950
 Alpha  occ. eigenvalues --   -1.02063  -1.00946  -1.00021  -0.99258  -0.99072
 Alpha  occ. eigenvalues --   -0.98227  -0.98075  -0.97663  -0.97339  -0.96491
 Alpha  occ. eigenvalues --   -0.86440  -0.86420  -0.83977  -0.83671  -0.82868
 Alpha  occ. eigenvalues --   -0.82717  -0.82517  -0.82277  -0.82273  -0.81561
 Alpha  occ. eigenvalues --   -0.81363  -0.81161  -0.80678  -0.80349  -0.79246
 Alpha  occ. eigenvalues --   -0.78442  -0.78353  -0.78223  -0.77277  -0.76851
 Alpha  occ. eigenvalues --   -0.76184  -0.75875  -0.75768  -0.75523  -0.74969
 Alpha  occ. eigenvalues --   -0.74939  -0.73051  -0.72465  -0.72067  -0.71906
 Alpha  occ. eigenvalues --   -0.71819  -0.71089  -0.70648  -0.70490  -0.69696
 Alpha  occ. eigenvalues --   -0.69137  -0.67397  -0.66868  -0.66276  -0.65804
 Alpha  occ. eigenvalues --   -0.64305  -0.63679  -0.63084  -0.62780  -0.62381
 Alpha  occ. eigenvalues --   -0.62165  -0.61985  -0.61249  -0.60025  -0.59940
 Alpha  occ. eigenvalues --   -0.59890  -0.59510  -0.59419  -0.59171  -0.59141
 Alpha  occ. eigenvalues --   -0.58944  -0.57499  -0.56934  -0.55523  -0.54935
 Alpha  occ. eigenvalues --   -0.54418  -0.53997  -0.53661  -0.53349  -0.53285
 Alpha  occ. eigenvalues --   -0.53025  -0.52516  -0.52293  -0.52015  -0.51916
 Alpha  occ. eigenvalues --   -0.50912  -0.50688  -0.50579  -0.50484  -0.50143
 Alpha  occ. eigenvalues --   -0.50113  -0.50042  -0.49664  -0.49075  -0.48790
 Alpha  occ. eigenvalues --   -0.48167  -0.48052  -0.47892  -0.47643  -0.47474
 Alpha  occ. eigenvalues --   -0.47413  -0.47324  -0.47180  -0.46911  -0.46806
 Alpha  occ. eigenvalues --   -0.46626  -0.46420  -0.46282  -0.45832  -0.45751
 Alpha  occ. eigenvalues --   -0.45722  -0.45360  -0.45040  -0.44978  -0.44924
 Alpha  occ. eigenvalues --   -0.44816  -0.44662  -0.44408  -0.44237  -0.43817
 Alpha  occ. eigenvalues --   -0.43712  -0.43655  -0.43624  -0.43360  -0.43278
 Alpha  occ. eigenvalues --   -0.43200  -0.43126  -0.43033  -0.42999  -0.42823
 Alpha  occ. eigenvalues --   -0.42717  -0.42336  -0.42129  -0.41917  -0.41763
 Alpha  occ. eigenvalues --   -0.41660  -0.41368  -0.41323  -0.41197  -0.41141
 Alpha  occ. eigenvalues --   -0.40869  -0.40845  -0.40773  -0.40755  -0.40584
 Alpha  occ. eigenvalues --   -0.40336  -0.40124  -0.39959  -0.39801  -0.39702
 Alpha  occ. eigenvalues --   -0.39316  -0.39198  -0.39197  -0.39004  -0.38779
 Alpha  occ. eigenvalues --   -0.38644  -0.38582  -0.38351  -0.38294  -0.38171
 Alpha  occ. eigenvalues --   -0.38077  -0.37684  -0.37646  -0.37619  -0.37546
 Alpha  occ. eigenvalues --   -0.37394  -0.37296  -0.37166  -0.37116  -0.36585
 Alpha  occ. eigenvalues --   -0.36502  -0.36366  -0.36339  -0.36289  -0.36219
 Alpha  occ. eigenvalues --   -0.36118  -0.35844  -0.35838  -0.35459  -0.35383
 Alpha  occ. eigenvalues --   -0.35136  -0.34671  -0.34599  -0.34291  -0.34134
 Alpha  occ. eigenvalues --   -0.33733  -0.33287  -0.32956  -0.32830  -0.32483
 Alpha  occ. eigenvalues --   -0.32108  -0.31926  -0.31792  -0.31504  -0.31413
 Alpha  occ. eigenvalues --   -0.31197  -0.31133  -0.29573  -0.29413  -0.29336
 Alpha  occ. eigenvalues --   -0.28657  -0.28386  -0.28255  -0.27497  -0.26802
 Alpha  occ. eigenvalues --   -0.26481  -0.26355  -0.25751  -0.25714  -0.25486
 Alpha  occ. eigenvalues --   -0.25411  -0.24976  -0.24551  -0.21119  -0.20687
 Alpha  occ. eigenvalues --   -0.19441  -0.18522
 Alpha virt. eigenvalues --   -0.11880  -0.11057  -0.05025  -0.04628  -0.04237
 Alpha virt. eigenvalues --   -0.03959  -0.02247  -0.02195  -0.01174  -0.00940
 Alpha virt. eigenvalues --   -0.00417   0.00382   0.00751   0.01182   0.01490

 Mulliken charges:
               1
     1  Mg  12.000000
     2  C    6.000000
     3  C    6.000000
     4  C    6.000000
     5  C    6.000000
     6  N    7.000000
     7  C    6.000000
     8  C    6.000000
     9  C    6.000000
    10  C    6.000000
    11  C    6.000000
    12  C    6.000000
    13  C    6.000000
    14  H    1.000000
    15  N    7.000000
    16  C    6.000000
    17  C    6.000000
    18  C    6.000000
    19  C    6.000000
    20  C    6.000000
    21  C    6.000000
    22  O    8.000000
    23  C    6.000000
    24  N    7.000000
    25  C    6.000000
    26  C    6.000000
    27  C    6.000000
    28  C    6.000000
    29  C    6.000000
    30  C    6.000000
    31  C    6.000000
    32  N    7.000000
    33  C    6.000000
    34  C    6.000000
    35  C    6.000000
    36  C    6.000000
    37  C    6.000000
    38  C    6.000000
    39  O    8.000000
    40  C    6.000000
    41  C    6.000000
    42  O    8.000000
    43  O    8.000000
    44  C    6.000000
    45  H    1.000000
    46  H    1.000000
    47  H    1.000000
    48  H    1.000000
    49  H    1.000000
    50  H    1.000000
    51  H    1.000000
    52  H    1.000000
    53  H    1.000000
    54  H    1.000000
    55  H    1.000000
    56  H    1.000000
    57  H    1.000000
    58  H    1.000000
    59  H    1.000000
    60  H    1.000000
    61  H    1.000000
    62  H    1.000000
    63  H    1.000000
    64  H    1.000000
    65  H    1.000000
    66  H    1.000000
    67  H    1.000000
    68  H    1.000000
    69  H    1.000000
    70  H    1.000000
    71  H    1.000000
    72  H    1.000000
    73  H    1.000000
    74  H    1.000000
    75  H    1.000000
    76  H    1.000000
    77  H    1.000000
    78  H    1.000000
    79  H    1.000000
    80  Mg  12.000000
    81  C    6.000000
    82  C    6.000000
    83  C    6.000000
    84  C    6.000000
    85  N    7.000000
    86  C    5.999999
    87  C    6.000000
    88  C    6.000000
    89  C    6.000000
    90  C    6.000000
    91  C    6.000000
    92  C    6.000000
    93  H    1.000000
    94  N    7.000000
    95  C    6.000000
    96  C    6.000001
    97  C    6.000000
    98  C    6.000000
    99  C    6.000000
   100  C    6.000000
   101  O    8.000001
   102  C    6.000000
   103  N    7.000000
   104  C    6.000000
   105  C    6.000000
   106  C    6.000000
   107  C    5.999999
   108  C    6.000000
   109  C    6.000000
   110  C    6.000000
   111  N    7.000000
   112  C    5.999999
   113  C    5.999999
   114  C    6.000000
   115  C    6.000000
   116  C    6.000000
   117  C    6.000000
   118  O    8.000000
   119  C    6.000000
   120  C    6.000000
   121  O    8.000000
   122  O    8.000000
   123  C    6.000000
   124  H    1.000000
   125  H    1.000000
   126  H    1.000000
   127  H    1.000000
   128  H    1.000000
   129  H    1.000000
   130  H    1.000000
   131  H    1.000000
   132  H    1.000000
   133  H    1.000000
   134  H    1.000000
   135  H    1.000000
   136  H    1.000001
   137  H    1.000000
   138  H    1.000001
   139  H    1.000000
   140  H    1.000000
   141  H    1.000000
   142  H    1.000000
   143  H    1.000000
   144  H    1.000000
   145  H    1.000000
   146  H    1.000000
   147  H    1.000000
   148  H    1.000000
   149  H    1.000000
   150  H    1.000000
   151  H    1.000000
   152  H    1.000000
   153  H    1.000000
   154  H    1.000000
   155  H    1.000000
   156  H    1.000000
   157  H    1.000000
   158  H    1.000000
 Sum of Mulliken charges = 624.00000

 Dipole moment (field-independent basis, Debye):
    X=              0.0002    Y=             -0.0000    Z=             -0.0000  Tot=              0.0002
 Quadrupole moment (field-independent basis, Debye-Ang):
   XX=             -0.0021   YY=             -0.0001   ZZ=              0.0000
   XY=              0.0003   XZ=             -0.0002   YZ=              0.0000

 Normal termination of Gaussian 16 at Thu Oct 14 08:40:26 2021.
