 Gaussian 16, Revision A.03,
 Gaussian 16:  ES64L-G16RevA.03 25-Dec-2016

 --------------------------------------------------------
 #p PBE1PBE/Def2SVP td=(nstates=5) density=(transition=1)
 --------------------------------------------------------

 --------------------------------
 TDDFT excited states in gaussian
 --------------------------------
 Symbolic Z-matrix:
 Charge =  0 Multiplicity = 1

                         Standard orientation:
 ---------------------------------------------------------------------
 Center     Atomic      Atomic             Coordinates (Angstroms)
 Number     Number       Type             X           Y           Z
 ---------------------------------------------------------------------
      1         12           0      -16.930742    0.639938    0.319291
      2          6           0      -16.071482   -1.977066   -1.935711
      3          6           0      -14.257674    2.437792   -0.882797
      4          6           0      -17.839973    2.932004    2.518976
      5          6           0      -19.362424   -1.538046    1.823496
      6          7           0      -15.244705    0.244077   -1.234873
      7          6           0      -15.224117   -0.863583   -2.062507
      8          6           0      -14.036411   -0.638674   -3.059922
      9          6           0      -13.400749    0.805506   -2.689422
     10          6           0      -14.338270    1.173419   -1.534873
     11          6           0      -11.888650    0.824057   -2.383323
     12          6           0      -14.334681   -0.867035   -4.599297
     13          6           0      -13.489353   -1.904877   -5.278677
     14          1           0      -12.092921   -2.261290   -4.841929
     15          7           0      -16.196806    2.573560    0.686619
     16          6           0      -15.093962    3.102268    0.093324
     17          6           0      -15.043267    4.479179    0.512963
     18          6           0      -15.985004    4.616906    1.555452
     19          6           0      -16.749913    3.333804    1.681564
     20          6           0      -13.962097    5.416332   -0.051198
     21          6           0      -16.132985    5.776679    2.493112
     22          8           0      -16.929019    5.740357    3.461233
     23          6           0      -15.277898    6.975095    2.308542
     24          7           0      -18.390139    0.608540    1.994800
     25          6           0      -18.604026    1.688609    2.662137
     26          6           0      -19.806033    1.655144    3.748980
     27          6           0      -20.264455    0.206684    3.521020
     28          6           0      -19.340528   -0.274228    2.429021
     29          6           0      -19.231178    1.962767    5.180081
     30          6           0      -21.772783   -0.008642    3.145709
     31          6           0      -22.198388    0.415027    1.719844
     32          7           0      -17.477263   -1.318534    0.103185
     33          6           0      -18.461926   -2.044599    0.813738
     34          6           0      -18.580849   -3.369119    0.189055
     35          6           0      -17.670036   -3.379884   -0.894535
     36          6           0      -17.047073   -2.086814   -0.934558
     37          6           0      -19.562543   -4.493990    0.634642
     38          6           0      -17.226014   -4.174614   -1.913250
     39          8           0      -17.471975   -5.323374   -2.219915
     40          6           0      -16.200581   -3.321696   -2.711183
     41          6           0      -14.966204   -4.065686   -2.810764
     42          8           0      -14.055035   -4.036136   -1.975855
     43          8           0      -15.057364   -4.992613   -3.855916
     44          6           0      -13.919700   -5.942450   -3.930849
     45          1           0      -13.321766    2.990872   -0.989551
     46          1           0      -18.015444    3.631502    3.339056
     47          1           0      -20.089028   -2.238450    2.240437
     48          1           0      -13.442002   -1.509134   -2.785317
     49          1           0      -13.484875    1.457837   -3.557473
     50          1           0      -11.373196    1.534497   -3.030873
     51          1           0      -11.365719   -0.130899   -2.432473
     52          1           0      -11.838011    1.162681   -1.348492
     53          1           0      -14.241552    0.074517   -5.140862
     54          1           0      -15.359179   -1.237088   -4.639618
     55          1           0      -13.189211   -1.475375   -6.235133
     56          1           0      -14.085519   -2.812297   -5.368258
     57          1           0      -13.510290    5.021255   -0.961370
     58          1           0      -13.187131    5.574718    0.697664
     59          1           0      -14.493046    6.343674   -0.263800
     60          1           0      -15.466544    7.344842    1.300654
     61          1           0      -14.218725    6.720244    2.361233
     62          1           0      -15.460995    7.703088    3.097835
     63          1           0      -20.596870    2.358852    3.488058
     64          1           0      -19.950238   -0.410626    4.362936
     65          1           0      -18.198522    1.614825    5.204207
     66          1           0      -19.792578    1.371524    5.904378
     67          1           0      -19.239731    2.997432    5.523827
     68          1           0      -22.409720    0.391194    3.934089
     69          1           0      -21.984855   -1.071896    3.253597
     70          1           0      -21.672722    1.262902    1.281936
     71          1           0      -23.280473    0.550922    1.716947
     72          1           0      -22.029456   -0.468444    1.104376
     73          1           0      -20.137060   -4.913550   -0.191255
     74          1           0      -20.242267   -4.183915    1.427522
     75          1           0      -18.989640   -5.394753    0.856320
     76          1           0      -16.690066   -3.246773   -3.681653
     77          1           0      -13.940695   -6.632671   -3.087876
     78          1           0      -12.937067   -5.474267   -3.885869
     79          1           0      -13.935175   -6.358432   -4.938379
     80         12           0       16.682655    0.433538   -0.701971
     81          6           0       16.874316   -2.812765    0.659408
     82          6           0       13.290164    0.133847   -0.610577
     83          6           0       16.490427    3.795935   -1.284030
     84          6           0       20.202729    0.625388   -0.180159
     85          7           0       15.224633   -1.139828    0.098347
     86          6           0       15.478737   -2.430919    0.462990
     87          6           0       14.205233   -3.174304    0.901682
     88          6           0       13.155719   -2.268206    0.089261
     89          6           0       13.937629   -1.003344   -0.164381
     90          6           0       12.622497   -2.878098   -1.234837
     91          6           0       13.916636   -3.128537    2.469482
     92          6           0       13.058987   -4.219594    3.091686
     93          1           0       11.642332   -3.940809    3.637481
     94          7           0       15.108127    1.872924   -0.971459
     95          6           0       13.803577    1.476155   -1.025705
     96          6           0       12.981885    2.510932   -1.475790
     97          6           0       13.878403    3.618771   -1.718953
     98          6           0       15.235688    3.165958   -1.302194
     99          6           0       11.474332    2.409708   -1.674393
    100          6           0       13.401759    4.946118   -2.263958
    101          8           0       12.182551    5.106286   -2.529646
    102          6           0       14.361990    6.131223   -2.633020
    103          7           0       18.147989    1.910726   -0.718643
    104          6           0       17.813488    3.256761   -1.028664
    105          6           0       19.061353    4.037774   -1.333869
    106          6           0       20.196729    3.213851   -0.688631
    107          6           0       19.536394    1.808374   -0.581668
    108          6           0       19.465375    4.299353   -2.802450
    109          6           0       20.589022    3.755436    0.785437
    110          6           0       21.572009    4.911107    0.896820
    111          7           0       18.239882   -0.919392   -0.086192
    112          6           0       19.601447   -0.702557    0.063287
    113          6           0       20.242134   -1.813281    0.579215
    114          6           0       19.201885   -2.733687    0.793566
    115          6           0       18.000787   -2.124701    0.392598
    116          6           0       21.713758   -1.924533    0.825058
    117          6           0       18.927696   -4.024173    1.151186
    118          8           0       19.680418   -4.945649    1.398347
    119          6           0       17.394155   -4.038568    1.322840
    120          6           0       17.173144   -4.105826    2.804533
    121          8           0       17.590174   -3.302026    3.579172
    122          8           0       16.485045   -5.274064    3.137070
    123          6           0       16.398142   -5.467433    4.542783
    124          1           0       12.220649    0.010728   -0.794732
    125          1           0       16.509569    4.820396   -1.662812
    126          1           0       21.290990    0.713097   -0.181468
    127          1           0       14.129435   -4.167544    0.460418
    128          1           0       12.288444   -2.149231    0.738114
    129          1           0       11.659396   -3.289653   -0.931604
    130          1           0       13.247130   -3.695494   -1.594915
    131          1           0       12.459926   -2.111879   -1.993024
    132          1           0       13.384824   -2.213615    2.730794
    133          1           0       14.887677   -3.041887    2.957483
    134          1           0       13.676268   -4.603974    3.904965
    135          1           0       12.978329   -5.021289    2.357777
    136          1           0       11.001862    2.937178   -2.503714
    137          1           0       11.169673    2.742990   -0.682595
    138          1           0       11.199543    1.381748   -1.910898
    139          1           0       15.034061    5.817549   -3.431329
    140          1           0       14.854759    6.332013   -1.681926
    141          1           0       13.884325    7.083970   -2.861127
    142          1           0       18.974849    4.975739   -0.786342
    143          1           0       21.096472    3.196150   -1.303761
    144          1           0       20.373740    3.794178   -3.130270
    145          1           0       19.245639    5.325564   -3.097646
    146          1           0       18.703469    3.771933   -3.376186
    147          1           0       21.002377    2.842058    1.212724
    148          1           0       19.697308    4.044794    1.341832
    149          1           0       21.135949    5.691501    1.519883
    150          1           0       21.768982    5.311821   -0.097917
    151          1           0       22.492392    4.603535    1.393880
    152          1           0       21.818280   -2.299635    1.842720
    153          1           0       22.217008   -0.956971    0.811263
    154          1           0       22.204842   -2.626055    0.150446
    155          1           0       17.010475   -4.936602    0.839893
    156          1           0       17.234604   -6.079047    4.879850
    157          1           0       15.554805   -6.089760    4.844515
    158          1           0       16.406548   -4.528094    5.093020
 ---------------------------------------------------------------------

 SCF Done:  E(RPBE1PBE) =  -4067.35233203     A.U. after   16 cycles

 Excitation energies and oscillator strengths:

 Excited State   1:      Singlet-A      1.7539 eV  706.93 nm  f=0.0000  <S**2>=0.000
     312 -> 313        0.70710
 This state for optimization and/or second-order correction.
 Total Energy, E(TD-HF/TD-DFT) =  -4067.28787915
 Copying the excited state density for this state as the 1-particle RhoCI density.

 Excited State   2:      Singlet-A      1.8619 eV  665.90 nm  f=0.3403  <S**2>=0.000
     309 -> 315       -0.17979
     311 -> 313        0.68128
     312 -> 314       -0.10059
     311 <- 313       -0.10436

 Excited State   3:      Singlet-A      1.8679 eV  663.76 nm  f=0.4090  <S**2>=0.000
     310 -> 316       -0.18508
     311 -> 313        0.10060
     312 -> 314        0.68039

 Excited State   4:      Singlet-A      2.1541 eV  575.59 nm  f=0.1187  <S**2>=0.000
     309 -> 313        0.65689
     311 -> 315        0.24317

 Excited State   5:      Singlet-A      2.2069 eV  561.80 nm  f=0.1033  <S**2>=0.000
     310 -> 314        0.65387
     312 -> 316        0.25873

 The electronic state is 1-A.
 Alpha  occ. eigenvalues --  -46.93705 -46.93196 -19.26018 -19.25005 -19.21087
 Alpha  occ. eigenvalues --  -19.19597 -19.18687 -19.18366 -19.18177 -19.18130
 Alpha  occ. eigenvalues --  -14.42513 -14.42349 -14.42055 -14.41426 -14.39527
 Alpha  occ. eigenvalues --  -14.39455 -14.39291 -14.38846 -10.36686 -10.35680
 Alpha  occ. eigenvalues --  -10.32246 -10.31877 -10.30682 -10.30468 -10.30122
 Alpha  occ. eigenvalues --  -10.30109 -10.29464 -10.29427 -10.29164 -10.29013
 Alpha  occ. eigenvalues --  -10.28798 -10.28549 -10.28368 -10.28222 -10.28202
 Alpha  occ. eigenvalues --  -10.28163 -10.28083 -10.28066 -10.27932 -10.27699
 Alpha  occ. eigenvalues --  -10.27057 -10.26751 -10.26611 -10.26588 -10.26568
 Alpha  occ. eigenvalues --  -10.26228 -10.26163 -10.26120 -10.25990 -10.25978
 Alpha  occ. eigenvalues --  -10.25970 -10.25847 -10.25844 -10.25708 -10.25675
 Alpha  occ. eigenvalues --  -10.25619 -10.25509 -10.25503 -10.25472 -10.25471
 Alpha  occ. eigenvalues --  -10.25304 -10.25298 -10.25263 -10.25227 -10.25123
 Alpha  occ. eigenvalues --  -10.25021 -10.25007 -10.24933 -10.24931 -10.24880
 Alpha  occ. eigenvalues --  -10.24554 -10.24216 -10.24184 -10.24065 -10.24004
 Alpha  occ. eigenvalues --  -10.23754 -10.23682 -10.23672 -10.23562 -10.23405
 Alpha  occ. eigenvalues --  -10.23376 -10.23334 -10.23300 -10.23115 -10.22010
 Alpha  occ. eigenvalues --  -10.21885  -3.15585  -3.15119  -1.88423  -1.87973
 Alpha  occ. eigenvalues --   -1.87951  -1.87802  -1.87528  -1.87298  -1.12364
 Alpha  occ. eigenvalues --   -1.09164  -1.04830  -1.04314  -1.04299  -1.02859
 Alpha  occ. eigenvalues --   -1.02075  -1.01201  -1.00737  -1.00343  -0.99355
 Alpha  occ. eigenvalues --   -0.98610  -0.98183  -0.97591  -0.96596  -0.96535
 Alpha  occ. eigenvalues --   -0.88728  -0.86867  -0.84061  -0.83232  -0.83037
 Alpha  occ. eigenvalues --   -0.82995  -0.82378  -0.82041  -0.81939  -0.81432
 Alpha  occ. eigenvalues --   -0.81395  -0.81107  -0.80230  -0.79931  -0.78661
 Alpha  occ. eigenvalues --   -0.78554  -0.77928  -0.77695  -0.77177  -0.76840
 Alpha  occ. eigenvalues --   -0.76210  -0.76164  -0.75033  -0.75021  -0.74598
 Alpha  occ. eigenvalues --   -0.74393  -0.72435  -0.72405  -0.71884  -0.71711
 Alpha  occ. eigenvalues --   -0.71228  -0.70782  -0.70284  -0.70101  -0.70057
 Alpha  occ. eigenvalues --   -0.69317  -0.68079  -0.67073  -0.66703  -0.65990
 Alpha  occ. eigenvalues --   -0.64787  -0.63925  -0.63539  -0.62924  -0.62799
 Alpha  occ. eigenvalues --   -0.62264  -0.61654  -0.61220  -0.60689  -0.59805
 Alpha  occ. eigenvalues --   -0.59792  -0.59428  -0.59295  -0.59118  -0.58782
 Alpha  occ. eigenvalues --   -0.58779  -0.57360  -0.56094  -0.55032  -0.54733
 Alpha  occ. eigenvalues --   -0.54594  -0.54149  -0.54120  -0.53787  -0.53561
 Alpha  occ. eigenvalues --   -0.53263  -0.52723  -0.52710  -0.52455  -0.52126
 Alpha  occ. eigenvalues --   -0.51137  -0.50831  -0.50560  -0.50194  -0.49867
 Alpha  occ. eigenvalues --   -0.49863  -0.49672  -0.49435  -0.48454  -0.48167
 Alpha  occ. eigenvalues --   -0.48167  -0.47819  -0.47646  -0.47557  -0.47345
 Alpha  occ. eigenvalues --   -0.47308  -0.47232  -0.47200  -0.46697  -0.46595
 Alpha  occ. eigenvalues --   -0.46433  -0.46110  -0.46059  -0.45822  -0.45793
 Alpha  occ. eigenvalues --   -0.45507  -0.45484  -0.45165  -0.44825  -0.44726
 Alpha  occ. eigenvalues --   -0.44486  -0.44461  -0.44348  -0.44107  -0.43994
 Alpha  occ. eigenvalues --   -0.43839  -0.43762  -0.43648  -0.43556  -0.43523
 Alpha  occ. eigenvalues --   -0.43346  -0.43209  -0.43108  -0.42657  -0.42654
 Alpha  occ. eigenvalues --   -0.42491  -0.42185  -0.42030  -0.42013  -0.41897
 Alpha  occ. eigenvalues --   -0.41707  -0.41433  -0.41325  -0.41289  -0.41228
 Alpha  occ. eigenvalues --   -0.41139  -0.41095  -0.40892  -0.40800  -0.40604
 Alpha  occ. eigenvalues --   -0.40554  -0.40281  -0.40068  -0.39853  -0.39795
 Alpha  occ. eigenvalues --   -0.39507  -0.39475  -0.39417  -0.39115  -0.38667
 Alpha  occ. eigenvalues --   -0.38655  -0.38634  -0.38474  -0.38170  -0.38059
 Alpha  occ. eigenvalues --   -0.38016  -0.37988  -0.37789  -0.37644  -0.37422
 Alpha  occ. eigenvalues --   -0.37389  -0.37298  -0.37203  -0.37095  -0.36758
 Alpha  occ. eigenvalues --   -0.36685  -0.36509  -0.36408  -0.36211  -0.36193
 Alpha  occ. eigenvalues --   -0.36064  -0.36020  -0.35959  -0.35847  -0.35500
 Alpha  occ. eigenvalues --   -0.35393  -0.35226  -0.35026  -0.34662  -0.34364
 Alpha  occ. eigenvalues --   -0.34059  -0.33495  -0.32833  -0.32640  -0.32085
 Alpha  occ. eigenvalues --   -0.31933  -0.31914  -0.31704  -0.31611  -0.31495
 Alpha  occ. eigenvalues --   -0.31075  -0.30569  -0.30393  -0.30261  -0.29132
 Alpha  occ. eigenvalues --   -0.29022  -0.28670  -0.28458  -0.27092  -0.26856
 Alpha  occ. eigenvalues --   -0.25752  -0.25706  -0.25618  -0.25503  -0.25347
 Alpha  occ. eigenvalues --   -0.25245  -0.25184  -0.24637  -0.21317  -0.20710
 Alpha  occ. eigenvalues --   -0.19638  -0.18838
 Alpha virt. eigenvalues --   -0.11999  -0.11059  -0.05991  -0.05265  -0.04283
 Alpha virt. eigenvalues --   -0.04034  -0.02070  -0.01870  -0.01405  -0.00169
 Alpha virt. eigenvalues --    0.00100   0.00365   0.00747   0.01247   0.01479

 Mulliken charges:
               1
     1  Mg  12.000000
     2  C    6.000000
     3  C    6.000000
     4  C    6.000000
     5  C    6.000000
     6  N    7.000000
     7  C    6.000000
     8  C    6.000000
     9  C    6.000000
    10  C    6.000000
    11  C    6.000000
    12  C    6.000000
    13  C    6.000000
    14  H    1.000000
    15  N    7.000000
    16  C    6.000000
    17  C    6.000000
    18  C    6.000000
    19  C    6.000000
    20  C    6.000000
    21  C    6.000000
    22  O    8.000000
    23  C    6.000000
    24  N    7.000000
    25  C    6.000000
    26  C    6.000000
    27  C    6.000000
    28  C    6.000000
    29  C    6.000000
    30  C    6.000000
    31  C    6.000000
    32  N    7.000000
    33  C    6.000000
    34  C    6.000000
    35  C    6.000000
    36  C    6.000000
    37  C    6.000000
    38  C    6.000000
    39  O    8.000000
    40  C    6.000000
    41  C    6.000000
    42  O    8.000000
    43  O    8.000000
    44  C    6.000000
    45  H    1.000000
    46  H    1.000000
    47  H    1.000000
    48  H    1.000000
    49  H    1.000000
    50  H    1.000000
    51  H    1.000000
    52  H    1.000000
    53  H    1.000000
    54  H    1.000000
    55  H    1.000000
    56  H    1.000000
    57  H    1.000000
    58  H    1.000000
    59  H    1.000000
    60  H    1.000000
    61  H    1.000000
    62  H    1.000000
    63  H    1.000000
    64  H    1.000000
    65  H    1.000000
    66  H    1.000000
    67  H    1.000000
    68  H    1.000000
    69  H    1.000000
    70  H    1.000000
    71  H    1.000000
    72  H    1.000000
    73  H    1.000000
    74  H    1.000000
    75  H    1.000000
    76  H    1.000000
    77  H    1.000000
    78  H    1.000000
    79  H    1.000000
    80  Mg  12.000000
    81  C    6.000000
    82  C    6.000000
    83  C    6.000000
    84  C    6.000000
    85  N    7.000000
    86  C    6.000000
    87  C    6.000000
    88  C    6.000000
    89  C    6.000000
    90  C    6.000000
    91  C    6.000000
    92  C    6.000000
    93  H    1.000000
    94  N    7.000000
    95  C    6.000000
    96  C    6.000000
    97  C    6.000000
    98  C    6.000000
    99  C    6.000000
   100  C    6.000000
   101  O    8.000000
   102  C    6.000000
   103  N    7.000000
   104  C    6.000000
   105  C    6.000000
   106  C    6.000000
   107  C    6.000000
   108  C    6.000000
   109  C    6.000000
   110  C    6.000000
   111  N    7.000000
   112  C    6.000000
   113  C    6.000000
   114  C    6.000000
   115  C    6.000000
   116  C    6.000000
   117  C    6.000000
   118  O    8.000000
   119  C    6.000000
   120  C    6.000000
   121  O    8.000000
   122  O    8.000000
   123  C    6.000000
   124  H    1.000000
   125  H    1.000000
   126  H    1.000000
   127  H    1.000000
   128  H    1.000000
   129  H    1.000000
   130  H    1.000000
   131  H    1.000000
   132  H    1.000000
   133  H    1.000000
   134  H    1.000000
   135  H    1.000000
   136  H    1.000000
   137  H    1.000000
   138  H    1.000000
   139  H    1.000000
   140  H    1.000000
   141  H    1.000000
   142  H    1.000000
   143  H    1.000000
   144  H    1.000000
   145  H    1.000000
   146  H    1.000000
   147  H    1.000000
   148  H    1.000000
   149  H    1.000000
   150  H    1.000000
   151  H    1.000000
   152  H    1.000000
   153  H    1.000000
   154  H    1.000000
   155  H    1.000000
   156  H    1.000000
   157  H    1.000000
   158  H    1.000000
 Sum of Mulliken charges = 624.00000

 Dipole moment (field-independent basis, Debye):
    X=              0.0000    Y=             -0.0000    Z=              0.0000  Tot=              0.0000
 Quadrupole moment (field-independent basis, Debye-Ang):
   XX=              0.0000   YY=             -0.0000   ZZ=             -0.0000
   XY=             -0.0000   XZ=              0.0000   YZ=              0.0000

 Normal termination of Gaussian 16 at Thu Oct 14 11:24:16 2021.
