 Gaussian 16, Revision A.03,
 Gaussian 16:  ES64L-G16RevA.03 25-Dec-2016

 ---------------------------------------------------------
 #p PBE1PBE/Def2SVP td=(nstates=5, root=1) density=current
 ---------------------------------------------------------

 --------------------------------
 TDDFT excited states in gaussian
 --------------------------------
 Symbolic Z-matrix:
 Charge =  0 Multiplicity = 1

                         Standard orientation:
 ---------------------------------------------------------------------
 Center     Atomic      Atomic             Coordinates (Angstroms)
 Number     Number       Type             X           Y           Z
 ---------------------------------------------------------------------
      1         12           0       -0.721465    0.083827    0.271087
      2          6           0        2.776786    0.265344    0.189044
      3          6           0       -0.444416   -3.420093   -0.155274
      4          6           0       -4.101628   -0.087705   -0.001969
      5          6           0       -0.839268    3.518800   -0.057708
      6          7           0        0.965991   -1.351960    0.217015
      7          6           0        2.311061   -1.010956    0.385829
      8          6           0        3.126041   -2.301278    0.759386
      9          6           0        2.097614   -3.417995    0.545808
     10          6           0        0.774056   -2.689968    0.123170
     11          6           0        2.588404   -4.403900   -0.548428
     12          6           0        3.666673   -2.142131    2.175150
     13          6           0        4.949496   -2.872852    2.536539
     14          1           0        5.460237   -3.971892    1.577557
     15          7           0       -2.122708   -1.498682   -0.021537
     16          6           0       -1.803942   -2.857762   -0.204180
     17          6           0       -3.008227   -3.640320   -0.420282
     18          6           0       -4.136315   -2.734302   -0.319397
     19          6           0       -3.471896   -1.374552   -0.125376
     20          6           0       -3.038745   -5.170751   -0.520739
     21          6           0       -5.628890   -2.995230   -0.385549
     22          8           0       -6.423369   -2.073438   -0.255915
     23          6           0       -6.104151   -4.397304   -0.394217
     24          7           0       -2.248696    1.558569    0.073989
     25          6           0       -3.570113    1.228018    0.074507
     26          6           0       -4.431391    2.515057    0.162590
     27          6           0       -3.385897    3.695949    0.211477
     28          6           0       -2.048256    2.912091    0.184385
     29          6           0       -5.403095    2.591750   -1.028639
     30          6           0       -3.453816    4.576945    1.487152
     31          6           0       -4.180613    5.877666    1.159732
     32          7           0        0.627990    1.657240   -0.013494
     33          6           0        0.475543    2.990035   -0.204284
     34          6           0        1.806222    3.541272   -0.558114
     35          6           0        2.732270    2.568550   -0.318944
     36          6           0        1.948417    1.421889   -0.031989
     37          6           0        1.991754    5.010571   -0.897926
     38          6           0        4.158823    2.224650   -0.250950
     39          8           0        5.135894    2.924898   -0.487227
     40          6           0        4.200642    0.765958    0.161652
     41          6           0        5.093628    0.109321   -0.806092
     42          8           0        4.883634   -0.252063   -1.971871
     43          8           0        6.335257    0.000402   -0.214022
     44          6           0        7.395029   -0.560724   -1.023435
     45          1           0       -0.318353   -4.503463   -0.204493
     46          1           0       -5.182730   -0.241308    0.010189
     47          1           0       -0.964422    4.586777   -0.248407
     48          1           0        3.895199   -2.276202   -0.013487
     49          1           0        2.114012   -4.014231    1.458079
     50          1           0        2.019245   -4.379338   -1.477860
     51          1           0        2.308798   -5.398808   -0.203063
     52          1           0        3.634064   -4.242470   -0.809692
     53          1           0        2.824880   -2.413592    2.812895
     54          1           0        3.791959   -1.080618    2.385403
     55          1           0        4.844615   -3.281516    3.540665
     56          1           0        5.653556   -2.042073    2.595215
     57          1           0       -2.051693   -5.630326   -0.575346
     58          1           0       -3.588488   -5.472511   -1.413268
     59          1           0       -3.636800   -5.559816    0.302466
     60          1           0       -5.836663   -4.859619    0.556276
     61          1           0       -5.816089   -4.903724   -1.315414
     62          1           0       -7.192626   -4.455720   -0.391611
     63          1           0       -5.046791    2.436222    1.058494
     64          1           0       -3.515579    4.226824   -0.732539
     65          1           0       -5.336704    3.479881   -1.656395
     66          1           0       -6.342610    2.640868   -0.478601
     67          1           0       -5.294705    1.787389   -1.755666
     68          1           0       -2.465886    4.971386    1.725538
     69          1           0       -3.935389    4.087974    2.334180
     70          1           0       -4.892393    5.985581    1.978017
     71          1           0       -4.833350    5.819278    0.289078
     72          1           0       -3.547390    6.761917    1.082217
     73          1           0        1.072441    5.564781   -1.088946
     74          1           0        2.647412    5.163243   -1.754316
     75          1           0        2.351383    5.522145   -0.004448
     76          1           0        4.592346    0.721452    1.177346
     77          1           0        7.408051   -0.018817   -1.969439
     78          1           0        7.266969   -1.622788   -1.233680
     79          1           0        8.310925   -0.163636   -0.587081
 ---------------------------------------------------------------------

 SCF Done:  E(RPBE1PBE) =  -2033.68414779     A.U. after   16 cycles

 Excitation energies and oscillator strengths:

 Excited State   1:      Singlet-A      1.8263 eV  678.86 nm  f=0.3816  <S**2>=0.000
     155 ->158        -0.16170
     156 ->157         0.69459
     156 <-157        -0.11150
 This state for optimization and/or second-order correction.
 Total Energy, E(TD-HF/TD-DFT) =  -2033.61703075
 Copying the excited state density for this state as the 1-particle RhoCI density.

 Excited State   2:      Singlet-A      2.2008 eV  563.37 nm  f=0.1155  <S**2>=0.000
     155 ->157         0.65556
     156 ->158         0.24492

 Excited State   3:      Singlet-A      3.1419 eV  394.62 nm  f=0.0010  <S**2>=0.000
     152 ->157         0.10071
     154 ->157         0.68670

 Excited State   4:      Singlet-A      3.1615 eV  392.17 nm  f=0.0003  <S**2>=0.000
     152 ->157         0.65190
     152 ->158        -0.12210
     152 ->159        -0.11085
     152 ->160        -0.12895
     153 ->157         0.12109
     154 ->157        -0.10174

 Excited State   5:      Singlet-A      3.2471 eV  381.84 nm  f=0.0089  <S**2>=0.000
     151 ->157         0.45095
     151 ->159         0.16275
     152 ->157        -0.10751
     153 ->157         0.45068
     156 ->158        -0.18786

 The electronic state is 1-A.
 Alpha  occ. eigenvalues --  -46.92523 -19.25166 -19.20079 -19.19648 -19.19232
 Alpha  occ. eigenvalues --  -14.41722 -14.41267 -14.39696 -14.38940 -10.36424
 Alpha  occ. eigenvalues --  -10.32671 -10.32407 -10.29585 -10.28839 -10.28650
 Alpha  occ. eigenvalues --  -10.28555 -10.28530 -10.28227 -10.28014 -10.27361
 Alpha  occ. eigenvalues --  -10.26975 -10.26557 -10.26509 -10.26091 -10.25809
 Alpha  occ. eigenvalues --  -10.25698 -10.25588 -10.25547 -10.25520 -10.25511
 Alpha  occ. eigenvalues --  -10.25373 -10.25231 -10.24880 -10.24399 -10.24227
 Alpha  occ. eigenvalues --  -10.23982 -10.23867 -10.23625 -10.23074 -10.22979
 Alpha  occ. eigenvalues --  -10.22745 -10.22687 -10.22482  -3.14503  -1.87357
 Alpha  occ. eigenvalues --   -1.86836  -1.86757  -1.10604  -1.05006  -1.04866
 Alpha  occ. eigenvalues --   -1.01724  -0.99166  -0.97404  -0.97215  -0.96184
 Alpha  occ. eigenvalues --   -0.87832  -0.83530  -0.83085  -0.82215  -0.81464
 Alpha  occ. eigenvalues --   -0.81070  -0.79962  -0.78600  -0.78149  -0.77039
 Alpha  occ. eigenvalues --   -0.76441  -0.75267  -0.74389  -0.72265  -0.71625
 Alpha  occ. eigenvalues --   -0.71134  -0.70301  -0.68910  -0.67026  -0.65461
 Alpha  occ. eigenvalues --   -0.63485  -0.62890  -0.62356  -0.61437  -0.59809
 Alpha  occ. eigenvalues --   -0.59324  -0.59181  -0.58475  -0.56759  -0.54577
 Alpha  occ. eigenvalues --   -0.54250  -0.53594  -0.53340  -0.53011  -0.52267
 Alpha  occ. eigenvalues --   -0.50537  -0.50317  -0.49656  -0.49322  -0.48183
 Alpha  occ. eigenvalues --   -0.48032  -0.47881  -0.47740  -0.47529  -0.47460
 Alpha  occ. eigenvalues --   -0.46537  -0.46376  -0.46025  -0.45421  -0.44833
 Alpha  occ. eigenvalues --   -0.44341  -0.44158  -0.44023  -0.43785  -0.43665
 Alpha  occ. eigenvalues --   -0.43272  -0.42878  -0.42505  -0.42083  -0.41712
 Alpha  occ. eigenvalues --   -0.41478  -0.41079  -0.40825  -0.40588  -0.39993
 Alpha  occ. eigenvalues --   -0.39701  -0.39487  -0.39242  -0.39169  -0.39044
 Alpha  occ. eigenvalues --   -0.38421  -0.38183  -0.37961  -0.37826  -0.37681
 Alpha  occ. eigenvalues --   -0.37349  -0.37276  -0.36755  -0.36390  -0.36163
 Alpha  occ. eigenvalues --   -0.35855  -0.35256  -0.34829  -0.33889  -0.33472
 Alpha  occ. eigenvalues --   -0.32994  -0.32953  -0.32769  -0.31574  -0.31269
 Alpha  occ. eigenvalues --   -0.30912  -0.29389  -0.29096  -0.28255  -0.26928
 Alpha  occ. eigenvalues --   -0.26445  -0.26153  -0.25940  -0.25545  -0.20732
 Alpha  occ. eigenvalues --   -0.18578
 Alpha virt. eigenvalues --   -0.11119  -0.05054  -0.04040  -0.02441  -0.00434
 Alpha virt. eigenvalues --    0.00563   0.01080   0.01483   0.03107   0.04158
 Alpha virt. eigenvalues --    0.04608   0.05746   0.05840   0.06132   0.06899

 Mulliken charges:
               1
     1  Mg   0.954306
     2  C   -0.021691
     3  C   -0.054243
     4  C   -0.054293
     5  C   -0.072053
     6  N   -0.413258
     7  C   -0.034106
     8  C   -0.048322
     9  C   -0.155477
    10  C    0.135029
    11  C   -0.005338
    12  C   -0.012282
    13  C   -0.103989
    14  H    0.053351
    15  N   -0.475118
    16  C    0.161734
    17  C   -0.183515
    18  C   -0.087850
    19  C    0.108651
    20  C    0.065410
    21  C    0.052856
    22  O   -0.244536
    23  C   -0.023232
    24  N   -0.415451
    25  C    0.112817
    26  C   -0.131122
    27  C   -0.097680
    28  C    0.084045
    29  C    0.000909
    30  C   -0.002809
    31  C   -0.080227
    32  N   -0.445587
    33  C    0.134672
    34  C   -0.209852
    35  C   -0.018130
    36  C    0.164318
    37  C    0.059984
    38  C    0.131997
    39  O   -0.210778
    40  C   -0.068682
    41  C    0.282283
    42  O   -0.268159
    43  O   -0.370099
    44  C    0.136811
    45  H    0.004468
    46  H    0.026996
    47  H    0.002249
    48  H    0.058127
    49  H    0.054130
    50  H    0.041187
    51  H    0.036071
    52  H    0.055992
    53  H    0.028790
    54  H    0.039965
    55  H    0.056489
    56  H    0.062976
    57  H    0.045007
    58  H    0.046090
    59  H    0.054763
    60  H    0.071236
    61  H    0.061092
    62  H    0.042909
    63  H    0.055300
    64  H    0.057094
    65  H    0.034383
    66  H    0.048857
    67  H    0.063503
    68  H    0.046383
    69  H    0.048943
    70  H    0.032124
    71  H    0.035589
    72  H    0.053030
    73  H    0.024596
    74  H    0.066192
    75  H    0.056880
    76  H    0.089300
    77  H    0.049918
    78  H    0.061845
    79  H    0.056226
 Sum of Mulliken charges =  -0.00000

 Dipole moment (field-independent basis, Debye):
    X=             -1.3119    Y=             -2.3389    Z=              3.3426  Tot=              4.2854
 Quadrupole moment (field-independent basis, Debye-Ang):
   XX=           -271.4143   YY=           -224.0513   ZZ=           -256.5520
   XY=            -21.6128   XZ=              6.7669   YZ=              1.0886

 Normal termination of Gaussian 16 at Wed Oct 13 14:57:13 2021.
