 Gaussian 16, Revision A.03,
 Gaussian 16:  ES64L-G16RevA.03 25-Dec-2016

 --------------------------------------------------------
 #p PBE1PBE/Def2SVP td=(nstates=5) density=(transition=1)
 --------------------------------------------------------

 --------------------------------
 TDDFT excited states in gaussian
 --------------------------------
 Symbolic Z-matrix:
 Charge =  0 Multiplicity = 1

                         Standard orientation:
 ---------------------------------------------------------------------
 Center     Atomic      Atomic             Coordinates (Angstroms)
 Number     Number       Type             X           Y           Z
 ---------------------------------------------------------------------
      1         12           0       11.048484    0.721937   -0.076597
      2          6           0       10.878966   -2.751049    0.324538
      3          6           0        8.091191    0.842436    1.712418
      4          6           0       11.298325    4.050452   -0.100516
      5          6           0       14.381072    0.420556   -1.088236
      6          7           0        9.708784   -0.911794    1.116737
      7          6           0        9.803750   -2.250471    1.003604
      8          6           0        8.721244   -2.997667    1.744891
      9          6           0        7.730527   -1.780531    1.891835
     10          6           0        8.523888   -0.507179    1.617079
     11          6           0        6.597346   -1.889721    0.836954
     12          6           0        9.278118   -3.696305    2.991796
     13          6           0       10.332202   -2.983779    3.864548
     14          1           0       10.059903   -2.974289    5.364096
     15          7           0        9.877006    2.221357    0.674490
     16          6           0        8.653355    2.048280    1.265117
     17          6           0        7.913398    3.315566    1.205335
     18          6           0        8.873137    4.336096    0.822870
     19          6           0       10.069996    3.530817    0.431100
     20          6           0        6.482155    3.499384    1.840518
     21          6           0        8.657113    5.851451    0.833008
     22          8           0        7.570983    6.312057    1.049618
     23          6           0        9.799693    6.775217    0.523749
     24          7           0       12.757590    2.038300   -0.344358
     25          6           0       12.598719    3.434413   -0.421633
     26          6           0       13.931359    4.187065   -0.842200
     27          6           0       14.883106    2.952029   -1.212952
     28          6           0       13.937985    1.702435   -0.902804
     29          6           0       13.895759    5.336944   -1.968398
     30          6           0       16.302925    2.872592   -0.487151
     31          6           0       17.403944    2.230225   -1.467522
     32          7           0       12.410895   -0.828545   -0.404154
     33          6           0       13.697819   -0.795693   -0.901489
     34          6           0       14.169447   -2.161145   -1.097404
     35          6           0       13.106474   -3.015180   -0.705402
     36          6           0       12.070523   -2.143945   -0.209521
     37          6           0       15.452274   -2.580336   -1.766370
     38          6           0       12.615283   -4.411236   -0.465443
     39          8           0       13.193405   -5.470928   -0.559943
     40          6           0       11.159999   -4.238953    0.145596
     41          6           0       10.210280   -4.898332   -0.816337
     42          8           0       10.053033   -6.141638   -0.907253
     43          8           0        9.451173   -3.930345   -1.457837
     44          6           0        8.355321   -4.419681   -2.225738
     45          1           0        7.112689    0.878083    2.196038
     46          1           0       11.422733    5.107984   -0.343533
     47          1           0       15.346729    0.340260   -1.591991
     48          1           0        8.207376   -3.709529    1.099183
     49          1           0        7.235644   -1.638578    2.851629
     50          1           0        6.344569   -0.864357    0.565988
     51          1           0        5.776138   -2.494794    1.218544
     52          1           0        6.828732   -2.284081   -0.153010
     53          1           0        9.805216   -4.575430    2.622391
     54          1           0        8.435499   -3.999629    3.613274
     55          1           0       10.379569   -1.934810    3.573152
     56          1           0       11.281648   -3.503237    3.738104
     57          1           0        6.467524    3.597715    2.926316
     58          1           0        5.845455    2.663473    1.550554
     59          1           0        5.891204    4.330179    1.456676
     60          1           0        9.545263    7.817889    0.716795
     61          1           0       10.147772    6.697615   -0.506454
     62          1           0       10.517175    6.505664    1.299227
     63          1           0       14.201322    4.617560    0.121378
     64          1           0       15.077557    2.917069   -2.284509
     65          1           0       13.721253    6.281489   -1.454465
     66          1           0       13.117313    5.149018   -2.707345
     67          1           0       14.850869    5.332786   -2.494010
     68          1           0       16.280819    2.162678    0.339593
     69          1           0       16.601969    3.847266   -0.100763
     70          1           0       17.805868    1.306323   -1.051433
     71          1           0       18.224507    2.934679   -1.600434
     72          1           0       17.094216    1.872582   -2.448885
     73          1           0       16.284918   -2.148355   -1.212246
     74          1           0       15.475663   -2.194610   -2.785795
     75          1           0       15.592387   -3.661114   -1.755392
     76          1           0       11.173634   -4.873648    1.031362
     77          1           0        7.776249   -3.576429   -2.601474
     78          1           0        7.783820   -5.163121   -1.669784
     79          1           0        8.682572   -4.884526   -3.155713
     80         12           0      -11.458662    0.520843   -0.489098
     81          6           0       -9.305180   -2.210595    0.054233
     82          6           0      -14.076890   -1.632909    0.285525
     83          6           0      -13.553436    3.109520   -0.536344
     84          6           0       -8.686300    2.600218   -0.305783
     85          7           0      -11.584473   -1.655360    0.264335
     86          6           0      -10.615692   -2.639292    0.299433
     87          6           0      -11.135152   -4.060433    0.359056
     88          6           0      -12.670424   -3.874361    0.409540
     89          6           0      -12.827918   -2.320261    0.334062
     90          6           0      -13.457239   -4.626632   -0.739185
     91          6           0      -10.630022   -4.952191    1.579611
     92          6           0      -10.324667   -4.245907    2.910598
     93          1           0      -11.351401   -4.385009    4.073372
     94          7           0      -13.484192    0.699579   -0.184175
     95          6           0      -14.389590   -0.293372    0.060840
     96          6           0      -15.751249    0.259672    0.062978
     97          6           0      -15.619583    1.660881   -0.181947
     98          6           0      -14.144677    1.874150   -0.303313
     99          6           0      -17.004205   -0.582641    0.271259
    100          6           0      -16.904088    2.570050   -0.142163
    101          8           0      -17.971655    2.041189    0.134709
    102          6           0      -16.782342    4.136191   -0.364479
    103          7           0      -11.159223    2.522429   -0.303701
    104          6           0      -12.184792    3.440988   -0.515596
    105          6           0      -11.591349    4.959111   -0.590149
    106          6           0      -10.012907    4.668047   -0.345141
    107          6           0       -9.963767    3.174143   -0.325886
    108          6           0      -11.904680    5.660199   -1.944717
    109          6           0       -9.406309    5.291066    0.984568
    110          6           0       -8.131157    6.143462    0.892841
    111          7           0       -9.367638    0.286915   -0.310210
    112          6           0       -8.343894    1.196317   -0.235451
    113          6           0       -7.074918    0.460391   -0.053612
    114          6           0       -7.437721   -0.913213   -0.056805
    115          6           0       -8.856135   -0.932255   -0.168074
    116          6           0       -5.695745    1.033639    0.119876
    117          6           0       -6.873418   -2.264943    0.117047
    118          8           0       -5.710871   -2.690658    0.181185
    119          6           0       -8.089956   -3.169827   -0.009527
    120          6           0       -8.035545   -4.015850   -1.153856
    121          8           0       -8.317454   -3.597633   -2.306647
    122          8           0       -7.673334   -5.332448   -0.806405
    123          6           0       -7.730331   -6.360584   -1.840552
    124          1           0      -14.945863   -2.290635    0.349467
    125          1           0      -14.215864    3.958640   -0.714668
    126          1           0       -7.863617    3.317584   -0.317791
    127          1           0      -10.778651   -4.480399   -0.580732
    128          1           0      -12.959613   -4.121862    1.430278
    129          1           0      -14.031505   -5.446610   -0.308049
    130          1           0      -12.697584   -4.996841   -1.428163
    131          1           0      -14.155987   -3.960134   -1.245878
    132          1           0       -9.684527   -5.327628    1.186170
    133          1           0      -11.315053   -5.789266    1.716229
    134          1           0      -10.164480   -3.179097    2.751030
    135          1           0       -9.354119   -4.593784    3.261847
    136          1           0      -17.449550   -0.501803    1.262865
    137          1           0      -16.860416   -1.597532   -0.099657
    138          1           0      -17.789552   -0.283712   -0.422762
    139          1           0      -16.163569    4.280645   -1.250442
    140          1           0      -16.314480    4.554827    0.526162
    141          1           0      -17.735589    4.663873   -0.333319
    142          1           0      -12.147197    5.531380    0.151980
    143          1           0       -9.486450    5.013665   -1.235088
    144          1           0      -11.043350    5.510471   -2.595376
    145          1           0      -12.189872    6.705398   -1.824467
    146          1           0      -12.789356    5.275061   -2.451517
    147          1           0       -9.271854    4.462784    1.680989
    148          1           0      -10.223082    5.936023    1.308602
    149          1           0       -7.620804    6.221920    1.853174
    150          1           0       -8.523258    7.109364    0.575218
    151          1           0       -7.520702    5.628079    0.151041
    152          1           0       -5.873063    2.020554    0.546408
    153          1           0       -5.366464    1.156931   -0.911841
    154          1           0       -4.985614    0.390849    0.640934
    155          1           0       -8.026881   -3.741710    0.915992
    156          1           0       -7.042768   -6.265271   -2.680994
    157          1           0       -8.740489   -6.424202   -2.246134
    158          1           0       -7.656980   -7.317809   -1.324114
 ---------------------------------------------------------------------

 SCF Done:  E(RPBE1PBE) =  -4067.36221460     A.U. after   16 cycles

 Excitation energies and oscillator strengths:

 Excited State   1:      Singlet-A      1.8638 eV  665.24 nm  f=0.0000  <S**2>=0.000
     312 -> 313        0.70709
 This state for optimization and/or second-order correction.
 Total Energy, E(TD-HF/TD-DFT) =  -4067.29372262
 Copying the excited state density for this state as the 1-particle RhoCI density.

 Excited State   2:      Singlet-A      1.8691 eV  663.34 nm  f=0.4368  <S**2>=0.000
     309 -> 316        0.17390
     312 -> 314        0.68805
     312 <- 314       -0.10325

 Excited State   3:      Singlet-A      1.8970 eV  653.59 nm  f=0.2906  <S**2>=0.000
     310 -> 315        0.18654
     311 -> 313        0.68321

 Excited State   4:      Singlet-A      2.0581 eV  602.42 nm  f=0.0000  <S**2>=0.000
     311 -> 314        0.70707

 Excited State   5:      Singlet-A      2.2338 eV  555.04 nm  f=0.1026  <S**2>=0.000
     310 -> 313        0.64928
     311 -> 315       -0.26830

 The electronic state is 1-A.
 Alpha  occ. eigenvalues --  -46.93701 -46.92388 -19.26581 -19.26462 -19.20482
 Alpha  occ. eigenvalues --  -19.20174 -19.19825 -19.19793 -19.19522 -19.19040
 Alpha  occ. eigenvalues --  -14.42096 -14.41777 -14.41759 -14.41102 -14.39972
 Alpha  occ. eigenvalues --  -14.39565 -14.39136 -14.39057 -10.37021 -10.36916
 Alpha  occ. eigenvalues --  -10.33673 -10.32990 -10.32589 -10.32253 -10.30405
 Alpha  occ. eigenvalues --  -10.29594 -10.29360 -10.29218 -10.29117 -10.29056
 Alpha  occ. eigenvalues --  -10.28637 -10.28492 -10.28476 -10.28476 -10.28363
 Alpha  occ. eigenvalues --  -10.28269 -10.28004 -10.27962 -10.27639 -10.27485
 Alpha  occ. eigenvalues --  -10.27419 -10.27182 -10.27101 -10.26965 -10.26800
 Alpha  occ. eigenvalues --  -10.26528 -10.26278 -10.26243 -10.26155 -10.26138
 Alpha  occ. eigenvalues --  -10.26128 -10.26122 -10.26019 -10.25968 -10.25949
 Alpha  occ. eigenvalues --  -10.25930 -10.25917 -10.25607 -10.25519 -10.25497
 Alpha  occ. eigenvalues --  -10.25440 -10.25423 -10.25378 -10.25209 -10.25186
 Alpha  occ. eigenvalues --  -10.25146 -10.25054 -10.24693 -10.24516 -10.24464
 Alpha  occ. eigenvalues --  -10.24442 -10.24373 -10.24289 -10.24289 -10.24091
 Alpha  occ. eigenvalues --  -10.23856 -10.23742 -10.23730 -10.23728 -10.23552
 Alpha  occ. eigenvalues --  -10.23510 -10.23447 -10.23447 -10.23397 -10.23069
 Alpha  occ. eigenvalues --  -10.22872  -3.15648  -3.14589  -1.88448  -1.88040
 Alpha  occ. eigenvalues --   -1.87859  -1.87386  -1.86980  -1.86816  -1.11115
 Alpha  occ. eigenvalues --   -1.09728  -1.06074  -1.05437  -1.05144  -1.03873
 Alpha  occ. eigenvalues --   -1.01825  -1.01753  -0.99241  -0.98899  -0.98348
 Alpha  occ. eigenvalues --   -0.98218  -0.97599  -0.97258  -0.96548  -0.96527
 Alpha  occ. eigenvalues --   -0.87568  -0.86793  -0.83519  -0.83162  -0.83129
 Alpha  occ. eigenvalues --   -0.82501  -0.82372  -0.81935  -0.81610  -0.81169
 Alpha  occ. eigenvalues --   -0.80494  -0.80405  -0.79848  -0.79729  -0.79005
 Alpha  occ. eigenvalues --   -0.78868  -0.78205  -0.77581  -0.77093  -0.76778
 Alpha  occ. eigenvalues --   -0.75995  -0.75899  -0.75269  -0.75057  -0.74643
 Alpha  occ. eigenvalues --   -0.74462  -0.72561  -0.71757  -0.71546  -0.71510
 Alpha  occ. eigenvalues --   -0.71044  -0.70876  -0.70830  -0.70625  -0.69559
 Alpha  occ. eigenvalues --   -0.69310  -0.67222  -0.66853  -0.66376  -0.66228
 Alpha  occ. eigenvalues --   -0.64167  -0.63686  -0.63679  -0.63376  -0.62868
 Alpha  occ. eigenvalues --   -0.62664  -0.61462  -0.61272  -0.60266  -0.60234
 Alpha  occ. eigenvalues --   -0.59718  -0.59337  -0.59218  -0.59151  -0.59063
 Alpha  occ. eigenvalues --   -0.58778  -0.58199  -0.57079  -0.54826  -0.54481
 Alpha  occ. eigenvalues --   -0.54183  -0.53785  -0.53655  -0.53367  -0.53267
 Alpha  occ. eigenvalues --   -0.52732  -0.52384  -0.52204  -0.51814  -0.51812
 Alpha  occ. eigenvalues --   -0.50702  -0.50688  -0.50523  -0.50116  -0.49974
 Alpha  occ. eigenvalues --   -0.49538  -0.49529  -0.49027  -0.48837  -0.48737
 Alpha  occ. eigenvalues --   -0.48434  -0.48249  -0.47709  -0.47643  -0.47412
 Alpha  occ. eigenvalues --   -0.47243  -0.47211  -0.46991  -0.46711  -0.46436
 Alpha  occ. eigenvalues --   -0.46204  -0.46093  -0.45947  -0.45846  -0.45659
 Alpha  occ. eigenvalues --   -0.45522  -0.45247  -0.45211  -0.45084  -0.44978
 Alpha  occ. eigenvalues --   -0.44594  -0.44523  -0.44458  -0.44241  -0.44043
 Alpha  occ. eigenvalues --   -0.43991  -0.43971  -0.43877  -0.43579  -0.43505
 Alpha  occ. eigenvalues --   -0.43292  -0.43266  -0.42967  -0.42963  -0.42879
 Alpha  occ. eigenvalues --   -0.42141  -0.42108  -0.41872  -0.41828  -0.41823
 Alpha  occ. eigenvalues --   -0.41502  -0.41398  -0.41261  -0.41172  -0.41030
 Alpha  occ. eigenvalues --   -0.40992  -0.40978  -0.40688  -0.40601  -0.40416
 Alpha  occ. eigenvalues --   -0.40150  -0.40117  -0.40033  -0.39863  -0.39795
 Alpha  occ. eigenvalues --   -0.39571  -0.39519  -0.39472  -0.39339  -0.38968
 Alpha  occ. eigenvalues --   -0.38941  -0.38742  -0.38718  -0.38568  -0.38337
 Alpha  occ. eigenvalues --   -0.38081  -0.38080  -0.37918  -0.37860  -0.37809
 Alpha  occ. eigenvalues --   -0.37712  -0.37540  -0.37492  -0.37300  -0.37111
 Alpha  occ. eigenvalues --   -0.37103  -0.36946  -0.36944  -0.36759  -0.36551
 Alpha  occ. eigenvalues --   -0.36546  -0.36068  -0.36006  -0.35566  -0.35274
 Alpha  occ. eigenvalues --   -0.35164  -0.34819  -0.34753  -0.34689  -0.34121
 Alpha  occ. eigenvalues --   -0.33894  -0.33775  -0.33059  -0.32647  -0.32559
 Alpha  occ. eigenvalues --   -0.32160  -0.32127  -0.32106  -0.32098  -0.31651
 Alpha  occ. eigenvalues --   -0.31613  -0.31282  -0.30025  -0.29700  -0.29352
 Alpha  occ. eigenvalues --   -0.29123  -0.28901  -0.28609  -0.26938  -0.26833
 Alpha  occ. eigenvalues --   -0.26242  -0.26100  -0.26036  -0.25977  -0.25689
 Alpha  occ. eigenvalues --   -0.25653  -0.25374  -0.25359  -0.21079  -0.20891
 Alpha  occ. eigenvalues --   -0.18943  -0.18527
 Alpha virt. eigenvalues --   -0.11073  -0.10786  -0.05452  -0.05315  -0.04041
 Alpha virt. eigenvalues --   -0.04024  -0.02433  -0.02312  -0.01887  -0.01219
 Alpha virt. eigenvalues --   -0.01073  -0.00025   0.00776   0.01069   0.01235

 Mulliken charges:
               1
     1  Mg  12.000000
     2  C    6.000000
     3  C    6.000000
     4  C    6.000000
     5  C    6.000000
     6  N    7.000000
     7  C    6.000000
     8  C    6.000000
     9  C    6.000000
    10  C    6.000000
    11  C    6.000000
    12  C    6.000000
    13  C    6.000000
    14  H    1.000000
    15  N    7.000000
    16  C    6.000000
    17  C    6.000000
    18  C    6.000000
    19  C    6.000000
    20  C    6.000000
    21  C    6.000000
    22  O    8.000000
    23  C    6.000000
    24  N    7.000000
    25  C    6.000000
    26  C    6.000000
    27  C    6.000000
    28  C    6.000000
    29  C    6.000000
    30  C    6.000000
    31  C    6.000000
    32  N    7.000000
    33  C    6.000000
    34  C    6.000000
    35  C    6.000000
    36  C    6.000000
    37  C    6.000000
    38  C    6.000000
    39  O    8.000000
    40  C    6.000000
    41  C    6.000000
    42  O    8.000000
    43  O    8.000000
    44  C    6.000000
    45  H    1.000000
    46  H    1.000000
    47  H    1.000000
    48  H    1.000000
    49  H    1.000000
    50  H    1.000000
    51  H    1.000000
    52  H    1.000000
    53  H    1.000000
    54  H    1.000000
    55  H    1.000000
    56  H    1.000000
    57  H    1.000000
    58  H    1.000000
    59  H    1.000000
    60  H    1.000000
    61  H    1.000000
    62  H    1.000000
    63  H    1.000000
    64  H    1.000000
    65  H    1.000000
    66  H    1.000000
    67  H    1.000000
    68  H    1.000000
    69  H    1.000000
    70  H    1.000000
    71  H    1.000000
    72  H    1.000000
    73  H    1.000000
    74  H    1.000000
    75  H    1.000000
    76  H    1.000000
    77  H    1.000000
    78  H    1.000000
    79  H    1.000000
    80  Mg  12.000000
    81  C    6.000000
    82  C    6.000000
    83  C    6.000000
    84  C    6.000000
    85  N    7.000000
    86  C    6.000000
    87  C    6.000000
    88  C    6.000000
    89  C    6.000000
    90  C    6.000000
    91  C    6.000000
    92  C    6.000000
    93  H    1.000000
    94  N    7.000000
    95  C    6.000000
    96  C    6.000000
    97  C    6.000000
    98  C    6.000000
    99  C    6.000000
   100  C    6.000000
   101  O    8.000000
   102  C    6.000000
   103  N    7.000000
   104  C    6.000000
   105  C    6.000000
   106  C    6.000000
   107  C    6.000000
   108  C    6.000000
   109  C    6.000000
   110  C    6.000000
   111  N    7.000000
   112  C    6.000000
   113  C    6.000000
   114  C    6.000000
   115  C    6.000000
   116  C    6.000000
   117  C    6.000000
   118  O    8.000000
   119  C    6.000000
   120  C    6.000000
   121  O    8.000000
   122  O    8.000000
   123  C    6.000000
   124  H    1.000000
   125  H    1.000000
   126  H    1.000000
   127  H    1.000000
   128  H    1.000000
   129  H    1.000000
   130  H    1.000000
   131  H    1.000000
   132  H    1.000000
   133  H    1.000000
   134  H    1.000000
   135  H    1.000000
   136  H    1.000000
   137  H    1.000000
   138  H    1.000000
   139  H    1.000000
   140  H    1.000000
   141  H    1.000000
   142  H    1.000000
   143  H    1.000000
   144  H    1.000000
   145  H    1.000000
   146  H    1.000000
   147  H    1.000000
   148  H    1.000000
   149  H    1.000000
   150  H    1.000000
   151  H    1.000000
   152  H    1.000000
   153  H    1.000000
   154  H    1.000000
   155  H    1.000000
   156  H    1.000000
   157  H    1.000000
   158  H    1.000000
 Sum of Mulliken charges = 624.00000

 Dipole moment (field-independent basis, Debye):
    X=             -0.0000    Y=              0.0000    Z=              0.0000  Tot=              0.0000
 Quadrupole moment (field-independent basis, Debye-Ang):
   XX=              0.0000   YY=             -0.0000   ZZ=             -0.0000
   XY=             -0.0000   XZ=              0.0000   YZ=             -0.0000

 Normal termination of Gaussian 16 at Thu Oct 14 23:35:43 2021.
