 Gaussian 16, Revision A.03,
 Gaussian 16:  ES64L-G16RevA.03 25-Dec-2016

 --------------------------------------------------------
 #p PBE1PBE/Def2SVP td=(nstates=5) density=(transition=1)
 --------------------------------------------------------

 --------------------------------
 TDDFT excited states in gaussian
 --------------------------------
 Symbolic Z-matrix:
 Charge =  0 Multiplicity = 1

                         Standard orientation:
 ---------------------------------------------------------------------
 Center     Atomic      Atomic             Coordinates (Angstroms)
 Number     Number       Type             X           Y           Z
 ---------------------------------------------------------------------
      1         12           0      -25.139334   -0.429056   -0.069370
      2          6           0      -23.975798    2.748699   -1.049652
      3          6           0      -25.666452    0.778854    3.060134
      4          6           0      -26.135911   -3.528418    0.847546
      5          6           0      -24.149820   -1.672151   -3.157107
      6          7           0      -24.769455    1.475584    0.910355
      7          6           0      -24.396156    2.670296    0.288683
      8          6           0      -24.534285    3.801738    1.262508
      9          6           0      -24.588749    3.066089    2.622517
     10          6           0      -25.046749    1.656776    2.166378
     11          6           0      -23.259417    2.948818    3.433017
     12          6           0      -25.761734    4.761502    1.031906
     13          6           0      -25.427207    6.218215    1.085606
     14          1           0      -26.383325    7.114254    1.894889
     15          7           0      -25.886945   -1.193400    1.643408
     16          6           0      -26.128653   -0.508688    2.846027
     17          6           0      -26.724847   -1.374782    3.783251
     18          6           0      -26.894770   -2.697083    3.154782
     19          6           0      -26.323503   -2.515212    1.850895
     20          6           0      -27.001084   -1.053807    5.223040
     21          6           0      -27.443809   -4.086005    3.700987
     22          8           0      -27.509805   -5.053559    2.980443
     23          6           0      -27.996629   -4.209164    5.113712
     24          7           0      -25.036978   -2.353899   -0.991305
     25          6           0      -25.505747   -3.471303   -0.377983
     26          6           0      -25.282666   -4.751709   -1.316682
     27          6           0      -24.921853   -4.101423   -2.723472
     28          6           0      -24.676246   -2.596418   -2.280484
     29          6           0      -24.200017   -5.765316   -0.853445
     30          6           0      -26.051535   -4.236585   -3.805691
     31          6           0      -25.534773   -4.827243   -5.049786
     32          7           0      -24.203870    0.337286   -1.748719
     33          6           0      -23.963033   -0.268832   -2.980790
     34          6           0      -23.413249    0.691717   -3.898254
     35          6           0      -23.376311    1.868376   -3.178197
     36          6           0      -23.870595    1.638597   -1.933025
     37          6           0      -23.082501    0.342608   -5.372799
     38          6           0      -22.990733    3.266845   -3.224464
     39          8           0      -22.395882    3.847760   -4.105353
     40          6           0      -23.354368    3.907054   -1.793953
     41          6           0      -22.122805    4.436651   -1.180238
     42          8           0      -21.095645    3.750712   -0.936252
     43          8           0      -22.287353    5.774742   -0.972260
     44          6           0      -21.022882    6.515521   -0.720509
     45          1           0      -25.769351    1.225076    4.051435
     46          1           0      -26.419537   -4.560034    1.065366
     47          1           0      -23.779669   -2.092031   -4.094195
     48          1           0      -23.642860    4.424197    1.348953
     49          1           0      -25.293087    3.507199    3.328015
     50          1           0      -22.595368    3.806778    3.320070
     51          1           0      -22.771106    2.029952    3.107430
     52          1           0      -23.370357    2.753821    4.499375
     53          1           0      -26.490728    4.471148    1.788214
     54          1           0      -26.270277    4.543562    0.092311
     55          1           0      -25.414272    6.466572    0.024239
     56          1           0      -24.468189    6.354313    1.585298
     57          1           0      -28.049591   -0.903063    5.480907
     58          1           0      -26.551417   -0.091923    5.466056
     59          1           0      -26.637547   -1.741846    5.985814
     60          1           0      -28.428828   -5.207371    5.171911
     61          1           0      -28.657590   -3.377923    5.360950
     62          1           0      -27.212170   -3.982340    5.836300
     63          1           0      -26.181921   -5.367885   -1.322498
     64          1           0      -23.991602   -4.548133   -3.077598
     65          1           0      -23.623306   -5.490450    0.030317
     66          1           0      -23.452028   -5.971972   -1.619296
     67          1           0      -24.719171   -6.701223   -0.645194
     68          1           0      -26.405655   -3.237612   -4.062870
     69          1           0      -26.890061   -4.867101   -3.510730
     70          1           0      -25.796888   -5.885471   -5.065382
     71          1           0      -24.482578   -4.698951   -5.301332
     72          1           0      -25.982761   -4.318129   -5.903209
     73          1           0      -23.591711   -0.584028   -5.638731
     74          1           0      -22.007975    0.369844   -5.559484
     75          1           0      -23.565074    1.133679   -5.945551
     76          1           0      -24.094252    4.702562   -1.886049
     77          1           0      -21.211614    7.588710   -0.698789
     78          1           0      -20.424869    6.360679   -1.618828
     79          1           0      -20.581387    6.085241    0.178838
     80         12           0       24.270893   -0.794853    0.234093
     81          6           0       26.032059    2.324044   -0.294257
     82          6           0       23.026504    0.598669    2.869804
     83          6           0       22.980757   -3.793729    0.686679
     84          6           0       26.377449   -2.399006   -2.255639
     85          7           0       24.436443    1.325573    1.102523
     86          6           0       25.185857    2.435666    0.772488
     87          6           0       24.953864    3.526371    1.755043
     88          6           0       24.387182    2.784608    2.992898
     89          6           0       23.951058    1.463324    2.316881
     90          6           0       25.424054    2.516764    4.105755
     91          6           0       23.872819    4.506732    1.206260
     92          6           0       24.167273    6.046914    1.381587
     93          1           0       23.413969    7.103671    0.479465
     94          7           0       23.057789   -1.484168    1.656492
     95          6           0       22.545896   -0.754201    2.611375
     96          6           0       21.592537   -1.568228    3.341544
     97          6           0       21.523065   -2.772985    2.603018
     98          6           0       22.567698   -2.718442    1.616599
     99          6           0       20.788550   -0.983097    4.516803
    100          6           0       20.582032   -3.918496    2.852550
    101          8           0       20.640124   -4.902129    2.176935
    102          6           0       19.511096   -3.770953    3.883671
    103          7           0       24.881618   -2.912416   -0.525948
    104          6           0       24.012475   -3.878639   -0.236748
    105          6           0       24.191082   -5.067735   -1.104071
    106          6           0       25.450975   -4.642037   -1.922518
    107          6           0       25.633028   -3.190069   -1.567033
    108          6           0       24.264139   -6.477433   -0.414387
    109          6           0       25.247686   -4.914914   -3.463981
    110          6           0       25.986402   -6.103556   -4.139900
    111          7           0       25.810579   -0.271533   -0.991752
    112          6           0       26.530059   -0.952169   -1.999290
    113          6           0       27.468198   -0.014868   -2.650762
    114          6           0       27.272231    1.212002   -2.030906
    115          6           0       26.331237    1.038813   -1.030089
    116          6           0       28.545042   -0.408887   -3.690591
    117          6           0       27.753549    2.630583   -2.061406
    118          8           0       28.533384    3.235884   -2.758278
    119          6           0       27.083136    3.380808   -0.804247
    120          6           0       26.600351    4.665971   -1.154513
    121          8           0       25.431873    4.851863   -1.522135
    122          8           0       27.514973    5.713512   -1.108427
    123          6           0       27.019677    7.114723   -1.271991
    124          1           0       22.502430    0.960624    3.756114
    125          1           0       22.507134   -4.771716    0.793849
    126          1           0       27.011198   -2.863445   -3.012683
    127          1           0       25.906618    3.960126    2.059842
    128          1           0       23.556271    3.264740    3.509406
    129          1           0       25.121853    3.002311    5.034143
    130          1           0       26.372034    2.927821    3.759919
    131          1           0       25.612516    1.461994    4.307824
    132          1           0       22.970546    4.263860    1.767825
    133          1           0       23.720243    4.225588    0.164450
    134          1           0       25.243495    6.188076    1.285743
    135          1           0       23.884967    6.215098    2.421556
    136          1           0       19.736008   -0.954014    4.232029
    137          1           0       21.116998   -0.011061    4.883124
    138          1           0       20.771661   -1.688588    5.347031
    139          1           0       18.809626   -2.971999    3.644870
    140          1           0       19.826499   -3.455280    4.878080
    141          1           0       18.915298   -4.683887    3.901069
    142          1           0       23.343007   -5.104817   -1.787818
    143          1           0       26.330803   -5.137040   -1.510881
    144          1           0       24.045877   -6.311128    0.639997
    145          1           0       25.164544   -7.070117   -0.579745
    146          1           0       23.492395   -7.111767   -0.850755
    147          1           0       25.576940   -4.038582   -4.022977
    148          1           0       24.170930   -4.838240   -3.614991
    149          1           0       25.293496   -6.657869   -4.772714
    150          1           0       26.417355   -6.746717   -3.372426
    151          1           0       26.784656   -5.741062   -4.788691
    152          1           0       28.150194   -1.238000   -4.277089
    153          1           0       29.412069   -0.814683   -3.168830
    154          1           0       28.815988    0.425959   -4.337320
    155          1           0       27.845534    3.483398   -0.032585
    156          1           0       26.338721    7.386992   -0.464360
    157          1           0       26.712289    7.313274   -2.298027
    158          1           0       27.852850    7.767274   -1.011332
 ---------------------------------------------------------------------

 SCF Done:  E(RPBE1PBE) =  -4067.36677812     A.U. after   16 cycles

 Excitation energies and oscillator strengths:

 Excited State   1:      Singlet-A      1.8995 eV  652.73 nm  f=0.3765  <S**2>=0.000
     309 -> 315        0.17468
     311 -> 314        0.69185
     311 <- 314       -0.10895
 This state for optimization and/or second-order correction.
 Total Energy, E(TD-HF/TD-DFT) =  -4067.29697385
 Copying the excited state density for this state as the 1-particle RhoCI density.

 Excited State   2:      Singlet-A      2.0226 eV  613.00 nm  f=0.0000  <S**2>=0.000
     311 -> 313        0.70711

 Excited State   3:      Singlet-A      2.0232 eV  612.81 nm  f=0.0000  <S**2>=0.000
     312 -> 314        0.70711

 Excited State   4:      Singlet-A      2.2138 eV  560.05 nm  f=0.1481  <S**2>=0.000
     309 -> 314        0.66236
     311 -> 315       -0.22968

 Excited State   5:      Singlet-A      2.4054 eV  515.44 nm  f=0.0000  <S**2>=0.000
     310 -> 314        0.70711

 The electronic state is 1-A.
 Alpha  occ. eigenvalues --  -46.92830 -46.90625 -19.26327 -19.24659 -19.20069
 Alpha  occ. eigenvalues --  -19.19995 -19.19794 -19.19384 -19.19226 -19.18790
 Alpha  occ. eigenvalues --  -14.41508 -14.41184 -14.41077 -14.39732 -14.39681
 Alpha  occ. eigenvalues --  -14.39227 -14.38966 -14.38333 -10.36465 -10.35514
 Alpha  occ. eigenvalues --  -10.33399 -10.33327 -10.32311 -10.32017 -10.29402
 Alpha  occ. eigenvalues --  -10.28891 -10.28885 -10.28503 -10.28502 -10.28313
 Alpha  occ. eigenvalues --  -10.28284 -10.28202 -10.28179 -10.28000 -10.27935
 Alpha  occ. eigenvalues --  -10.27920 -10.27514 -10.27459 -10.27431 -10.27030
 Alpha  occ. eigenvalues --  -10.26652 -10.26638 -10.26471 -10.26434 -10.26157
 Alpha  occ. eigenvalues --  -10.25983 -10.25940 -10.25860 -10.25815 -10.25790
 Alpha  occ. eigenvalues --  -10.25750 -10.25739 -10.25595 -10.25536 -10.25534
 Alpha  occ. eigenvalues --  -10.25486 -10.25457 -10.25406 -10.25339 -10.25333
 Alpha  occ. eigenvalues --  -10.24675 -10.24601 -10.24532 -10.24518 -10.24461
 Alpha  occ. eigenvalues --  -10.24429 -10.24107 -10.24098 -10.23941 -10.23926
 Alpha  occ. eigenvalues --  -10.23708 -10.23705 -10.23701 -10.23652 -10.23534
 Alpha  occ. eigenvalues --  -10.23468 -10.23462 -10.23406 -10.23368 -10.23254
 Alpha  occ. eigenvalues --  -10.23170 -10.23134 -10.23007 -10.22820 -10.22206
 Alpha  occ. eigenvalues --  -10.22110  -3.14933  -3.12927  -1.87759  -1.87313
 Alpha  occ. eigenvalues --   -1.87158  -1.85774  -1.85290  -1.85177  -1.10546
 Alpha  occ. eigenvalues --   -1.08954  -1.06698  -1.06361  -1.05810  -1.05195
 Alpha  occ. eigenvalues --   -1.01147  -1.00898  -1.00491  -0.99611  -0.99532
 Alpha  occ. eigenvalues --   -0.99475  -0.98128  -0.97216  -0.95997  -0.95923
 Alpha  occ. eigenvalues --   -0.87006  -0.85703  -0.83540  -0.83471  -0.83241
 Alpha  occ. eigenvalues --   -0.82950  -0.82315  -0.82292  -0.81968  -0.81777
 Alpha  occ. eigenvalues --   -0.81386  -0.80667  -0.80237  -0.79726  -0.78656
 Alpha  occ. eigenvalues --   -0.78568  -0.78134  -0.77388  -0.77201  -0.76323
 Alpha  occ. eigenvalues --   -0.76235  -0.76052  -0.75517  -0.75316  -0.75020
 Alpha  occ. eigenvalues --   -0.74715  -0.72933  -0.72494  -0.71658  -0.71452
 Alpha  occ. eigenvalues --   -0.71118  -0.71069  -0.70509  -0.70062  -0.69737
 Alpha  occ. eigenvalues --   -0.69224  -0.67374  -0.67363  -0.65532  -0.65409
 Alpha  occ. eigenvalues --   -0.63515  -0.63213  -0.63066  -0.62498  -0.62399
 Alpha  occ. eigenvalues --   -0.61980  -0.61685  -0.60912  -0.60480  -0.60070
 Alpha  occ. eigenvalues --   -0.59963  -0.59615  -0.59600  -0.59102  -0.58822
 Alpha  occ. eigenvalues --   -0.58614  -0.56558  -0.55883  -0.55639  -0.54848
 Alpha  occ. eigenvalues --   -0.54685  -0.54621  -0.53863  -0.53657  -0.52738
 Alpha  occ. eigenvalues --   -0.52562  -0.52426  -0.52198  -0.52112  -0.51794
 Alpha  occ. eigenvalues --   -0.51054  -0.50698  -0.50327  -0.50286  -0.50120
 Alpha  occ. eigenvalues --   -0.50054  -0.49501  -0.48561  -0.48438  -0.48424
 Alpha  occ. eigenvalues --   -0.48067  -0.47998  -0.47937  -0.47363  -0.47320
 Alpha  occ. eigenvalues --   -0.47193  -0.47104  -0.47002  -0.46655  -0.46457
 Alpha  occ. eigenvalues --   -0.46456  -0.46353  -0.45970  -0.45873  -0.45781
 Alpha  occ. eigenvalues --   -0.45480  -0.45013  -0.44956  -0.44920  -0.44683
 Alpha  occ. eigenvalues --   -0.44627  -0.44448  -0.44367  -0.44288  -0.44058
 Alpha  occ. eigenvalues --   -0.44032  -0.44012  -0.43851  -0.43571  -0.43538
 Alpha  occ. eigenvalues --   -0.43382  -0.43374  -0.42997  -0.42674  -0.42489
 Alpha  occ. eigenvalues --   -0.42420  -0.42369  -0.42228  -0.42112  -0.41955
 Alpha  occ. eigenvalues --   -0.41444  -0.41343  -0.41183  -0.41134  -0.40946
 Alpha  occ. eigenvalues --   -0.40814  -0.40596  -0.40583  -0.40522  -0.40376
 Alpha  occ. eigenvalues --   -0.40229  -0.40112  -0.39860  -0.39672  -0.39618
 Alpha  occ. eigenvalues --   -0.39512  -0.39466  -0.39389  -0.39233  -0.39154
 Alpha  occ. eigenvalues --   -0.39074  -0.38795  -0.38282  -0.38261  -0.38179
 Alpha  occ. eigenvalues --   -0.38177  -0.37944  -0.37871  -0.37661  -0.37657
 Alpha  occ. eigenvalues --   -0.37467  -0.37315  -0.37153  -0.37040  -0.36778
 Alpha  occ. eigenvalues --   -0.36736  -0.36732  -0.36229  -0.36124  -0.35911
 Alpha  occ. eigenvalues --   -0.35869  -0.35426  -0.35353  -0.35298  -0.35105
 Alpha  occ. eigenvalues --   -0.34907  -0.34842  -0.34770  -0.34094  -0.33792
 Alpha  occ. eigenvalues --   -0.33359  -0.33291  -0.32853  -0.32849  -0.32655
 Alpha  occ. eigenvalues --   -0.32059  -0.31754  -0.31545  -0.31411  -0.31182
 Alpha  occ. eigenvalues --   -0.31070  -0.30690  -0.29497  -0.29141  -0.28796
 Alpha  occ. eigenvalues --   -0.28596  -0.28349  -0.27706  -0.27243  -0.26951
 Alpha  occ. eigenvalues --   -0.26574  -0.26484  -0.26137  -0.26018  -0.25906
 Alpha  occ. eigenvalues --   -0.25643  -0.25497  -0.25153  -0.20935  -0.20528
 Alpha  occ. eigenvalues --   -0.19129  -0.19121
 Alpha virt. eigenvalues --   -0.11428  -0.11422  -0.04847  -0.04026  -0.03559
 Alpha virt. eigenvalues --   -0.03321  -0.01802  -0.01696  -0.00473  -0.00198
 Alpha virt. eigenvalues --   -0.00054   0.00663   0.01033   0.01435   0.01955

 Mulliken charges:
               1
     1  Mg  12.000021
     2  C    6.027471
     3  C    6.005186
     4  C    5.973385
     5  C    5.997249
     6  N    7.016437
     7  C    5.964682
     8  C    6.011688
     9  C    5.993663
    10  C    6.021867
    11  C    5.997158
    12  C    6.003080
    13  C    6.001523
    14  H    0.993584
    15  N    6.997944
    16  C    6.027173
    17  C    6.022481
    18  C    6.015845
    19  C    6.028813
    20  C    5.994550
    21  C    6.013043
    22  O    8.025948
    23  C    5.998204
    24  N    6.987775
    25  C    6.032288
    26  C    5.993227
    27  C    6.006627
    28  C    5.978908
    29  C    5.999862
    30  C    6.003328
    31  C    6.001008
    32  N    6.998567
    33  C    5.972141
    34  C    5.965330
    35  C    6.004159
    36  C    5.968620
    37  C    5.999710
    38  C    5.983746
    39  O    7.974927
    40  C    5.995619
    41  C    5.995850
    42  O    7.997039
    43  O    7.997789
    44  C    6.000439
    45  H    1.015326
    46  H    1.003794
    47  H    0.987348
    48  H    0.998338
    49  H    1.001201
    50  H    1.014497
    51  H    1.002403
    52  H    0.998459
    53  H    0.987299
    54  H    1.003179
    55  H    1.004723
    56  H    0.998458
    57  H    1.021187
    58  H    1.015692
    59  H    1.018950
    60  H    1.013107
    61  H    1.004426
    62  H    1.005905
    63  H    0.997732
    64  H    0.997807
    65  H    0.996389
    66  H    1.008376
    67  H    0.998305
    68  H    1.002593
    69  H    0.988569
    70  H    0.993224
    71  H    1.001951
    72  H    0.999820
    73  H    0.985233
    74  H    0.980693
    75  H    0.983194
    76  H    0.992343
    77  H    0.995872
    78  H    1.001009
    79  H    0.994644
    80  Mg  12.000017
    81  C    5.999985
    82  C    5.999998
    83  C    6.000020
    84  C    6.000000
    85  N    6.999991
    86  C    6.000034
    87  C    5.999992
    88  C    6.000008
    89  C    5.999970
    90  C    6.000008
    91  C    5.999995
    92  C    5.999994
    93  H    1.000039
    94  N    7.000012
    95  C    5.999975
    96  C    5.999979
    97  C    6.000000
    98  C    5.999967
    99  C    5.999998
   100  C    5.999989
   101  O    7.999985
   102  C    6.000004
   103  N    6.999997
   104  C    5.999964
   105  C    6.000014
   106  C    5.999987
   107  C    6.000032
   108  C    6.000001
   109  C    5.999998
   110  C    6.000000
   111  N    7.000001
   112  C    6.000033
   113  C    6.000026
   114  C    6.000003
   115  C    6.000027
   116  C    6.000007
   117  C    6.000016
   118  O    8.000020
   119  C    6.000009
   120  C    5.999999
   121  O    8.000021
   122  O    7.999995
   123  C    5.999997
   124  H    0.999985
   125  H    0.999990
   126  H    1.000004
   127  H    0.999988
   128  H    0.999999
   129  H    0.999986
   130  H    0.999980
   131  H    0.999988
   132  H    1.000020
   133  H    1.000012
   134  H    0.999985
   135  H    0.999994
   136  H    0.999999
   137  H    0.999980
   138  H    0.999960
   139  H    1.000014
   140  H    0.999971
   141  H    0.999978
   142  H    1.000017
   143  H    0.999987
   144  H    0.999991
   145  H    0.999979
   146  H    1.000003
   147  H    1.000007
   148  H    1.000023
   149  H    1.000015
   150  H    0.999984
   151  H    0.999997
   152  H    1.000023
   153  H    1.000002
   154  H    1.000021
   155  H    0.999994
   156  H    1.000005
   157  H    1.000015
   158  H    0.999996
 Sum of Mulliken charges = 624.00000

 Dipole moment (field-independent basis, Debye):
    X=             -3.7977    Y=             -3.1495    Z=              8.9544  Tot=             10.2237
 Quadrupole moment (field-independent basis, Debye-Ang):
   XX=            190.8945   YY=             -0.2371   ZZ=              0.3018
   XY=             80.6477   XZ=           -225.3034   YZ=             -5.1696

 Normal termination of Gaussian 16 at Thu Oct 14 01:53:30 2021.
