 Gaussian 16, Revision A.03,
 Gaussian 16:  ES64L-G16RevA.03 25-Dec-2016

 --------------------------------------------------------
 #p PBE1PBE/Def2SVP td=(nstates=5) density=(transition=1)
 --------------------------------------------------------

 --------------------------------
 TDDFT excited states in gaussian
 --------------------------------
 Symbolic Z-matrix:
 Charge =  0 Multiplicity = 1

                         Standard orientation:
 ---------------------------------------------------------------------
 Center     Atomic      Atomic             Coordinates (Angstroms)
 Number     Number       Type             X           Y           Z
 ---------------------------------------------------------------------
      1         12           0      -23.460913   -0.618368   -0.037046
      2          6           0      -22.640448    2.572472   -0.993684
      3          6           0      -23.255611    0.378282    3.237395
      4          6           0      -24.178149   -3.864568    0.950834
      5          6           0      -23.219876   -1.671474   -3.331471
      6          7           0      -22.944622    1.275609    1.049811
      7          6           0      -22.737190    2.455581    0.394017
      8          6           0      -22.541685    3.546256    1.332089
      9          6           0      -22.512769    2.898510    2.707448
     10          6           0      -22.896374    1.395171    2.354480
     11          6           0      -21.200793    2.996531    3.560120
     12          6           0      -23.642171    4.650249    1.175052
     13          6           0      -23.212565    6.130621    1.461248
     14          1           0      -22.064104    6.349023    2.465725
     15          7           0      -23.793153   -1.554814    1.858121
     16          6           0      -23.668479   -0.934312    3.089320
     17          6           0      -23.954488   -1.919857    4.151574
     18          6           0      -24.238166   -3.190106    3.486903
     19          6           0      -24.102896   -2.912660    2.046331
     20          6           0      -23.904389   -1.624268    5.641686
     21          6           0      -24.707186   -4.478065    4.122506
     22          8           0      -24.980392   -5.446960    3.392409
     23          6           0      -24.839880   -4.700945    5.582566
     24          7           0      -23.596496   -2.526426   -1.024693
     25          6           0      -23.950796   -3.655144   -0.403709
     26          6           0      -24.181948   -4.786700   -1.419028
     27          6           0      -24.127889   -4.051040   -2.866996
     28          6           0      -23.694413   -2.627269   -2.369257
     29          6           0      -23.147415   -5.938881   -1.231440
     30          6           0      -25.478046   -3.979898   -3.631736
     31          6           0      -25.563158   -4.823767   -4.912371
     32          7           0      -22.954410    0.220919   -1.837969
     33          6           0      -22.880330   -0.329272   -3.119699
     34          6           0      -22.497917    0.711580   -4.099561
     35          6           0      -22.386556    1.846314   -3.261826
     36          6           0      -22.661327    1.496503   -1.912688
     37          6           0      -22.353146    0.589613   -5.536109
     38          6           0      -22.181030    3.309325   -3.284298
     39          8           0      -22.011599    4.078571   -4.192755
     40          6           0      -22.297772    3.816797   -1.802906
     41          6           0      -21.080809    4.576319   -1.474425
     42          8           0      -19.998863    3.988237   -1.316056
     43          8           0      -21.279596    5.900968   -1.231618
     44          6           0      -20.172229    6.690594   -0.702105
     45          1           0      -23.183243    0.728033    4.269338
     46          1           0      -24.367147   -4.887539    1.283630
     47          1           0      -23.281830   -2.020342   -4.364285
     48          1           0      -21.568014    3.992423    1.126694
     49          1           0      -23.371594    3.202114    3.307199
     50          1           0      -20.323556    3.539428    3.206745
     51          1           0      -20.873894    1.981923    3.786412
     52          1           0      -21.364701    3.383731    4.566062
     53          1           0      -24.522002    4.374627    1.756579
     54          1           0      -24.101656    4.548969    0.192014
     55          1           0      -24.070442    6.707250    1.808298
     56          1           0      -22.787397    6.625273    0.588449
     57          1           0      -23.762058   -0.568128    5.868016
     58          1           0      -23.064341   -2.133663    6.114685
     59          1           0      -24.883827   -1.793013    6.088908
     60          1           0      -25.281216   -5.689971    5.701895
     61          1           0      -25.454032   -3.951794    6.083967
     62          1           0      -23.866063   -4.580683    6.057553
     63          1           0      -25.218873   -5.103364   -1.305979
     64          1           0      -23.342498   -4.449837   -3.508946
     65          1           0      -23.602702   -6.928188   -1.183884
     66          1           0      -22.586148   -5.809190   -0.305694
     67          1           0      -22.461039   -5.813463   -2.069190
     68          1           0      -25.752203   -2.968181   -3.928334
     69          1           0      -26.315570   -4.290127   -3.006522
     70          1           0      -24.897143   -5.682327   -4.825590
     71          1           0      -25.220626   -4.207420   -5.742972
     72          1           0      -26.618874   -5.038808   -5.072455
     73          1           0      -22.403477    1.549947   -6.048784
     74          1           0      -23.093470   -0.069065   -5.989738
     75          1           0      -21.319209    0.310531   -5.739580
     76          1           0      -23.192644    4.436520   -1.869246
     77          1           0      -19.333923    6.805211   -1.389820
     78          1           0      -19.859790    6.319776    0.274054
     79          1           0      -20.505458    7.714641   -0.534351
     80         12           0       23.583260   -0.723584    0.347316
     81          6           0       21.370120    1.880051    1.069873
     82          6           0       25.851297    1.735295   -0.703565
     83          6           0       25.590283   -3.088927   -0.908068
     84          6           0       20.932662   -2.916987    0.428655
     85          7           0       23.670640    1.616987    0.288027
     86          6           0       22.582348    2.371998    0.594636
     87          6           0       22.891466    3.905616    0.372671
     88          6           0       24.273930    3.807735   -0.449721
     89          6           0       24.622307    2.313839   -0.339600
     90          6           0       23.945130    4.116907   -1.953485
     91          6           0       23.121760    4.547033    1.790272
     92          6           0       23.574843    6.031701    1.838121
     93          1           0       24.637399    6.666481    2.685107
     94          7           0       25.510525   -0.667335   -0.463793
     95          6           0       26.329115    0.424313   -0.798318
     96          6           0       27.516081   -0.081735   -1.347815
     97          6           0       27.540750   -1.466014   -1.242898
     98          6           0       26.181931   -1.798137   -0.847578
     99          6           0       28.610708    0.848904   -1.756099
    100          6           0       28.646761   -2.503139   -1.627990
    101          8           0       28.554955   -3.716117   -1.472443
    102          6           0       30.055209   -2.071796   -2.045789
    103          7           0       23.244426   -2.675977   -0.266104
    104          6           0       24.276928   -3.477513   -0.610661
    105          6           0       23.903626   -4.971266   -0.679333
    106          6           0       22.378781   -4.900003   -0.388581
    107          6           0       22.159910   -3.467004    0.062423
    108          6           0       24.392042   -5.704946   -1.972307
    109          6           0       21.790856   -5.956940    0.586108
    110          6           0       22.070641   -5.758892    2.015403
    111          7           0       21.576656   -0.623941    0.765155
    112          6           0       20.646724   -1.550667    0.765708
    113          6           0       19.360420   -1.037057    1.247642
    114          6           0       19.653049    0.357961    1.380228
    115          6           0       20.976880    0.565850    1.045726
    116          6           0       18.250517   -1.760388    1.854259
    117          6           0       19.057476    1.621630    1.777788
    118          8           0       17.970153    1.868499    2.248156
    119          6           0       20.159687    2.653230    1.508426
    120          6           0       19.689790    3.748516    0.545379
    121          8           0       19.614257    3.616182   -0.648493
    122          8           0       19.305643    4.853675    1.266557
    123          6           0       18.845051    5.963686    0.400929
    124          1           0       26.593744    2.509473   -0.903977
    125          1           0       26.275985   -3.915550   -1.106768
    126          1           0       20.321897   -3.817517    0.513067
    127          1           0       22.140105    4.398614   -0.244711
    128          1           0       25.063581    4.469595   -0.091882
    129          1           0       23.937249    3.266991   -2.635140
    130          1           0       24.764964    4.645428   -2.440561
    131          1           0       23.006349    4.650566   -2.100416
    132          1           0       23.841356    3.918742    2.314488
    133          1           0       22.196794    4.412528    2.351680
    134          1           0       22.640708    6.582460    1.952215
    135          1           0       23.969912    6.146851    0.829541
    136          1           0       28.388530    1.911881   -1.658460
    137          1           0       28.970899    0.529989   -2.735146
    138          1           0       29.399682    0.647297   -1.031026
    139          1           0       30.090288   -1.555446   -3.005150
    140          1           0       30.804636   -2.862287   -2.002894
    141          1           0       30.411156   -1.400564   -1.263995
    142          1           0       24.487841   -5.297487    0.180664
    143          1           0       21.919673   -4.990158   -1.373059
    144          1           0       25.304732   -5.251290   -2.357275
    145          1           0       23.622578   -5.626921   -2.740830
    146          1           0       24.636013   -6.752858   -1.796558
    147          1           0       22.273391   -6.866278    0.229210
    148          1           0       20.726690   -6.086882    0.388265
    149          1           0       21.349159   -5.056261    2.432084
    150          1           0       23.102314   -5.445378    2.173769
    151          1           0       21.905107   -6.669260    2.592303
    152          1           0       18.699853   -2.669013    2.255702
    153          1           0       17.450043   -2.152052    1.226413
    154          1           0       17.829305   -1.100050    2.611567
    155          1           0       20.439961    3.094285    2.465559
    156          1           0       18.042339    6.490124    0.916936
    157          1           0       18.319896    5.676119   -0.510152
    158          1           0       19.643947    6.685264    0.233193
 ---------------------------------------------------------------------

 SCF Done:  E(RPBE1PBE) =  -4067.42965568     A.U. after   16 cycles

 Excitation energies and oscillator strengths:

 Excited State   1:      Singlet-A      1.8847 eV  657.86 nm  f=0.3796  <S**2>=0.000
     310 -> 316       -0.17969
     311 -> 313        0.69128
     311 <- 313       -0.10354
 This state for optimization and/or second-order correction.
 Total Energy, E(TD-HF/TD-DFT) =  -4067.36039546
 Copying the excited state density for this state as the 1-particle RhoCI density.

 Excited State   2:      Singlet-A      1.8897 eV  656.09 nm  f=0.3730  <S**2>=0.000
     309 -> 315       -0.18008
     312 -> 314        0.68960
     312 <- 314       -0.10437

 Excited State   3:      Singlet-A      1.9885 eV  623.50 nm  f=0.0000  <S**2>=0.000
     312 -> 313        0.70711

 Excited State   4:      Singlet-A      2.0694 eV  599.14 nm  f=0.0000  <S**2>=0.000
     311 -> 314        0.70711

 Excited State   5:      Singlet-A      2.2484 eV  551.44 nm  f=0.1069  <S**2>=0.000
     310 -> 313        0.65566
     311 -> 316        0.25365

 The electronic state is 1-A.
 Alpha  occ. eigenvalues --  -46.92261 -46.92118 -19.26559 -19.26451 -19.20628
 Alpha  occ. eigenvalues --  -19.19517 -19.19507 -19.19243 -19.19108 -19.18546
 Alpha  occ. eigenvalues --  -14.41557 -14.41298 -14.41204 -14.40742 -14.39165
 Alpha  occ. eigenvalues --  -14.38880 -14.38835 -14.38770 -10.36797 -10.36533
 Alpha  occ. eigenvalues --  -10.33196 -10.32033 -10.32005 -10.31700 -10.29510
 Alpha  occ. eigenvalues --  -10.29054 -10.28724 -10.28675 -10.28487 -10.28308
 Alpha  occ. eigenvalues --  -10.28308 -10.28222 -10.28104 -10.27831 -10.27809
 Alpha  occ. eigenvalues --  -10.27806 -10.27688 -10.27656 -10.27492 -10.27142
 Alpha  occ. eigenvalues --  -10.26799 -10.26788 -10.26446 -10.26412 -10.26358
 Alpha  occ. eigenvalues --  -10.26194 -10.26060 -10.26046 -10.25783 -10.25726
 Alpha  occ. eigenvalues --  -10.25623 -10.25613 -10.25594 -10.25588 -10.25474
 Alpha  occ. eigenvalues --  -10.25386 -10.25255 -10.25231 -10.25203 -10.25082
 Alpha  occ. eigenvalues --  -10.25066 -10.24975 -10.24963 -10.24757 -10.24659
 Alpha  occ. eigenvalues --  -10.24606 -10.24554 -10.24269 -10.24100 -10.23846
 Alpha  occ. eigenvalues --  -10.23843 -10.23678 -10.23651 -10.23520 -10.23517
 Alpha  occ. eigenvalues --  -10.23493 -10.23480 -10.23322 -10.23275 -10.23075
 Alpha  occ. eigenvalues --  -10.23000 -10.22996 -10.22878 -10.22784 -10.22582
 Alpha  occ. eigenvalues --  -10.22147  -3.14269  -3.14258  -1.87131  -1.87085
 Alpha  occ. eigenvalues --   -1.86647  -1.86626  -1.86498  -1.86468  -1.11594
 Alpha  occ. eigenvalues --   -1.11170  -1.05693  -1.05109  -1.05006  -1.03606
 Alpha  occ. eigenvalues --   -1.03580  -1.01886  -0.99771  -0.99723  -0.98701
 Alpha  occ. eigenvalues --   -0.98348  -0.98040  -0.97977  -0.97014  -0.95579
 Alpha  occ. eigenvalues --   -0.88249  -0.86820  -0.83732  -0.83402  -0.82791
 Alpha  occ. eigenvalues --   -0.82563  -0.82435  -0.81999  -0.81723  -0.81545
 Alpha  occ. eigenvalues --   -0.81493  -0.81057  -0.80629  -0.80442  -0.78299
 Alpha  occ. eigenvalues --   -0.78232  -0.77990  -0.77815  -0.76673  -0.76564
 Alpha  occ. eigenvalues --   -0.75981  -0.75714  -0.75500  -0.75156  -0.74883
 Alpha  occ. eigenvalues --   -0.74689  -0.72739  -0.72734  -0.71923  -0.71837
 Alpha  occ. eigenvalues --   -0.71596  -0.70941  -0.70529  -0.70456  -0.69227
 Alpha  occ. eigenvalues --   -0.69168  -0.67048  -0.66984  -0.66202  -0.65963
 Alpha  occ. eigenvalues --   -0.64387  -0.63618  -0.63533  -0.62788  -0.62728
 Alpha  occ. eigenvalues --   -0.62451  -0.61351  -0.61346  -0.60243  -0.59838
 Alpha  occ. eigenvalues --   -0.59835  -0.59590  -0.59209  -0.58950  -0.58866
 Alpha  occ. eigenvalues --   -0.58588  -0.57297  -0.57102  -0.54535  -0.54377
 Alpha  occ. eigenvalues --   -0.54096  -0.54035  -0.53917  -0.53761  -0.53202
 Alpha  occ. eigenvalues --   -0.53047  -0.52889  -0.52889  -0.51931  -0.51848
 Alpha  occ. eigenvalues --   -0.51058  -0.50671  -0.50300  -0.50187  -0.50130
 Alpha  occ. eigenvalues --   -0.49898  -0.49783  -0.49252  -0.49212  -0.48549
 Alpha  occ. eigenvalues --   -0.48502  -0.48046  -0.47807  -0.47595  -0.47569
 Alpha  occ. eigenvalues --   -0.47347  -0.47294  -0.46919  -0.46826  -0.46732
 Alpha  occ. eigenvalues --   -0.46589  -0.46235  -0.46098  -0.45802  -0.45713
 Alpha  occ. eigenvalues --   -0.45709  -0.45609  -0.45368  -0.44848  -0.44716
 Alpha  occ. eigenvalues --   -0.44532  -0.44503  -0.44399  -0.44166  -0.44042
 Alpha  occ. eigenvalues --   -0.43909  -0.43812  -0.43535  -0.43529  -0.43441
 Alpha  occ. eigenvalues --   -0.43127  -0.43034  -0.42946  -0.42747  -0.42574
 Alpha  occ. eigenvalues --   -0.42537  -0.42162  -0.42102  -0.41842  -0.41777
 Alpha  occ. eigenvalues --   -0.41754  -0.41340  -0.41331  -0.40938  -0.40832
 Alpha  occ. eigenvalues --   -0.40727  -0.40634  -0.40562  -0.40438  -0.40254
 Alpha  occ. eigenvalues --   -0.40106  -0.39898  -0.39839  -0.39737  -0.39726
 Alpha  occ. eigenvalues --   -0.39452  -0.39302  -0.39188  -0.39118  -0.39052
 Alpha  occ. eigenvalues --   -0.38843  -0.38643  -0.38582  -0.38437  -0.38407
 Alpha  occ. eigenvalues --   -0.38299  -0.38173  -0.37969  -0.37965  -0.37813
 Alpha  occ. eigenvalues --   -0.37723  -0.37502  -0.37380  -0.37256  -0.37154
 Alpha  occ. eigenvalues --   -0.36958  -0.36781  -0.36635  -0.36584  -0.36329
 Alpha  occ. eigenvalues --   -0.35965  -0.35742  -0.35592  -0.35526  -0.35251
 Alpha  occ. eigenvalues --   -0.35135  -0.34843  -0.34552  -0.34497  -0.33850
 Alpha  occ. eigenvalues --   -0.33398  -0.33142  -0.32812  -0.32686  -0.32460
 Alpha  occ. eigenvalues --   -0.32253  -0.32174  -0.31802  -0.31706  -0.31641
 Alpha  occ. eigenvalues --   -0.31407  -0.31059  -0.29803  -0.29497  -0.29242
 Alpha  occ. eigenvalues --   -0.28899  -0.28726  -0.28475  -0.26941  -0.26673
 Alpha  occ. eigenvalues --   -0.25883  -0.25780  -0.25741  -0.25654  -0.25531
 Alpha  occ. eigenvalues --   -0.25529  -0.25106  -0.24981  -0.20794  -0.20715
 Alpha  occ. eigenvalues --   -0.18653  -0.18480
 Alpha virt. eigenvalues --   -0.10890  -0.10763  -0.05193  -0.04843  -0.03779
 Alpha virt. eigenvalues --   -0.03629  -0.02102  -0.01802  -0.00567  -0.00214
 Alpha virt. eigenvalues --    0.00366   0.00555   0.01338   0.01346   0.01963

 Mulliken charges:
               1
     1  Mg  11.999996
     2  C    6.000074
     3  C    6.000037
     4  C    5.999875
     5  C    5.999950
     6  N    7.000044
     7  C    5.999936
     8  C    6.000021
     9  C    5.999973
    10  C    6.000040
    11  C    5.999990
    12  C    6.000006
    13  C    5.999988
    14  H    1.000050
    15  N    6.999986
    16  C    6.000030
    17  C    6.000029
    18  C    6.000003
    19  C    6.000093
    20  C    6.000002
    21  C    5.999996
    22  O    8.000015
    23  C    5.999999
    24  N    6.999980
    25  C    6.000102
    26  C    5.999973
    27  C    6.000016
    28  C    6.000012
    29  C    6.000006
    30  C    6.000021
    31  C    6.000000
    32  N    7.000001
    33  C    6.000000
    34  C    5.999876
    35  C    6.000015
    36  C    5.999964
    37  C    6.000019
    38  C    6.000016
    39  O    7.999963
    40  C    5.999983
    41  C    6.000006
    42  O    8.000046
    43  O    7.999977
    44  C    5.999984
    45  H    1.000019
    46  H    0.999993
    47  H    0.999976
    48  H    1.000038
    49  H    0.999977
    50  H    1.000064
    51  H    1.000031
    52  H    1.000008
    53  H    0.999963
    54  H    0.999979
    55  H    0.999965
    56  H    1.000008
    57  H    1.000019
    58  H    1.000048
    59  H    0.999982
    60  H    0.999983
    61  H    0.999981
    62  H    1.000037
    63  H    0.999959
    64  H    1.000005
    65  H    0.999967
    66  H    1.000025
    67  H    1.000025
    68  H    0.999982
    69  H    0.999956
    70  H    1.000002
    71  H    0.999999
    72  H    0.999949
    73  H    0.999977
    74  H    0.999953
    75  H    1.000022
    76  H    0.999967
    77  H    1.000041
    78  H    1.000025
    79  H    0.999984
    80  Mg  11.998510
    81  C    6.007096
    82  C    5.986492
    83  C    5.990552
    84  C    6.020698
    85  N    6.998184
    86  C    5.979619
    87  C    6.009201
    88  C    5.989268
    89  C    6.033948
    90  C    5.998168
    91  C    6.003718
    92  C    6.000053
    93  H    0.993035
    94  N    6.996422
    95  C    6.038147
    96  C    6.013315
    97  C    6.022051
    98  C    6.021877
    99  C    5.997446
   100  C    6.012075
   101  O    8.027373
   102  C    5.995718
   103  N    7.004627
   104  C    6.029396
   105  C    5.993956
   106  C    6.009755
   107  C    5.964200
   108  C    5.997383
   109  C    6.002761
   110  C    6.004642
   111  N    6.998992
   112  C    5.967056
   113  C    5.960197
   114  C    6.002860
   115  C    5.971519
   116  C    6.004889
   117  C    5.983055
   118  O    7.975768
   119  C    6.000954
   120  C    5.996310
   121  O    7.993666
   122  O    7.999198
   123  C    6.001782
   124  H    1.008669
   125  H    1.007506
   126  H    0.992629
   127  H    0.999263
   128  H    1.001420
   129  H    0.998949
   130  H    0.999877
   131  H    1.012956
   132  H    0.993127
   133  H    1.007426
   134  H    1.002352
   135  H    0.994406
   136  H    1.017247
   137  H    1.016034
   138  H    1.016296
   139  H    1.008753
   140  H    1.013597
   141  H    1.006274
   142  H    0.998292
   143  H    0.994814
   144  H    0.992203
   145  H    1.007579
   146  H    1.005915
   147  H    0.991601
   148  H    1.003276
   149  H    1.008505
   150  H    0.990643
   151  H    0.995774
   152  H    0.979287
   153  H    0.974864
   154  H    0.985217
   155  H    0.991209
   156  H    0.996970
   157  H    0.997717
   158  H    0.993419
 Sum of Mulliken charges = 624.00000

 Dipole moment (field-independent basis, Debye):
    X=              9.7196    Y=             -0.7661    Z=             -3.3434  Tot=             10.3071
 Quadrupole moment (field-independent basis, Debye-Ang):
   XX=            457.0888   YY=             -1.6733   ZZ=             -0.3069
   XY=            -24.4981   XZ=            -79.2691   YZ=              1.3925

 Normal termination of Gaussian 16 at Fri Oct 15 01:00:34 2021.
