 Gaussian 16, Revision A.03,
 Gaussian 16:  ES64L-G16RevA.03 25-Dec-2016

 --------------------------------------------------------
 #p PBE1PBE/Def2SVP td=(nstates=5) density=(transition=1)
 --------------------------------------------------------

 --------------------------------
 TDDFT excited states in gaussian
 --------------------------------
 Symbolic Z-matrix:
 Charge =  0 Multiplicity = 1

                         Standard orientation:
 ---------------------------------------------------------------------
 Center     Atomic      Atomic             Coordinates (Angstroms)
 Number     Number       Type             X           Y           Z
 ---------------------------------------------------------------------
      1         12           0       22.032343   -0.622706    0.464287
      2          6           0       21.685494    2.159575   -1.760757
      3          6           0       23.575961    1.502399    2.642414
      4          6           0       22.753779   -3.145686    2.244939
      5          6           0       21.511298   -2.698266   -2.286390
      6          7           0       22.509627    1.535578    0.343224
      7          6           0       22.269397    2.500760   -0.538753
      8          6           0       22.627712    3.922459   -0.011727
      9          6           0       23.703311    3.517586    1.093335
     10          6           0       23.214402    2.114214    1.405487
     11          6           0       25.127861    3.432998    0.554814
     12          6           0       21.395656    4.647852    0.626690
     13          6           0       21.574461    6.149570    0.867990
     14          1           0       20.427808    7.028274    0.693596
     15          7           0       22.570080   -0.740212    2.361623
     16          6           0       23.171770    0.227514    3.094263
     17          6           0       23.365061   -0.344152    4.444269
     18          6           0       22.999622   -1.786697    4.384149
     19          6           0       22.782111   -1.956896    2.970254
     20          6           0       23.801730    0.466007    5.626094
     21          6           0       22.877614   -2.846512    5.432975
     22          8           0       22.774314   -4.086311    5.138353
     23          6           0       22.972375   -2.398179    6.834068
     24          7           0       22.341085   -2.637436    0.013536
     25          6           0       22.582906   -3.531285    0.978700
     26          6           0       22.488467   -4.935146    0.458898
     27          6           0       21.889570   -4.820748   -1.016904
     28          6           0       21.816901   -3.277470   -1.123119
     29          6           0       23.805188   -5.722793    0.415675
     30          6           0       20.612029   -5.642104   -1.322974
     31          6           0       19.446736   -5.092827   -0.530834
     32          7           0       21.487578   -0.354597   -1.619554
     33          6           0       21.348827   -1.356988   -2.590447
     34          6           0       21.077083   -0.681743   -3.872737
     35          6           0       21.093170    0.676071   -3.559803
     36          6           0       21.384154    0.839618   -2.175292
     37          6           0       20.912299   -1.321425   -5.132931
     38          6           0       20.956593    2.027634   -4.077956
     39          8           0       20.618563    2.511835   -5.159056
     40          6           0       21.454905    3.045773   -2.959517
     41          6           0       20.421789    4.133034   -2.841854
     42          8           0       19.280018    3.885822   -2.402981
     43          8           0       21.006612    5.324924   -3.036593
     44          6           0       20.042119    6.449379   -2.904280
     45          1           0       24.278765    2.017266    3.300381
     46          1           0       22.888397   -4.048453    2.844379
     47          1           0       21.254313   -3.283873   -3.170967
     48          1           0       23.083913    4.579968   -0.751989
     49          1           0       23.634094    4.148748    1.979092
     50          1           0       25.150764    3.539123   -0.529683
     51          1           0       25.492159    2.448429    0.848759
     52          1           0       25.774760    4.153680    1.055729
     53          1           0       21.271710    4.308185    1.654952
     54          1           0       20.498557    4.483061    0.028875
     55          1           0       22.439570    6.539346    0.330801
     56          1           0       21.818397    6.299836    1.919710
     57          1           0       24.154066    1.452473    5.327280
     58          1           0       24.683266   -0.023552    6.039537
     59          1           0       23.025487    0.530666    6.388720
     60          1           0       23.933265   -1.907569    6.990727
     61          1           0       22.773875   -3.277830    7.445346
     62          1           0       22.208606   -1.641303    7.015024
     63          1           0       21.816454   -5.534638    1.071624
     64          1           0       22.602978   -5.146629   -1.774217
     65          1           0       23.774856   -6.657544    0.976056
     66          1           0       24.599003   -5.072621    0.782314
     67          1           0       24.163806   -5.959076   -0.585814
     68          1           0       20.746241   -6.679528   -1.018532
     69          1           0       20.340876   -5.638729   -2.378775
     70          1           0       19.560972   -5.577575    0.438084
     71          1           0       18.502612   -5.373469   -0.998894
     72          1           0       19.544697   -4.018825   -0.371434
     73          1           0       20.065343   -0.832888   -5.614559
     74          1           0       20.737974   -2.390622   -5.014477
     75          1           0       21.874186   -1.104068   -5.597027
     76          1           0       22.418179    3.430686   -3.292783
     77          1           0       20.090245    7.024066   -3.829295
     78          1           0       20.290959    6.963428   -1.975713
     79          1           0       18.985856    6.178688   -2.884899
     80         12           0      -21.601377   -0.614909   -0.419178
     81          6           0      -23.338394    1.604652    1.514278
     82          6           0      -19.980227    1.862558   -1.947687
     83          6           0      -20.219072   -2.874731   -2.317857
     84          6           0      -23.811560   -3.108014    0.846551
     85          7           0      -21.772930    1.547779   -0.360672
     86          6           0      -22.347297    2.191938    0.685835
     87          6           0      -21.839481    3.601049    0.824411
     88          6           0      -20.969962    3.733598   -0.489804
     89          6           0      -20.957128    2.321112   -1.032847
     90          6           0      -21.465507    4.808541   -1.486746
     91          6           0      -21.083784    3.913745    2.255680
     92          6           0      -21.458935    5.192595    3.019913
     93          1           0      -22.055854    6.366858    2.182243
     94          7           0      -20.213492   -0.540450   -1.745590
     95          6           0      -19.626302    0.552931   -2.298245
     96          6           0      -18.732164    0.231441   -3.383781
     97          6           0      -18.637268   -1.127290   -3.364066
     98          6           0      -19.803089   -1.563763   -2.534494
     99          6           0      -18.200127    1.388272   -4.209765
    100          6           0      -17.710127   -2.043523   -4.187197
    101          8           0      -17.740437   -3.251450   -4.145787
    102          6           0      -16.770440   -1.302138   -5.091585
    103          7           0      -22.114818   -2.676841   -0.793719
    104          6           0      -21.259938   -3.384943   -1.553544
    105          6           0      -21.608251   -4.876430   -1.523685
    106          6           0      -22.545405   -4.991081   -0.273738
    107          6           0      -22.881425   -3.501237   -0.057625
    108          6           0      -22.226157   -5.534332   -2.830240
    109          6           0      -21.896334   -5.577542    1.036184
    110          6           0      -20.697696   -4.954788    1.702283
    111          7           0      -23.201749   -0.838277    0.966536
    112          6           0      -24.073628   -1.870846    1.326777
    113          6           0      -25.069774   -1.420371    2.307156
    114          6           0      -24.810710   -0.046247    2.420756
    115          6           0      -23.676520    0.214014    1.588842
    116          6           0      -26.083039   -2.245514    3.058127
    117          6           0      -25.205579    1.146047    3.018876
    118          8           0      -26.122860    1.439657    3.769533
    119          6           0      -24.142190    2.214138    2.654265
    120          6           0      -24.975804    3.372792    2.259671
    121          8           0      -25.527860    3.517555    1.166280
    122          8           0      -25.159418    4.227722    3.307566
    123          6           0      -26.186807    5.269969    3.216445
    124          1           0      -19.334409    2.676232   -2.284968
    125          1           0      -19.764632   -3.692738   -2.879395
    126          1           0      -24.385981   -3.976520    1.177759
    127          1           0      -22.651157    4.316569    0.692376
    128          1           0      -19.938206    3.943111   -0.208354
    129          1           0      -21.976876    4.313948   -2.312475
    130          1           0      -20.598116    5.332875   -1.887784
    131          1           0      -22.147015    5.453636   -0.932089
    132          1           0      -20.023446    3.944944    2.004764
    133          1           0      -21.279424    3.116552    2.972137
    134          1           0      -20.567301    5.650358    3.447507
    135          1           0      -22.087845    4.940625    3.873693
    136          1           0      -18.958636    1.976235   -4.726785
    137          1           0      -17.619018    1.201528   -5.112640
    138          1           0      -17.606286    1.915757   -3.463272
    139          1           0      -16.168740   -0.593094   -4.523471
    140          1           0      -17.454423   -0.897345   -5.837228
    141          1           0      -15.985852   -1.857846   -5.603870
    142          1           0      -20.624021   -5.327145   -1.391324
    143          1           0      -23.466406   -5.491510   -0.573605
    144          1           0      -22.306517   -4.779825   -3.612406
    145          1           0      -23.262664   -5.824679   -2.662774
    146          1           0      -21.717825   -6.419001   -3.216745
    147          1           0      -21.677753   -6.587730    0.689055
    148          1           0      -22.610756   -5.641338    1.856316
    149          1           0      -20.286342   -4.176621    1.058038
    150          1           0      -19.909204   -5.694734    1.838781
    151          1           0      -20.879259   -4.437481    2.644159
    152          1           0      -27.099445   -2.078528    2.704330
    153          1           0      -26.022126   -2.023056    4.123581
    154          1           0      -25.821295   -3.266048    2.777540
    155          1           0      -23.452888    2.399827    3.478170
    156          1           0      -26.551189    5.576005    4.197804
    157          1           0      -26.955352    5.022550    2.485770
    158          1           0      -25.814826    6.184265    2.754430
 ---------------------------------------------------------------------

 SCF Done:  E(RPBE1PBE) =  -4067.37395152     A.U. after   16 cycles

 Excitation energies and oscillator strengths:

 Excited State   1:      Singlet-A      1.8295 eV  677.69 nm  f=0.0000  <S**2>=0.000
     312 -> 313        0.70711
 This state for optimization and/or second-order correction.
 Total Energy, E(TD-HF/TD-DFT) =  -4067.30671807
 Copying the excited state density for this state as the 1-particle RhoCI density.

 Excited State   2:      Singlet-A      1.8414 eV  673.31 nm  f=0.3726  <S**2>=0.000
     309 -> 315        0.16206
     311 -> 313        0.69321
     311 <- 313       -0.11105

 Excited State   3:      Singlet-A      1.8950 eV  654.25 nm  f=0.3658  <S**2>=0.000
     310 -> 316       -0.18692
     312 -> 314        0.68803

 Excited State   4:      Singlet-A      2.1896 eV  566.25 nm  f=0.0000  <S**2>=0.000
     311 -> 314        0.70711

 Excited State   5:      Singlet-A      2.1930 eV  565.37 nm  f=0.0922  <S**2>=0.000
     309 -> 313        0.65172
     311 -> 315       -0.24144

 The electronic state is 1-A.
 Alpha  occ. eigenvalues --  -46.91343 -46.91206 -19.26942 -19.24602 -19.19909
 Alpha  occ. eigenvalues --  -19.19323 -19.19026 -19.18626 -19.18432 -19.18075
 Alpha  occ. eigenvalues --  -14.41961 -14.41159 -14.40975 -14.40547 -14.39520
 Alpha  occ. eigenvalues --  -14.39067 -14.38475 -14.38272 -10.36125 -10.35306
 Alpha  occ. eigenvalues --  -10.32880 -10.32508 -10.31589 -10.30809 -10.29162
 Alpha  occ. eigenvalues --  -10.28925 -10.28651 -10.28299 -10.28274 -10.28235
 Alpha  occ. eigenvalues --  -10.28152 -10.28062 -10.28018 -10.27912 -10.27813
 Alpha  occ. eigenvalues --  -10.27561 -10.27500 -10.27274 -10.27052 -10.26913
 Alpha  occ. eigenvalues --  -10.26713 -10.26584 -10.26527 -10.26275 -10.26078
 Alpha  occ. eigenvalues --  -10.26036 -10.25922 -10.25916 -10.25721 -10.25681
 Alpha  occ. eigenvalues --  -10.25473 -10.25470 -10.25403 -10.25394 -10.25391
 Alpha  occ. eigenvalues --  -10.25365 -10.25289 -10.25270 -10.25258 -10.25227
 Alpha  occ. eigenvalues --  -10.25221 -10.25114 -10.25020 -10.24991 -10.24867
 Alpha  occ. eigenvalues --  -10.24793 -10.24299 -10.24066 -10.23960 -10.23810
 Alpha  occ. eigenvalues --  -10.23703 -10.23633 -10.23630 -10.23629 -10.23504
 Alpha  occ. eigenvalues --  -10.23467 -10.23449 -10.23292 -10.23116 -10.22928
 Alpha  occ. eigenvalues --  -10.22712 -10.22632 -10.22610 -10.22418 -10.22108
 Alpha  occ. eigenvalues --  -10.22002  -3.13770  -3.13524  -1.86577  -1.86346
 Alpha  occ. eigenvalues --   -1.86160  -1.86027  -1.85912  -1.85758  -1.11440
 Alpha  occ. eigenvalues --   -1.09645  -1.06058  -1.03902  -1.03384  -1.01853
 Alpha  occ. eigenvalues --   -1.01468  -1.00768  -1.00125  -0.99260  -0.99188
 Alpha  occ. eigenvalues --   -0.98824  -0.98384  -0.97915  -0.97767  -0.97104
 Alpha  occ. eigenvalues --   -0.86804  -0.86346  -0.83849  -0.83776  -0.83469
 Alpha  occ. eigenvalues --   -0.82676  -0.82607  -0.82259  -0.82231  -0.82219
 Alpha  occ. eigenvalues --   -0.81990  -0.81802  -0.81454  -0.81001  -0.79249
 Alpha  occ. eigenvalues --   -0.78620  -0.78240  -0.77882  -0.77172  -0.76889
 Alpha  occ. eigenvalues --   -0.76858  -0.76702  -0.75911  -0.75387  -0.74959
 Alpha  occ. eigenvalues --   -0.74811  -0.73196  -0.73120  -0.71841  -0.71561
 Alpha  occ. eigenvalues --   -0.71303  -0.71247  -0.70258  -0.70015  -0.69531
 Alpha  occ. eigenvalues --   -0.69241  -0.67257  -0.67138  -0.66104  -0.66100
 Alpha  occ. eigenvalues --   -0.64235  -0.63983  -0.63417  -0.63248  -0.62618
 Alpha  occ. eigenvalues --   -0.62135  -0.61645  -0.61570  -0.59822  -0.59723
 Alpha  occ. eigenvalues --   -0.59463  -0.59435  -0.59240  -0.59112  -0.58783
 Alpha  occ. eigenvalues --   -0.58325  -0.56892  -0.56340  -0.55527  -0.54960
 Alpha  occ. eigenvalues --   -0.54322  -0.53905  -0.53796  -0.53638  -0.53134
 Alpha  occ. eigenvalues --   -0.52562  -0.52364  -0.52121  -0.52112  -0.51818
 Alpha  occ. eigenvalues --   -0.50888  -0.50824  -0.50390  -0.50069  -0.49858
 Alpha  occ. eigenvalues --   -0.49851  -0.49613  -0.49162  -0.49096  -0.48712
 Alpha  occ. eigenvalues --   -0.48475  -0.48201  -0.47969  -0.47802  -0.47769
 Alpha  occ. eigenvalues --   -0.47570  -0.47291  -0.47118  -0.47027  -0.46994
 Alpha  occ. eigenvalues --   -0.46873  -0.46815  -0.46433  -0.46201  -0.46136
 Alpha  occ. eigenvalues --   -0.45875  -0.45810  -0.45232  -0.45098  -0.44965
 Alpha  occ. eigenvalues --   -0.44830  -0.44649  -0.44499  -0.44144  -0.43986
 Alpha  occ. eigenvalues --   -0.43916  -0.43879  -0.43724  -0.43717  -0.43396
 Alpha  occ. eigenvalues --   -0.43236  -0.43139  -0.43132  -0.43026  -0.42711
 Alpha  occ. eigenvalues --   -0.42648  -0.42376  -0.42353  -0.41965  -0.41840
 Alpha  occ. eigenvalues --   -0.41581  -0.41479  -0.41332  -0.41261  -0.41230
 Alpha  occ. eigenvalues --   -0.41087  -0.40891  -0.40571  -0.40512  -0.40240
 Alpha  occ. eigenvalues --   -0.40036  -0.39956  -0.39655  -0.39319  -0.39262
 Alpha  occ. eigenvalues --   -0.39238  -0.38916  -0.38863  -0.38854  -0.38760
 Alpha  occ. eigenvalues --   -0.38701  -0.38603  -0.38299  -0.38255  -0.38097
 Alpha  occ. eigenvalues --   -0.37922  -0.37875  -0.37736  -0.37669  -0.37508
 Alpha  occ. eigenvalues --   -0.37462  -0.37196  -0.37049  -0.36875  -0.36749
 Alpha  occ. eigenvalues --   -0.36580  -0.36409  -0.36385  -0.36075  -0.35978
 Alpha  occ. eigenvalues --   -0.35908  -0.35794  -0.35622  -0.35609  -0.35497
 Alpha  occ. eigenvalues --   -0.35403  -0.35027  -0.34472  -0.34351  -0.34141
 Alpha  occ. eigenvalues --   -0.33454  -0.33433  -0.33171  -0.32741  -0.32398
 Alpha  occ. eigenvalues --   -0.32272  -0.32058  -0.31723  -0.31490  -0.31364
 Alpha  occ. eigenvalues --   -0.31274  -0.30104  -0.29565  -0.29525  -0.28934
 Alpha  occ. eigenvalues --   -0.28715  -0.28432  -0.27854  -0.27666  -0.26737
 Alpha  occ. eigenvalues --   -0.26340  -0.26118  -0.26018  -0.25512  -0.25131
 Alpha  occ. eigenvalues --   -0.25107  -0.24969  -0.24845  -0.20993  -0.20658
 Alpha  occ. eigenvalues --   -0.18776  -0.18260
 Alpha virt. eigenvalues --   -0.11240  -0.10429  -0.05361  -0.05211  -0.04170
 Alpha virt. eigenvalues --   -0.03914  -0.02192  -0.01852  -0.00042   0.00336
 Alpha virt. eigenvalues --    0.00405   0.00433   0.00959   0.01677   0.02064

 Mulliken charges:
               1
     1  Mg  12.000000
     2  C    6.000000
     3  C    6.000000
     4  C    6.000000
     5  C    6.000000
     6  N    7.000000
     7  C    6.000000
     8  C    6.000000
     9  C    6.000000
    10  C    6.000000
    11  C    6.000000
    12  C    6.000000
    13  C    6.000000
    14  H    1.000000
    15  N    7.000000
    16  C    6.000000
    17  C    6.000000
    18  C    6.000000
    19  C    6.000000
    20  C    6.000000
    21  C    6.000000
    22  O    8.000000
    23  C    6.000000
    24  N    7.000000
    25  C    6.000000
    26  C    6.000000
    27  C    6.000000
    28  C    6.000000
    29  C    6.000000
    30  C    6.000000
    31  C    6.000000
    32  N    7.000000
    33  C    6.000000
    34  C    6.000000
    35  C    6.000000
    36  C    6.000000
    37  C    6.000000
    38  C    6.000000
    39  O    8.000000
    40  C    6.000000
    41  C    6.000000
    42  O    8.000000
    43  O    8.000000
    44  C    6.000000
    45  H    1.000000
    46  H    1.000000
    47  H    1.000000
    48  H    1.000000
    49  H    1.000000
    50  H    1.000000
    51  H    1.000000
    52  H    1.000000
    53  H    1.000000
    54  H    1.000000
    55  H    1.000000
    56  H    1.000000
    57  H    1.000000
    58  H    1.000000
    59  H    1.000000
    60  H    1.000000
    61  H    1.000000
    62  H    1.000000
    63  H    1.000000
    64  H    1.000000
    65  H    1.000000
    66  H    1.000000
    67  H    1.000000
    68  H    1.000000
    69  H    1.000000
    70  H    1.000000
    71  H    1.000000
    72  H    1.000000
    73  H    1.000000
    74  H    1.000000
    75  H    1.000000
    76  H    1.000000
    77  H    1.000000
    78  H    1.000000
    79  H    1.000000
    80  Mg  12.000000
    81  C    6.000000
    82  C    6.000000
    83  C    6.000000
    84  C    6.000000
    85  N    7.000000
    86  C    6.000000
    87  C    6.000000
    88  C    6.000000
    89  C    6.000000
    90  C    6.000000
    91  C    6.000000
    92  C    6.000000
    93  H    1.000000
    94  N    7.000000
    95  C    6.000000
    96  C    6.000000
    97  C    6.000000
    98  C    6.000000
    99  C    6.000000
   100  C    6.000000
   101  O    8.000000
   102  C    6.000000
   103  N    7.000000
   104  C    6.000000
   105  C    6.000000
   106  C    6.000000
   107  C    6.000000
   108  C    6.000000
   109  C    6.000000
   110  C    6.000000
   111  N    7.000000
   112  C    6.000000
   113  C    6.000000
   114  C    6.000000
   115  C    6.000000
   116  C    6.000000
   117  C    6.000000
   118  O    8.000000
   119  C    6.000000
   120  C    6.000000
   121  O    8.000000
   122  O    8.000000
   123  C    6.000000
   124  H    1.000000
   125  H    1.000000
   126  H    1.000000
   127  H    1.000000
   128  H    1.000000
   129  H    1.000000
   130  H    1.000000
   131  H    1.000000
   132  H    1.000000
   133  H    1.000000
   134  H    1.000000
   135  H    1.000000
   136  H    1.000000
   137  H    1.000000
   138  H    1.000000
   139  H    1.000000
   140  H    1.000000
   141  H    1.000000
   142  H    1.000000
   143  H    1.000000
   144  H    1.000000
   145  H    1.000000
   146  H    1.000000
   147  H    1.000000
   148  H    1.000000
   149  H    1.000000
   150  H    1.000000
   151  H    1.000000
   152  H    1.000000
   153  H    1.000000
   154  H    1.000000
   155  H    1.000000
   156  H    1.000000
   157  H    1.000000
   158  H    1.000000
 Sum of Mulliken charges = 624.00000

 Dipole moment (field-independent basis, Debye):
    X=             -0.0000    Y=             -0.0000    Z=              0.0000  Tot=              0.0000
 Quadrupole moment (field-independent basis, Debye-Ang):
   XX=              0.0000   YY=              0.0000   ZZ=             -0.0000
   XY=              0.0000   XZ=             -0.0000   YZ=             -0.0000

 Normal termination of Gaussian 16 at Thu Oct 14 13:47:43 2021.
