 Gaussian 16, Revision A.03,
 Gaussian 16:  ES64L-G16RevA.03 25-Dec-2016

 --------------------------------------------------------
 #p PBE1PBE/Def2SVP td=(nstates=5) density=(transition=1)
 --------------------------------------------------------

 --------------------------------
 TDDFT excited states in gaussian
 --------------------------------
 Symbolic Z-matrix:
 Charge =  0 Multiplicity = 1

                         Standard orientation:
 ---------------------------------------------------------------------
 Center     Atomic      Atomic             Coordinates (Angstroms)
 Number     Number       Type             X           Y           Z
 ---------------------------------------------------------------------
      1         12           0      -24.760467   -0.402422   -0.172652
      2          6           0      -23.470643    2.628281   -0.952338
      3          6           0      -25.086766    0.588665    3.140356
      4          6           0      -26.044751   -3.435996    0.608059
      5          6           0      -23.984870   -1.550317   -3.345006
      6          7           0      -24.419703    1.407886    0.847259
      7          6           0      -23.852092    2.545262    0.372303
      8          6           0      -23.922834    3.679923    1.360706
      9          6           0      -24.180156    2.946120    2.731410
     10          6           0      -24.624705    1.544957    2.197670
     11          6           0      -23.054207    2.914955    3.847667
     12          6           0      -25.128989    4.672047    1.037230
     13          6           0      -24.895319    6.101358    1.609336
     14          1           0      -24.019647    6.346740    2.849550
     15          7           0      -25.413937   -1.376766    1.647241
     16          6           0      -25.465677   -0.739004    2.914434
     17          6           0      -26.000288   -1.647617    3.883408
     18          6           0      -26.281571   -2.864722    3.166130
     19          6           0      -25.916224   -2.557515    1.737127
     20          6           0      -26.277050   -1.305227    5.305344
     21          6           0      -26.855596   -4.179563    3.681949
     22          8           0      -26.968783   -5.248609    3.013285
     23          6           0      -27.327792   -4.271461    5.123055
     24          7           0      -24.924146   -2.245521   -1.180267
     25          6           0      -25.674167   -3.326304   -0.713844
     26          6           0      -26.033107   -4.382761   -1.798431
     27          6           0      -25.354679   -3.655055   -3.089926
     28          6           0      -24.742757   -2.412826   -2.554096
     29          6           0      -25.396933   -5.726144   -1.418896
     30          6           0      -26.291638   -3.439784   -4.241747
     31          6           0      -25.808863   -4.046044   -5.528345
     32          7           0      -23.841719    0.227072   -1.782007
     33          6           0      -23.595836   -0.298357   -3.044440
     34          6           0      -22.928318    0.656428   -3.849271
     35          6           0      -22.793774    1.843994   -3.081003
     36          6           0      -23.455943    1.583980   -1.862618
     37          6           0      -22.469073    0.537948   -5.251759
     38          6           0      -22.198553    3.161675   -3.037841
     39          8           0      -21.500155    3.815410   -3.787728
     40          6           0      -22.714498    3.726248   -1.630153
     41          6           0      -21.671634    4.510336   -0.918230
     42          8           0      -20.508455    4.220429   -0.800838
     43          8           0      -22.130395    5.663420   -0.407205
     44          6           0      -21.107610    6.462840    0.325497
     45          1           0      -24.983874    0.936052    4.170620
     46          1           0      -26.334671   -4.446630    0.902764
     47          1           0      -23.809214   -1.794778   -4.394620
     48          1           0      -22.960431    4.172359    1.498928
     49          1           0      -25.079469    3.367450    3.179502
     50          1           0      -22.236511    3.545529    3.498401
     51          1           0      -22.654640    1.943971    4.135984
     52          1           0      -23.513178    3.298242    4.759203
     53          1           0      -26.003105    4.174663    1.457872
     54          1           0      -25.219550    4.724460   -0.047805
     55          1           0      -25.913402    6.439156    1.803852
     56          1           0      -24.567737    6.712836    0.768987
     57          1           0      -27.215886   -0.784528    5.494180
     58          1           0      -25.418276   -0.719552    5.630951
     59          1           0      -26.164935   -2.153131    5.980407
     60          1           0      -26.435650   -4.473231    5.715712
     61          1           0      -27.981879   -5.142736    5.146488
     62          1           0      -27.802296   -3.362948    5.494352
     63          1           0      -27.116627   -4.495495   -1.759427
     64          1           0      -24.556380   -4.296178   -3.465321
     65          1           0      -24.705298   -5.704747   -0.576447
     66          1           0      -24.987223   -6.187828   -2.316963
     67          1           0      -26.216133   -6.348163   -1.057039
     68          1           0      -26.430315   -2.388131   -4.492882
     69          1           0      -27.305758   -3.804510   -4.078050
     70          1           0      -26.569758   -4.640048   -6.033797
     71          1           0      -24.956275   -4.703942   -5.362027
     72          1           0      -25.418689   -3.197219   -6.090684
     73          1           0      -22.169627   -0.459372   -5.575287
     74          1           0      -21.488039    1.013404   -5.230656
     75          1           0      -23.211175    0.967872   -5.924563
     76          1           0      -23.434109    4.437062   -2.037400
     77          1           0      -20.439750    6.995334   -0.353130
     78          1           0      -20.604805    5.875599    1.094077
     79          1           0      -21.625813    7.237854    0.890758
     80         12           0       23.887450   -0.770816   -0.049616
     81          6           0       25.323714    2.349342   -0.607259
     82          6           0       22.511002    0.355563    2.811867
     83          6           0       22.921988   -3.939578    0.622923
     84          6           0       25.720190   -1.968049   -2.713727
     85          7           0       23.952793    1.186817    0.987092
     86          6           0       24.426845    2.361313    0.460417
     87          6           0       24.093605    3.497663    1.350568
     88          6           0       23.244961    2.923104    2.490766
     89          6           0       23.179946    1.379912    2.116237
     90          6           0       23.659134    3.198003    3.928056
     91          6           0       23.371271    4.708762    0.527420
     92          6           0       24.090411    6.077431    0.484505
     93          1           0       23.311331    7.364867    0.596062
     94          7           0       22.761654   -1.646574    1.430879
     95          6           0       22.280808   -1.012419    2.566606
     96          6           0       21.614675   -1.954152    3.390770
     97          6           0       21.721656   -3.231054    2.775891
     98          6           0       22.475621   -2.971775    1.545062
     99          6           0       20.838205   -1.422654    4.658463
    100          6           0       21.213523   -4.542516    3.372331
    101          8           0       21.374312   -5.667373    2.875083
    102          6           0       20.397158   -4.516352    4.589043
    103          7           0       24.433481   -2.764770   -0.746576
    104          6           0       23.828906   -3.883572   -0.404205
    105          6           0       24.439129   -5.092843   -1.148124
    106          6           0       24.896418   -4.325760   -2.450927
    107          6           0       25.009925   -2.887185   -1.956486
    108          6           0       25.642169   -5.895074   -0.527327
    109          6           0       23.942479   -4.439006   -3.734907
    110          6           0       22.552580   -3.964246   -3.613041
    111          7           0       25.338876   -0.035018   -1.452284
    112          6           0       26.007000   -0.658992   -2.524040
    113          6           0       26.851266    0.292579   -3.173273
    114          6           0       26.686061    1.454216   -2.445580
    115          6           0       25.665021    1.226662   -1.465630
    116          6           0       27.868405    0.005877   -4.166208
    117          6           0       26.958958    2.813958   -2.452412
    118          8           0       27.690174    3.502131   -3.171981
    119          6           0       26.187990    3.472596   -1.219216
    120          6           0       27.252750    3.854293   -0.244716
    121          8           0       28.094432    3.197665    0.331609
    122          8           0       27.142752    5.177670   -0.115718
    123          6           0       28.092550    5.825710    0.846997
    124          1           0       21.941872    0.886041    3.578083
    125          1           0       22.458903   -4.912424    0.796623
    126          1           0       26.242558   -2.346859   -3.594447
    127          1           0       25.055097    3.846409    1.725362
    128          1           0       22.222933    3.286786    2.386805
    129          1           0       24.224429    2.276942    4.065173
    130          1           0       22.844374    3.375219    4.630321
    131          1           0       24.333243    4.025438    4.147808
    132          1           0       22.362818    4.841893    0.917966
    133          1           0       23.287231    4.520536   -0.543207
    134          1           0       24.532433    6.150814   -0.509562
    135          1           0       24.945547    6.111741    1.158225
    136          1           0       21.166345   -1.993762    5.526738
    137          1           0       19.849650   -1.769002    4.356716
    138          1           0       20.990031   -0.387215    4.963446
    139          1           0       20.927961   -4.030088    5.406341
    140          1           0       20.391593   -5.542095    4.956957
    141          1           0       19.374083   -4.163564    4.456303
    142          1           0       23.621409   -5.715252   -1.511773
    143          1           0       25.844096   -4.800260   -2.704482
    144          1           0       26.402461   -5.296433   -0.027084
    145          1           0       26.035813   -6.426814   -1.394330
    146          1           0       25.286239   -6.612361    0.212683
    147          1           0       23.823034   -5.461360   -4.094390
    148          1           0       24.246917   -3.740353   -4.514150
    149          1           0       22.648942   -2.887528   -3.745448
    150          1           0       22.017170   -4.115297   -2.675199
    151          1           0       21.827440   -4.281472   -4.361748
    152          1           0       28.720359   -0.322970   -3.569922
    153          1           0       28.172375    0.850334   -4.784079
    154          1           0       27.546705   -0.711130   -4.922323
    155          1           0       25.523735    4.286899   -1.508855
    156          1           0       27.473507    6.070338    1.710447
    157          1           0       28.551653    6.696542    0.379593
    158          1           0       28.903473    5.212592    1.241183
 ---------------------------------------------------------------------

 SCF Done:  E(RPBE1PBE) =  -4067.35635976     A.U. after   17 cycles

 Excitation energies and oscillator strengths:

 Excited State   1:      Singlet-A      1.8022 eV  687.94 nm  f=0.3686  <S**2>=0.000
     309 -> 316       -0.16355
     312 -> 314        0.69743
     312 <- 314       -0.11962
 This state for optimization and/or second-order correction.
 Total Energy, E(TD-HF/TD-DFT) =  -4067.29012853
 Copying the excited state density for this state as the 1-particle RhoCI density.

 Excited State   2:      Singlet-A      1.8587 eV  667.04 nm  f=0.3497  <S**2>=0.000
     310 -> 315        0.16383
     311 -> 313        0.69252
     311 <- 313       -0.10764

 Excited State   3:      Singlet-A      1.9096 eV  649.27 nm  f=0.0000  <S**2>=0.000
     312 -> 313        0.70711

 Excited State   4:      Singlet-A      2.0084 eV  617.32 nm  f=0.0000  <S**2>=0.000
     311 -> 314        0.70711

 Excited State   5:      Singlet-A      2.1770 eV  569.52 nm  f=0.1424  <S**2>=0.000
     310 -> 313        0.66023
     311 -> 315       -0.23475

 The electronic state is 1-A.
 Alpha  occ. eigenvalues --  -46.92726 -46.90581 -19.25795 -19.25680 -19.19451
 Alpha  occ. eigenvalues --  -19.19298 -19.18996 -19.18897 -19.18739 -19.18465
 Alpha  occ. eigenvalues --  -14.42306 -14.41631 -14.41316 -14.41215 -14.39377
 Alpha  occ. eigenvalues --  -14.39150 -14.38607 -14.38511 -10.35601 -10.35597
 Alpha  occ. eigenvalues --  -10.32354 -10.32283 -10.32205 -10.31272 -10.29295
 Alpha  occ. eigenvalues --  -10.29205 -10.29133 -10.28928 -10.28905 -10.28687
 Alpha  occ. eigenvalues --  -10.28474 -10.28361 -10.28261 -10.28006 -10.27827
 Alpha  occ. eigenvalues --  -10.27747 -10.27575 -10.27508 -10.26887 -10.26791
 Alpha  occ. eigenvalues --  -10.26695 -10.26619 -10.26533 -10.26429 -10.26365
 Alpha  occ. eigenvalues --  -10.26346 -10.26342 -10.26101 -10.26021 -10.25884
 Alpha  occ. eigenvalues --  -10.25805 -10.25801 -10.25671 -10.25620 -10.25533
 Alpha  occ. eigenvalues --  -10.25505 -10.25500 -10.25481 -10.25379 -10.25373
 Alpha  occ. eigenvalues --  -10.25334 -10.25257 -10.25234 -10.25124 -10.25089
 Alpha  occ. eigenvalues --  -10.25014 -10.24903 -10.24584 -10.24324 -10.24004
 Alpha  occ. eigenvalues --  -10.23974 -10.23960 -10.23741 -10.23665 -10.23397
 Alpha  occ. eigenvalues --  -10.23369 -10.23288 -10.23242 -10.23121 -10.23019
 Alpha  occ. eigenvalues --  -10.23010 -10.23002 -10.22878 -10.22579 -10.22334
 Alpha  occ. eigenvalues --  -10.22113  -3.14720  -3.13010  -1.87563  -1.87072
 Alpha  occ. eigenvalues --   -1.86959  -1.85845  -1.85365  -1.85281  -1.12097
 Alpha  occ. eigenvalues --   -1.11774  -1.04891  -1.03849  -1.03291  -1.02166
 Alpha  occ. eigenvalues --   -1.02102  -1.02096  -1.00027  -0.99115  -0.98922
 Alpha  occ. eigenvalues --   -0.98251  -0.98052  -0.97365  -0.97310  -0.96062
 Alpha  occ. eigenvalues --   -0.87747  -0.86552  -0.84034  -0.83513  -0.83116
 Alpha  occ. eigenvalues --   -0.83035  -0.82850  -0.82688  -0.82261  -0.82039
 Alpha  occ. eigenvalues --   -0.81938  -0.81545  -0.81154  -0.80730  -0.78938
 Alpha  occ. eigenvalues --   -0.78674  -0.78533  -0.78095  -0.77361  -0.76773
 Alpha  occ. eigenvalues --   -0.76239  -0.75900  -0.75832  -0.75406  -0.75079
 Alpha  occ. eigenvalues --   -0.74770  -0.73076  -0.72620  -0.72124  -0.71971
 Alpha  occ. eigenvalues --   -0.71705  -0.71660  -0.70857  -0.70294  -0.69691
 Alpha  occ. eigenvalues --   -0.69606  -0.67917  -0.67355  -0.66309  -0.66138
 Alpha  occ. eigenvalues --   -0.63772  -0.63519  -0.63469  -0.63067  -0.62593
 Alpha  occ. eigenvalues --   -0.62161  -0.61571  -0.61125  -0.60291  -0.60267
 Alpha  occ. eigenvalues --   -0.59909  -0.59806  -0.59335  -0.59323  -0.58692
 Alpha  occ. eigenvalues --   -0.58484  -0.56915  -0.56616  -0.55005  -0.54893
 Alpha  occ. eigenvalues --   -0.54484  -0.54460  -0.53877  -0.53560  -0.53253
 Alpha  occ. eigenvalues --   -0.53015  -0.52818  -0.52553  -0.52372  -0.52327
 Alpha  occ. eigenvalues --   -0.51034  -0.50698  -0.50249  -0.50094  -0.49886
 Alpha  occ. eigenvalues --   -0.49758  -0.49617  -0.49595  -0.49344  -0.49188
 Alpha  occ. eigenvalues --   -0.48533  -0.47977  -0.47898  -0.47811  -0.47625
 Alpha  occ. eigenvalues --   -0.47491  -0.47444  -0.47277  -0.47109  -0.46911
 Alpha  occ. eigenvalues --   -0.46728  -0.46687  -0.46619  -0.46484  -0.45907
 Alpha  occ. eigenvalues --   -0.45846  -0.45756  -0.45681  -0.44996  -0.44983
 Alpha  occ. eigenvalues --   -0.44665  -0.44439  -0.44414  -0.44315  -0.44254
 Alpha  occ. eigenvalues --   -0.44117  -0.43826  -0.43600  -0.43593  -0.43482
 Alpha  occ. eigenvalues --   -0.43149  -0.43092  -0.42971  -0.42866  -0.42716
 Alpha  occ. eigenvalues --   -0.42706  -0.42391  -0.42017  -0.41973  -0.41846
 Alpha  occ. eigenvalues --   -0.41768  -0.41527  -0.41412  -0.41393  -0.41351
 Alpha  occ. eigenvalues --   -0.41065  -0.40973  -0.40748  -0.40694  -0.40522
 Alpha  occ. eigenvalues --   -0.40071  -0.39998  -0.39754  -0.39573  -0.39403
 Alpha  occ. eigenvalues --   -0.39375  -0.39132  -0.39001  -0.38878  -0.38847
 Alpha  occ. eigenvalues --   -0.38721  -0.38529  -0.38413  -0.38174  -0.38131
 Alpha  occ. eigenvalues --   -0.38040  -0.38009  -0.37755  -0.37293  -0.37255
 Alpha  occ. eigenvalues --   -0.37159  -0.37020  -0.36943  -0.36819  -0.36794
 Alpha  occ. eigenvalues --   -0.36711  -0.36427  -0.36288  -0.35946  -0.35929
 Alpha  occ. eigenvalues --   -0.35789  -0.35754  -0.35575  -0.35352  -0.35304
 Alpha  occ. eigenvalues --   -0.35281  -0.35091  -0.34978  -0.34369  -0.33874
 Alpha  occ. eigenvalues --   -0.33254  -0.33051  -0.33039  -0.33001  -0.32681
 Alpha  occ. eigenvalues --   -0.32667  -0.32254  -0.32065  -0.32034  -0.31614
 Alpha  occ. eigenvalues --   -0.31368  -0.31170  -0.29843  -0.29675  -0.29414
 Alpha  occ. eigenvalues --   -0.29194  -0.28978  -0.28440  -0.27103  -0.27016
 Alpha  occ. eigenvalues --   -0.26168  -0.25958  -0.25789  -0.25722  -0.25539
 Alpha  occ. eigenvalues --   -0.25450  -0.25232  -0.25211  -0.21213  -0.20964
 Alpha  occ. eigenvalues --   -0.19071  -0.18719
 Alpha virt. eigenvalues --   -0.11432  -0.11420  -0.05157  -0.05150  -0.04104
 Alpha virt. eigenvalues --   -0.03912  -0.02151  -0.02121  -0.00594   0.00099
 Alpha virt. eigenvalues --    0.00826   0.01040   0.01178   0.01233   0.01931

 Mulliken charges:
               1
     1  Mg  12.004236
     2  C    5.978535
     3  C    5.999561
     4  C    6.030841
     5  C    6.015610
     6  N    6.985575
     7  C    6.031613
     8  C    5.988289
     9  C    6.009589
    10  C    5.968544
    11  C    6.004415
    12  C    5.997392
    13  C    5.999941
    14  H    1.005874
    15  N    7.003432
    16  C    5.962015
    17  C    5.986349
    18  C    5.978705
    19  C    5.969986
    20  C    6.003553
    21  C    5.986411
    22  O    7.962572
    23  C    6.004858
    24  N    7.019870
    25  C    5.967233
    26  C    6.009313
    27  C    5.988482
    28  C    6.018018
    29  C    5.999803
    30  C    5.993704
    31  C    5.999721
    32  N    6.997449
    33  C    6.019365
    34  C    6.034903
    35  C    6.000649
    36  C    6.029128
    37  C    5.997069
    38  C    6.013886
    39  O    8.023519
    40  C    6.003619
    41  C    6.003193
    42  O    8.002183
    43  O    8.001941
    44  C    5.998557
    45  H    0.985342
    46  H    1.001365
    47  H    1.014840
    48  H    0.999186
    49  H    0.996502
    50  H    0.985144
    51  H    1.000535
    52  H    0.996769
    53  H    1.011066
    54  H    0.992815
    55  H    1.002245
    56  H    0.995666
    57  H    0.981827
    58  H    0.987238
    59  H    0.986269
    60  H    0.989934
    61  H    0.985690
    62  H    0.993081
    63  H    1.003688
    64  H    1.004140
    65  H    1.004926
    66  H    0.992577
    67  H    1.005139
    68  H    0.998247
    69  H    1.012425
    70  H    1.007129
    71  H    1.003897
    72  H    0.996008
    73  H    1.016581
    74  H    1.015400
    75  H    1.021209
    76  H    1.003512
    77  H    1.000416
    78  H    1.004974
    79  H    1.004717
    80  Mg  11.999998
    81  C    5.999959
    82  C    6.000008
    83  C    6.000042
    84  C    6.000001
    85  N    6.999988
    86  C    5.999994
    87  C    6.000024
    88  C    6.000000
    89  C    6.000042
    90  C    6.000000
    91  C    6.000008
    92  C    6.000009
    93  H    0.999973
    94  N    6.999987
    95  C    6.000051
    96  C    6.000018
    97  C    6.000066
    98  C    5.999985
    99  C    5.999993
   100  C    6.000034
   101  O    8.000058
   102  C    5.999969
   103  N    6.999986
   104  C    5.999963
   105  C    5.999994
   106  C    6.000008
   107  C    5.999954
   108  C    6.000000
   109  C    6.000015
   110  C    6.000007
   111  N    7.000008
   112  C    5.999927
   113  C    6.000006
   114  C    5.999990
   115  C    5.999988
   116  C    5.999987
   117  C    5.999963
   118  O    7.999939
   119  C    6.000015
   120  C    5.999990
   121  O    8.000009
   122  O    7.999990
   123  C    5.999999
   124  H    1.000039
   125  H    0.999996
   126  H    0.999957
   127  H    1.000015
   128  H    0.999992
   129  H    1.000009
   130  H    1.000008
   131  H    1.000035
   132  H    0.999970
   133  H    0.999986
   134  H    1.000001
   135  H    1.000020
   136  H    1.000064
   137  H    1.000017
   138  H    1.000038
   139  H    1.000032
   140  H    1.000054
   141  H    1.000006
   142  H    0.999990
   143  H    1.000005
   144  H    1.000026
   145  H    1.000016
   146  H    1.000009
   147  H    0.999979
   148  H    0.999996
   149  H    1.000002
   150  H    0.999972
   151  H    0.999961
   152  H    0.999977
   153  H    0.999959
   154  H    0.999954
   155  H    0.999970
   156  H    0.999992
   157  H    0.999995
   158  H    1.000011
 Sum of Mulliken charges = 624.00000

 Dipole moment (field-independent basis, Debye):
    X=              3.5661    Y=              2.9687    Z=             -9.2919  Tot=             10.3860
 Quadrupole moment (field-independent basis, Debye-Ang):
   XX=           -175.4330   YY=             -3.0331   ZZ=             -0.4826
   XY=            -75.1320   XZ=            230.0550   YZ=              8.2959

 Normal termination of Gaussian 16 at Fri Oct 15 01:11:40 2021.
