 Gaussian 16, Revision A.03,
 Gaussian 16:  ES64L-G16RevA.03 25-Dec-2016

 --------------------------------------------------------
 #p PBE1PBE/Def2SVP td=(nstates=5) density=(transition=1)
 --------------------------------------------------------

 --------------------------------
 TDDFT excited states in gaussian
 --------------------------------
 Symbolic Z-matrix:
 Charge =  0 Multiplicity = 1

                         Standard orientation:
 ---------------------------------------------------------------------
 Center     Atomic      Atomic             Coordinates (Angstroms)
 Number     Number       Type             X           Y           Z
 ---------------------------------------------------------------------
      1         12           0       20.489686    0.313229    0.341504
      2          6           0       18.450518   -1.928641   -1.359427
      3          6           0       21.951042    1.167915   -2.571133
      4          6           0       22.949098    1.869260    2.064638
      5          6           0       19.507635   -1.221155    3.380417
      6          7           0       20.107793   -0.290599   -1.663230
      7          6           0       19.141722   -1.096545   -2.225088
      8          6           0       19.301258   -1.141126   -3.769773
      9          6           0       20.746981   -0.581217   -3.941706
     10          6           0       20.917366    0.251434   -2.679562
     11          6           0       21.868196   -1.675107   -4.035942
     12          6           0       18.082347   -0.433719   -4.389795
     13          6           0       17.517466   -1.120058   -5.574784
     14          1           0       16.139679   -0.756375   -5.899676
     15          7           0       22.054274    1.537496   -0.209347
     16          6           0       22.447659    1.808273   -1.480731
     17          6           0       23.340396    2.939442   -1.449848
     18          6           0       23.636715    3.152694   -0.055268
     19          6           0       22.923113    2.097152    0.669491
     20          6           0       23.895824    3.585371   -2.668327
     21          6           0       24.630582    4.132712    0.649234
     22          8           0       24.756358    4.191584    1.874061
     23          6           0       25.390650    5.167463   -0.132530
     24          7           0       21.330693    0.033296    2.397668
     25          6           0       22.302293    0.951819    2.880679
     26          6           0       22.503491    0.881449    4.358302
     27          6           0       21.230770    0.049635    4.721901
     28          6           0       20.593401   -0.363277    3.397817
     29          6           0       23.864896    0.239899    4.792164
     30          6           0       20.189859    0.846641    5.590136
     31          6           0       19.775181    2.233734    5.036613
     32          7           0       19.170358   -1.171594    0.946450
     33          6           0       18.836546   -1.655009    2.221046
     34          6           0       17.848888   -2.649903    2.028846
     35          6           0       17.662778   -2.753955    0.655977
     36          6           0       18.486729   -1.855901    0.061730
     37          6           0       17.130138   -3.381197    3.117543
     38          6           0       17.000409   -3.488731   -0.316891
     39          8           0       16.194138   -4.427786   -0.186708
     40          6           0       17.433089   -3.018322   -1.738272
     41          6           0       16.097140   -2.527733   -2.378686
     42          8           0       15.459415   -1.517190   -2.033140
     43          8           0       15.752604   -3.418630   -3.389418
     44          6           0       14.385166   -3.316417   -3.991266
     45          1           0       22.405631    1.288381   -3.556753
     46          1           0       23.573949    2.388090    2.795568
     47          1           0       19.018613   -1.579058    4.288895
     48          1           0       19.204842   -2.164636   -4.130467
     49          1           0       20.766876    0.098144   -4.793350
     50          1           0       21.528984   -2.711245   -4.052375
     51          1           0       22.492009   -1.660900   -3.143124
     52          1           0       22.412571   -1.536558   -4.969827
     53          1           0       18.460341    0.512102   -4.775397
     54          1           0       17.340090   -0.303955   -3.601727
     55          1           0       17.501615   -2.179656   -5.319098
     56          1           0       18.208271   -0.994628   -6.408313
     57          1           0       23.302558    3.348038   -3.551190
     58          1           0       24.969296    3.395007   -2.693895
     59          1           0       23.800565    4.667224   -2.574829
     60          1           0       26.270076    5.373906    0.477887
     61          1           0       24.816643    6.090695   -0.214926
     62          1           0       25.722771    4.788346   -1.099500
     63          1           0       22.432121    1.847104    4.860780
     64          1           0       21.541528   -0.845245    5.262049
     65          1           0       24.250966   -0.360052    3.967640
     66          1           0       23.843128   -0.416557    5.662188
     67          1           0       24.661490    0.938756    5.049004
     68          1           0       20.612135    0.886959    6.594352
     69          1           0       19.349320    0.157031    5.667068
     70          1           0       18.703684    2.308120    4.849902
     71          1           0       20.343924    2.385438    4.118793
     72          1           0       20.020419    3.048335    5.717413
     73          1           0       17.298349   -4.440120    2.921564
     74          1           0       16.081322   -3.087191    3.077237
     75          1           0       17.512194   -3.215621    4.124951
     76          1           0       17.789812   -3.888180   -2.289172
     77          1           0       13.683570   -3.477208   -3.173039
     78          1           0       14.128433   -4.014148   -4.788300
     79          1           0       14.465171   -2.279825   -4.318764
     80         12           0      -20.302068   -0.553800   -0.316703
     81          6           0      -19.978876    2.850176    0.089224
     82          6           0      -16.896479   -0.796414   -0.402667
     83          6           0      -20.650960   -3.720316    0.557462
     84          6           0      -23.783481   -0.124659   -0.164769
     85          7           0      -18.672782    0.869973    0.302452
     86          6           0      -18.762142    2.219420    0.179893
     87          6           0      -17.423282    2.895223    0.213957
     88          6           0      -16.531327    1.750021   -0.365676
     89          6           0      -17.436328    0.535289   -0.222513
     90          6           0      -16.029057    2.039749   -1.809210
     91          6           0      -16.977765    3.289808    1.710540
     92          6           0      -16.144081    4.647749    1.842680
     93          1           0      -14.799048    4.310781    2.437137
     94          7           0      -18.952680   -2.086896   -0.168329
     95          6           0      -17.603020   -2.030482   -0.140168
     96          6           0      -17.036604   -3.355064    0.080842
     97          6           0      -18.121749   -4.220689    0.328592
     98          6           0      -19.316560   -3.334204    0.248288
     99          6           0      -15.505171   -3.580723    0.088724
    100          6           0      -17.944783   -5.636749    0.801185
    101          8           0      -16.836250   -6.094453    0.900702
    102          6           0      -19.095373   -6.567522    1.229436
    103          7           0      -21.996332   -1.842513    0.020139
    104          6           0      -21.863490   -3.045038    0.366692
    105          6           0      -23.143204   -3.698390    0.737864
    106          6           0      -24.195408   -2.545801    0.496293
    107          6           0      -23.312656   -1.443162    0.100463
    108          6           0      -23.361324   -5.035347   -0.048132
    109          6           0      -25.038560   -2.215969    1.813858
    110          6           0      -26.391875   -1.440775    1.632383
    111          7           0      -21.657085    0.995994   -0.170256
    112          6           0      -23.038809    1.016594   -0.227907
    113          6           0      -23.522091    2.367993   -0.292100
    114          6           0      -22.318376    3.152906   -0.219202
    115          6           0      -21.258404    2.284602   -0.042810
    116          6           0      -24.938440    2.831361   -0.408702
    117          6           0      -21.824152    4.486132   -0.249375
    118          8           0      -22.337863    5.608853   -0.336856
    119          6           0      -20.314889    4.357993    0.142705
    120          6           0      -19.556039    5.243515   -0.788519
    121          8           0      -19.235566    6.415693   -0.546635
    122          8           0      -19.320951    4.585381   -1.964063
    123          6           0      -18.606066    5.501159   -2.896883
    124          1           0      -15.833691   -0.977101   -0.578864
    125          1           0      -20.729804   -4.753001    0.901972
    126          1           0      -24.853626    0.000875    0.016898
    127          1           0      -17.523654    3.710133   -0.501833
    128          1           0      -15.623607    1.670135    0.232685
    129          1           0      -14.942861    2.125677   -1.801467
    130          1           0      -16.406549    3.024348   -2.087125
    131          1           0      -16.431991    1.262378   -2.457639
    132          1           0      -16.472579    2.512839    2.284106
    133          1           0      -17.855580    3.433271    2.339766
    134          1           0      -16.696953    5.225518    2.583518
    135          1           0      -16.052007    5.312629    0.983792
    136          1           0      -15.106520   -3.994497    1.014916
    137          1           0      -14.923940   -2.695477   -0.171748
    138          1           0      -15.284903   -4.258000   -0.735758
    139          1           0      -19.779327   -6.808681    0.416367
    140          1           0      -19.663219   -6.198242    2.083788
    141          1           0      -18.596231   -7.430495    1.671211
    142          1           0      -23.029220   -3.877255    1.806947
    143          1           0      -24.883087   -2.638634   -0.343949
    144          1           0      -23.459712   -5.825204    0.696225
    145          1           0      -22.540494   -5.242607   -0.734940
    146          1           0      -24.340216   -5.120932   -0.519623
    147          1           0      -24.433932   -1.630689    2.506981
    148          1           0      -25.230113   -3.182408    2.277822
    149          1           0      -27.337871   -1.876808    1.952253
    150          1           0      -26.582349   -1.247571    0.577573
    151          1           0      -26.341146   -0.473678    2.132660
    152          1           0      -25.688525    2.066316   -0.608192
    153          1           0      -24.821815    3.537546   -1.229786
    154          1           0      -25.029170    3.384836    0.526018
    155          1           0      -20.096538    4.619812    1.178570
    156          1           0      -19.284891    6.290625   -3.217862
    157          1           0      -18.377939    5.033287   -3.854590
    158          1           0      -17.707116    5.851290   -2.389110
 ---------------------------------------------------------------------

 SCF Done:  E(RPBE1PBE) =  -4067.37024063     A.U. after   17 cycles

 Excitation energies and oscillator strengths:

 Excited State   1:      Singlet-A      1.7987 eV  689.30 nm  f=0.3473  <S**2>=0.000
     310 -> 315        0.16130
     312 -> 314        0.69457
     312 <- 314       -0.10909
 This state for optimization and/or second-order correction.
 Total Energy, E(TD-HF/TD-DFT) =  -4067.30413988
 Copying the excited state density for this state as the 1-particle RhoCI density.

 Excited State   2:      Singlet-A      1.8237 eV  679.85 nm  f=0.3618  <S**2>=0.000
     309 -> 316        0.15441
     311 -> 313        0.69657
     311 <- 313       -0.11761

 Excited State   3:      Singlet-A      1.9022 eV  651.79 nm  f=0.0000  <S**2>=0.000
     312 -> 313        0.70710

 Excited State   4:      Singlet-A      1.9623 eV  631.83 nm  f=0.0000  <S**2>=0.000
     311 -> 314        0.70711

 Excited State   5:      Singlet-A      2.1990 eV  563.83 nm  f=0.1034  <S**2>=0.000
     310 -> 314        0.65388
     312 -> 315       -0.25106

 The electronic state is 1-A.
 Alpha  occ. eigenvalues --  -46.92561 -46.91710 -19.26276 -19.25402 -19.20225
 Alpha  occ. eigenvalues --  -19.19420 -19.19389 -19.18988 -19.18442 -19.17859
 Alpha  occ. eigenvalues --  -14.41546 -14.41484 -14.41442 -14.40923 -14.39716
 Alpha  occ. eigenvalues --  -14.39024 -14.38423 -14.38155 -10.37067 -10.35812
 Alpha  occ. eigenvalues --  -10.32585 -10.32464 -10.31461 -10.30731 -10.29742
 Alpha  occ. eigenvalues --  -10.29170 -10.28993 -10.28987 -10.28661 -10.28368
 Alpha  occ. eigenvalues --  -10.28285 -10.28166 -10.28129 -10.28087 -10.28003
 Alpha  occ. eigenvalues --  -10.27860 -10.27858 -10.26952 -10.26943 -10.26600
 Alpha  occ. eigenvalues --  -10.26494 -10.26331 -10.26136 -10.26134 -10.26123
 Alpha  occ. eigenvalues --  -10.26073 -10.26007 -10.25933 -10.25901 -10.25767
 Alpha  occ. eigenvalues --  -10.25714 -10.25634 -10.25509 -10.25393 -10.25391
 Alpha  occ. eigenvalues --  -10.25332 -10.25327 -10.25312 -10.25199 -10.25112
 Alpha  occ. eigenvalues --  -10.25060 -10.24996 -10.24983 -10.24841 -10.24600
 Alpha  occ. eigenvalues --  -10.24596 -10.24477 -10.24402 -10.24324 -10.24271
 Alpha  occ. eigenvalues --  -10.24187 -10.24016 -10.23902 -10.23894 -10.23814
 Alpha  occ. eigenvalues --  -10.23738 -10.23737 -10.23594 -10.23589 -10.23354
 Alpha  occ. eigenvalues --  -10.23296 -10.23232 -10.23094 -10.22974 -10.22531
 Alpha  occ. eigenvalues --  -10.21387  -3.14713  -3.13884  -1.87540  -1.87102
 Alpha  occ. eigenvalues --   -1.86928  -1.86704  -1.86261  -1.86109  -1.10794
 Alpha  occ. eigenvalues --   -1.09143  -1.06388  -1.04227  -1.03098  -1.02614
 Alpha  occ. eigenvalues --   -1.01655  -1.01441  -1.01352  -0.99441  -0.99048
 Alpha  occ. eigenvalues --   -0.98594  -0.98512  -0.98161  -0.97672  -0.96850
 Alpha  occ. eigenvalues --   -0.87048  -0.86884  -0.84077  -0.83458  -0.83307
 Alpha  occ. eigenvalues --   -0.82913  -0.82889  -0.82503  -0.82110  -0.81617
 Alpha  occ. eigenvalues --   -0.81431  -0.81177  -0.80841  -0.80775  -0.78882
 Alpha  occ. eigenvalues --   -0.78491  -0.78176  -0.77793  -0.76516  -0.76459
 Alpha  occ. eigenvalues --   -0.75847  -0.75793  -0.75249  -0.75151  -0.74718
 Alpha  occ. eigenvalues --   -0.74681  -0.72803  -0.72549  -0.71938  -0.71363
 Alpha  occ. eigenvalues --   -0.71211  -0.71079  -0.70332  -0.70329  -0.69821
 Alpha  occ. eigenvalues --   -0.69764  -0.67673  -0.67194  -0.66602  -0.66468
 Alpha  occ. eigenvalues --   -0.64880  -0.64129  -0.63622  -0.63184  -0.62564
 Alpha  occ. eigenvalues --   -0.62013  -0.61976  -0.61325  -0.60935  -0.59849
 Alpha  occ. eigenvalues --   -0.59771  -0.59416  -0.59076  -0.59033  -0.59021
 Alpha  occ. eigenvalues --   -0.58555  -0.57052  -0.56154  -0.54910  -0.54452
 Alpha  occ. eigenvalues --   -0.54306  -0.54198  -0.53758  -0.53714  -0.53368
 Alpha  occ. eigenvalues --   -0.53102  -0.52559  -0.52165  -0.51418  -0.51349
 Alpha  occ. eigenvalues --   -0.51266  -0.50758  -0.50555  -0.50278  -0.50138
 Alpha  occ. eigenvalues --   -0.49870  -0.49519  -0.49455  -0.49300  -0.48807
 Alpha  occ. eigenvalues --   -0.48256  -0.48058  -0.47643  -0.47546  -0.47523
 Alpha  occ. eigenvalues --   -0.47425  -0.47131  -0.47014  -0.46778  -0.46484
 Alpha  occ. eigenvalues --   -0.46438  -0.46269  -0.46109  -0.46023  -0.45906
 Alpha  occ. eigenvalues --   -0.45765  -0.45350  -0.45053  -0.44936  -0.44782
 Alpha  occ. eigenvalues --   -0.44742  -0.44487  -0.44131  -0.44113  -0.44030
 Alpha  occ. eigenvalues --   -0.43860  -0.43826  -0.43623  -0.43588  -0.43363
 Alpha  occ. eigenvalues --   -0.43294  -0.43177  -0.42949  -0.42733  -0.42650
 Alpha  occ. eigenvalues --   -0.42411  -0.42349  -0.42331  -0.42056  -0.41999
 Alpha  occ. eigenvalues --   -0.41668  -0.41564  -0.41410  -0.41322  -0.41040
 Alpha  occ. eigenvalues --   -0.41025  -0.41003  -0.40696  -0.40641  -0.40532
 Alpha  occ. eigenvalues --   -0.40510  -0.40261  -0.40041  -0.39762  -0.39458
 Alpha  occ. eigenvalues --   -0.39372  -0.39196  -0.39157  -0.39102  -0.38938
 Alpha  occ. eigenvalues --   -0.38897  -0.38687  -0.38520  -0.38306  -0.38302
 Alpha  occ. eigenvalues --   -0.38218  -0.38017  -0.37966  -0.37841  -0.37582
 Alpha  occ. eigenvalues --   -0.37541  -0.37440  -0.37105  -0.37026  -0.36886
 Alpha  occ. eigenvalues --   -0.36783  -0.36777  -0.36536  -0.36376  -0.36225
 Alpha  occ. eigenvalues --   -0.36104  -0.35965  -0.35756  -0.35731  -0.35483
 Alpha  occ. eigenvalues --   -0.35099  -0.34956  -0.34873  -0.34584  -0.33997
 Alpha  occ. eigenvalues --   -0.33605  -0.33223  -0.33200  -0.33022  -0.32653
 Alpha  occ. eigenvalues --   -0.32391  -0.31911  -0.31895  -0.31790  -0.31621
 Alpha  occ. eigenvalues --   -0.31482  -0.30994  -0.30179  -0.29295  -0.29101
 Alpha  occ. eigenvalues --   -0.29065  -0.28708  -0.28365  -0.26988  -0.26823
 Alpha  occ. eigenvalues --   -0.26265  -0.26084  -0.25649  -0.25324  -0.25311
 Alpha  occ. eigenvalues --   -0.25023  -0.24793  -0.24728  -0.21159  -0.21019
 Alpha  occ. eigenvalues --   -0.18837  -0.18733
 Alpha virt. eigenvalues --   -0.11421  -0.11301  -0.05313  -0.05127  -0.03973
 Alpha virt. eigenvalues --   -0.03661  -0.02253  -0.02014  -0.00788  -0.00500
 Alpha virt. eigenvalues --    0.00262   0.00384   0.00734   0.01212   0.02328

 Mulliken charges:
               1
     1  Mg  11.999926
     2  C    6.000588
     3  C    5.999929
     4  C    5.999235
     5  C    5.999541
     6  N    7.000537
     7  C    5.999125
     8  C    6.000074
     9  C    5.999822
    10  C    6.000583
    11  C    5.999907
    12  C    6.000149
    13  C    6.000020
    14  H    0.999951
    15  N    6.999827
    16  C    6.000897
    17  C    6.000577
    18  C    6.000288
    19  C    6.001002
    20  C    5.999944
    21  C    6.000364
    22  O    8.000799
    23  C    5.999876
    24  N    6.999561
    25  C    6.001110
    26  C    5.999573
    27  C    6.000202
    28  C    5.999585
    29  C    6.000006
    30  C    6.000204
    31  C    6.000139
    32  N    7.000072
    33  C    5.999351
    34  C    5.999173
    35  C    6.000043
    36  C    5.999256
    37  C    6.000032
    38  C    5.999555
    39  O    7.999115
    40  C    5.999875
    41  C    5.999928
    42  O    7.999869
    43  O    7.999954
    44  C    6.000029
    45  H    1.000414
    46  H    1.000153
    47  H    0.999547
    48  H    1.000022
    49  H    1.000058
    50  H    1.000404
    51  H    1.000009
    52  H    1.000125
    53  H    0.999726
    54  H    1.000115
    55  H    1.000066
    56  H    0.999897
    57  H    1.000376
    58  H    1.000533
    59  H    1.000504
    60  H    1.000396
    61  H    1.000317
    62  H    1.000129
    63  H    1.000058
    64  H    0.999923
    65  H    0.999998
    66  H    1.000257
    67  H    0.999961
    68  H    0.999769
    69  H    1.000124
    70  H    1.000031
    71  H    0.999670
    72  H    0.999862
    73  H    0.999504
    74  H    0.999421
    75  H    0.999587
    76  H    0.999773
    77  H    0.999928
    78  H    0.999835
    79  H    0.999915
    80  Mg  12.000603
    81  C    6.013019
    82  C    5.992554
    83  C    5.984792
    84  C    6.003220
    85  N    7.008286
    86  C    5.966046
    87  C    6.010339
    88  C    5.986265
    89  C    6.031908
    90  C    5.996976
    91  C    5.998922
    92  C    6.002185
    93  H    0.991139
    94  N    6.995381
    95  C    6.035529
    96  C    6.022323
    97  C    6.013297
    98  C    6.029383
    99  C    5.996223
   100  C    6.009217
   101  O    8.018984
   102  C    5.998411
   103  N    7.000581
   104  C    6.029125
   105  C    5.991709
   106  C    6.010084
   107  C    5.965751
   108  C    5.997332
   109  C    6.006309
   110  C    6.001352
   111  N    6.999722
   112  C    5.973196
   113  C    5.968535
   114  C    6.000200
   115  C    5.975424
   116  C    5.999129
   117  C    5.984223
   118  O    7.971036
   119  C    6.001345
   120  C    5.996040
   121  O    7.993142
   122  O    8.000916
   123  C    6.000826
   124  H    1.010296
   125  H    1.006215
   126  H    0.991680
   127  H    1.002850
   128  H    1.005149
   129  H    1.003420
   130  H    1.015006
   131  H    0.999581
   132  H    0.989362
   133  H    1.004957
   134  H    1.002062
   135  H    1.000456
   136  H    1.017253
   137  H    1.017205
   138  H    1.016898
   139  H    1.010572
   140  H    1.010991
   141  H    1.010751
   142  H    0.998027
   143  H    0.998383
   144  H    0.999991
   145  H    0.994147
   146  H    1.008781
   147  H    0.997221
   148  H    0.988157
   149  H    0.994285
   150  H    1.001501
   151  H    1.003525
   152  H    0.982778
   153  H    0.984966
   154  H    0.982956
   155  H    0.991693
   156  H    1.000054
   157  H    0.993715
   158  H    0.994140
 Sum of Mulliken charges = 624.00000

 Dipole moment (field-independent basis, Debye):
    X=              6.9000    Y=             -7.3605    Z=              0.1863  Tot=             10.0907
 Quadrupole moment (field-independent basis, Debye-Ang):
   XX=           -263.6156   YY=              5.8610   ZZ=             -0.5145
   XY=            151.5838   XZ=             -8.3173   YZ=             -0.6879

 Normal termination of Gaussian 16 at Thu Oct 14 16:46:27 2021.
