 Gaussian 16, Revision A.03,
 Gaussian 16:  ES64L-G16RevA.03 25-Dec-2016

 --------------------------------------------------------
 #p PBE1PBE/Def2SVP td=(nstates=5) density=(transition=1)
 --------------------------------------------------------

 --------------------------------
 TDDFT excited states in gaussian
 --------------------------------
 Symbolic Z-matrix:
 Charge =  0 Multiplicity = 1

                         Standard orientation:
 ---------------------------------------------------------------------
 Center     Atomic      Atomic             Coordinates (Angstroms)
 Number     Number       Type             X           Y           Z
 ---------------------------------------------------------------------
      1         12           0      -26.733741   -0.505099   -0.062936
      2          6           0      -25.030254    2.390923   -0.932169
      3          6           0      -28.104859    1.076276    2.581570
      4          6           0      -28.181704   -3.404601    0.774423
      5          6           0      -25.135579   -2.102531   -2.738018
      6          7           0      -26.556526    1.550337    0.664567
      7          6           0      -25.913501    2.565242    0.138511
      8          6           0      -26.223109    3.849350    1.037777
      9          6           0      -26.469602    3.135790    2.350229
     10          6           0      -27.140817    1.815063    1.855784
     11          6           0      -25.146857    2.978259    3.130766
     12          6           0      -27.340100    4.753153    0.359006
     13          6           0      -27.377493    6.201554    0.856103
     14          1           0      -26.551722    6.579131    2.073774
     15          7           0      -28.092590   -1.033614    1.339830
     16          6           0      -28.603116   -0.184880    2.319191
     17          6           0      -29.726245   -0.901887    2.994202
     18          6           0      -29.722375   -2.278300    2.508410
     19          6           0      -28.575197   -2.259906    1.562327
     20          6           0      -30.605440   -0.249676    4.034810
     21          6           0      -30.690332   -3.511197    2.820332
     22          8           0      -30.601202   -4.610908    2.263936
     23          6           0      -31.776858   -3.272425    3.847978
     24          7           0      -26.588226   -2.443561   -0.772191
     25          6           0      -27.261894   -3.472534   -0.265113
     26          6           0      -26.887530   -4.830105   -0.936055
     27          6           0      -26.129202   -4.319104   -2.169486
     28          6           0      -25.971961   -2.849121   -1.937728
     29          6           0      -26.071979   -5.797464   -0.033401
     30          6           0      -26.647170   -4.753722   -3.612277
     31          6           0      -27.401249   -3.739156   -4.407424
     32          7           0      -25.210042   -0.071862   -1.426663
     33          6           0      -24.716488   -0.771386   -2.475941
     34          6           0      -23.735384   -0.057137   -3.212297
     35          6           0      -23.818536    1.247935   -2.632665
     36          6           0      -24.717770    1.131523   -1.597413
     37          6           0      -22.791970   -0.420294   -4.329572
     38          6           0      -23.360733    2.605108   -2.662734
     39          8           0      -22.558725    3.175096   -3.370676
     40          6           0      -24.220922    3.460556   -1.678788
     41          6           0      -23.338653    4.252727   -0.816704
     42          8           0      -22.534221    3.739110   -0.054166
     43          8           0      -23.377121    5.645622   -1.081551
     44          6           0      -22.424124    6.473116   -0.325334
     45          1           0      -28.474667    1.603342    3.462291
     46          1           0      -28.635637   -4.342237    1.099554
     47          1           0      -24.619679   -2.646801   -3.531354
     48          1           0      -25.349565    4.499360    1.064116
     49          1           0      -27.219765    3.607425    2.984493
     50          1           0      -25.311537    3.627659    3.991229
     51          1           0      -24.275527    3.308491    2.563697
     52          1           0      -25.134323    1.949653    3.490521
     53          1           0      -28.327433    4.327653    0.540725
     54          1           0      -27.060298    4.798077   -0.693771
     55          1           0      -28.424006    6.435781    1.048726
     56          1           0      -27.073442    6.828241    0.018059
     57          1           0      -30.749675    0.811084    3.826508
     58          1           0      -30.294567   -0.339581    5.075158
     59          1           0      -31.602992   -0.682268    3.959752
     60          1           0      -31.232232   -2.871184    4.702337
     61          1           0      -32.278157   -4.174663    4.197160
     62          1           0      -32.538161   -2.611280    3.433637
     63          1           0      -27.777277   -5.385150   -1.232936
     64          1           0      -25.099603   -4.646109   -2.028913
     65          1           0      -25.296692   -6.203146   -0.683821
     66          1           0      -26.621654   -6.603190    0.450711
     67          1           0      -25.673497   -5.217204    0.798875
     68          1           0      -27.193342   -5.691759   -3.512193
     69          1           0      -25.785950   -4.941159   -4.253174
     70          1           0      -26.777708   -3.465365   -5.258833
     71          1           0      -27.516759   -2.756488   -3.948464
     72          1           0      -28.345255   -4.096431   -4.819040
     73          1           0      -22.826080   -1.482577   -4.573985
     74          1           0      -21.797399   -0.043824   -4.088648
     75          1           0      -23.027914   -0.018726   -5.315288
     76          1           0      -24.885643    4.141687   -2.209454
     77          1           0      -22.580943    7.548376   -0.407298
     78          1           0      -21.461976    6.192423   -0.754662
     79          1           0      -22.463963    6.096079    0.695926
     80         12           0       26.043697   -0.830353    0.294436
     81          6           0       27.215155    2.512218   -0.456085
     82          6           0       25.609698    0.228146    3.315795
     83          6           0       25.277511   -3.990093    0.834383
     84          6           0       27.355950   -1.998029   -2.887414
     85          7           0       26.277417    1.235635    1.271604
     86          6           0       26.762488    2.449629    0.831408
     87          6           0       26.762141    3.438957    1.940508
     88          6           0       26.712405    2.555928    3.213854
     89          6           0       26.209649    1.235095    2.584862
     90          6           0       28.079869    2.351694    3.902059
     91          6           0       25.469526    4.307851    1.869098
     92          6           0       25.652259    5.858861    2.094009
     93          1           0       24.542964    6.866702    1.592266
     94          7           0       25.443038   -1.754316    1.954405
     95          6           0       25.206326   -1.155640    3.091174
     96          6           0       24.632941   -2.127160    4.003347
     97          6           0       24.442209   -3.282582    3.209428
     98          6           0       25.091327   -3.035526    1.950515
     99          6           0       24.209157   -1.722401    5.426928
    100          6           0       23.754153   -4.550726    3.631796
    101          8           0       23.682186   -5.475096    2.878320
    102          6           0       23.075229   -4.603802    4.961505
    103          7           0       26.574168   -2.802601   -0.829645
    104          6           0       25.949055   -3.886667   -0.375038
    105          6           0       25.947067   -4.987324   -1.368340
    106          6           0       26.817224   -4.356199   -2.500997
    107          6           0       26.962684   -2.917926   -2.079174
    108          6           0       26.382374   -6.416930   -0.883588
    109          6           0       26.143751   -4.555668   -3.914696
    110          6           0       26.730728   -5.597355   -4.907562
    111          7           0       27.032210   -0.041922   -1.301939
    112          6           0       27.441511   -0.562348   -2.550009
    113          6           0       28.014489    0.524392   -3.370830
    114          6           0       27.914666    1.675721   -2.601213
    115          6           0       27.379267    1.323337   -1.373910
    116          6           0       28.720341    0.334723   -4.735339
    117          6           0       28.216732    3.142703   -2.642324
    118          8           0       28.658793    3.883652   -3.488338
    119          6           0       27.929148    3.722611   -1.167962
    120          6           0       27.233702    4.956161   -1.213989
    121          8           0       25.997104    5.016148   -1.166340
    122          8           0       28.004325    6.105519   -1.359303
    123          6           0       27.347426    7.440732   -1.213859
    124          1           0       25.375111    0.465210    4.355016
    125          1           0       24.964640   -5.024670    0.989382
    126          1           0       27.746298   -2.330835   -3.850391
    127          1           0       27.714490    3.969253    1.965071
    128          1           0       26.055940    2.894488    4.015199
    129          1           0       28.055285    2.736413    4.922045
    130          1           0       28.814910    2.899556    3.313162
    131          1           0       28.427386    1.318474    3.926125
    132          1           0       24.832140    3.918783    2.663329
    133          1           0       25.009625    4.075370    0.908820
    134          1           0       26.616873    6.140025    1.672307
    135          1           0       25.714471    5.924898    3.180880
    136          1           0       23.124203   -1.808255    5.499652
    137          1           0       24.542855   -0.741557    5.763848
    138          1           0       24.537174   -2.474879    6.143492
    139          1           0       22.259219   -3.886117    5.041945
    140          1           0       23.668900   -4.313686    5.828318
    141          1           0       22.611602   -5.583736    5.077715
    142          1           0       24.928669   -5.088039   -1.743626
    143          1           0       27.827858   -4.761301   -2.445484
    144          1           0       26.509650   -6.345595    0.196103
    145          1           0       27.231217   -6.880115   -1.387841
    146          1           0       25.576183   -7.114822   -1.110279
    147          1           0       26.181771   -3.611681   -4.459018
    148          1           0       25.075598   -4.605804   -3.703459
    149          1           0       25.925729   -6.193830   -5.336547
    150          1           0       27.452231   -6.227851   -4.387658
    151          1           0       27.229870   -5.097491   -5.738545
    152          1           0       28.237471   -0.499217   -5.243959
    153          1           0       29.746579    0.009455   -4.563069
    154          1           0       28.678715    1.235778   -5.347715
    155          1           0       28.889736    3.871913   -0.675807
    156          1           0       26.948404    7.574174   -0.207343
    157          1           0       26.700206    7.662724   -2.061495
    158          1           0       28.151402    8.175364   -1.170537
 ---------------------------------------------------------------------

 SCF Done:  E(RPBE1PBE) =  -4067.35520429     A.U. after   16 cycles

 Excitation energies and oscillator strengths:

 Excited State   1:      Singlet-A      1.8723 eV  662.22 nm  f=0.3780  <S**2>=0.000
     309 -> 315       -0.17571
     312 -> 314        0.69312
     312 <- 314       -0.10656
 This state for optimization and/or second-order correction.
 Total Energy, E(TD-HF/TD-DFT) =  -4067.28640002
 Copying the excited state density for this state as the 1-particle RhoCI density.

 Excited State   2:      Singlet-A      1.9872 eV  623.91 nm  f=0.0000  <S**2>=0.000
     312 -> 313        0.70711

 Excited State   3:      Singlet-A      2.0600 eV  601.87 nm  f=0.0000  <S**2>=0.000
     311 -> 314        0.70711

 Excited State   4:      Singlet-A      2.2175 eV  559.13 nm  f=0.1404  <S**2>=0.000
     309 -> 314        0.66471
     312 -> 315        0.23654

 Excited State   5:      Singlet-A      2.4425 eV  507.61 nm  f=0.0000  <S**2>=0.000
     310 -> 314        0.70711

 The electronic state is 1-A.
 Alpha  occ. eigenvalues --  -46.92824 -46.91184 -19.24653 -19.24630 -19.20495
 Alpha  occ. eigenvalues --  -19.20062 -19.19733 -19.19221 -19.18783 -19.18347
 Alpha  occ. eigenvalues --  -14.41391 -14.41178 -14.41104 -14.39726 -14.39674
 Alpha  occ. eigenvalues --  -14.39645 -14.39221 -14.38435 -10.35926 -10.35508
 Alpha  occ. eigenvalues --  -10.34199 -10.33321 -10.32012 -10.31436 -10.28885
 Alpha  occ. eigenvalues --  -10.28878 -10.28543 -10.28496 -10.28496 -10.28407
 Alpha  occ. eigenvalues --  -10.28337 -10.28324 -10.28160 -10.27994 -10.27929
 Alpha  occ. eigenvalues --  -10.27914 -10.27820 -10.27660 -10.27508 -10.27453
 Alpha  occ. eigenvalues --  -10.26857 -10.26646 -10.26631 -10.26485 -10.26464
 Alpha  occ. eigenvalues --  -10.26154 -10.26044 -10.25976 -10.25933 -10.25924
 Alpha  occ. eigenvalues --  -10.25808 -10.25765 -10.25743 -10.25399 -10.25388
 Alpha  occ. eigenvalues --  -10.25377 -10.25328 -10.25327 -10.25257 -10.25050
 Alpha  occ. eigenvalues --  -10.24784 -10.24704 -10.24669 -10.24641 -10.24595
 Alpha  occ. eigenvalues --  -10.24512 -10.24423 -10.24285 -10.24037 -10.23920
 Alpha  occ. eigenvalues --  -10.23762 -10.23702 -10.23699 -10.23647 -10.23462
 Alpha  occ. eigenvalues --  -10.23437 -10.23400 -10.23285 -10.23248 -10.23229
 Alpha  occ. eigenvalues --  -10.23164 -10.23128 -10.23087 -10.23001 -10.22197
 Alpha  occ. eigenvalues --  -10.22017  -3.14927  -3.13523  -1.87753  -1.87307
 Alpha  occ. eigenvalues --   -1.87152  -1.86378  -1.85863  -1.85796  -1.09269
 Alpha  occ. eigenvalues --   -1.08948  -1.06692  -1.05804  -1.05020  -1.04528
 Alpha  occ. eigenvalues --   -1.01615  -1.00892  -1.00484  -1.00382  -0.99605
 Alpha  occ. eigenvalues --   -0.99468  -0.99442  -0.98798  -0.97721  -0.95917
 Alpha  occ. eigenvalues --   -0.86609  -0.85697  -0.83555  -0.83534  -0.83235
 Alpha  occ. eigenvalues --   -0.82816  -0.82524  -0.82286  -0.81961  -0.81771
 Alpha  occ. eigenvalues --   -0.81587  -0.81286  -0.80757  -0.79720  -0.78649
 Alpha  occ. eigenvalues --   -0.78528  -0.78029  -0.77381  -0.77022  -0.76593
 Alpha  occ. eigenvalues --   -0.76317  -0.76046  -0.75343  -0.75309  -0.74709
 Alpha  occ. eigenvalues --   -0.74455  -0.72927  -0.72753  -0.71614  -0.71445
 Alpha  occ. eigenvalues --   -0.71063  -0.71026  -0.70503  -0.70144  -0.69731
 Alpha  occ. eigenvalues --   -0.69436  -0.67357  -0.67347  -0.65631  -0.65526
 Alpha  occ. eigenvalues --   -0.63700  -0.63509  -0.63207  -0.63156  -0.62393
 Alpha  occ. eigenvalues --   -0.62371  -0.61679  -0.60891  -0.60474  -0.60064
 Alpha  occ. eigenvalues --   -0.59594  -0.59594  -0.59175  -0.58816  -0.58781
 Alpha  occ. eigenvalues --   -0.58421  -0.55902  -0.55877  -0.55633  -0.55065
 Alpha  occ. eigenvalues --   -0.54679  -0.54219  -0.53751  -0.53651  -0.52704
 Alpha  occ. eigenvalues --   -0.52556  -0.52556  -0.52192  -0.52108  -0.51788
 Alpha  occ. eigenvalues --   -0.51048  -0.50403  -0.50321  -0.50243  -0.50113
 Alpha  occ. eigenvalues --   -0.50017  -0.49333  -0.48555  -0.48432  -0.48432
 Alpha  occ. eigenvalues --   -0.48220  -0.47931  -0.47735  -0.47465  -0.47357
 Alpha  occ. eigenvalues --   -0.47141  -0.47098  -0.46996  -0.46931  -0.46649
 Alpha  occ. eigenvalues --   -0.46642  -0.46449  -0.46347  -0.45964  -0.45850
 Alpha  occ. eigenvalues --   -0.45201  -0.45099  -0.45048  -0.44950  -0.44914
 Alpha  occ. eigenvalues --   -0.44620  -0.44442  -0.44396  -0.44282  -0.44099
 Alpha  occ. eigenvalues --   -0.44026  -0.43881  -0.43846  -0.43606  -0.43532
 Alpha  occ. eigenvalues --   -0.43487  -0.43376  -0.43233  -0.43104  -0.42991
 Alpha  occ. eigenvalues --   -0.42483  -0.42363  -0.42344  -0.42222  -0.42106
 Alpha  occ. eigenvalues --   -0.42009  -0.41673  -0.41264  -0.41141  -0.41127
 Alpha  occ. eigenvalues --   -0.40940  -0.40759  -0.40590  -0.40521  -0.40485
 Alpha  occ. eigenvalues --   -0.40370  -0.40223  -0.39679  -0.39666  -0.39612
 Alpha  occ. eigenvalues --   -0.39442  -0.39383  -0.39141  -0.39069  -0.38834
 Alpha  occ. eigenvalues --   -0.38789  -0.38549  -0.38347  -0.38255  -0.38171
 Alpha  occ. eigenvalues --   -0.38079  -0.37941  -0.37937  -0.37785  -0.37655
 Alpha  occ. eigenvalues --   -0.37412  -0.37309  -0.37147  -0.36983  -0.36726
 Alpha  occ. eigenvalues --   -0.36674  -0.36270  -0.36223  -0.35918  -0.35905
 Alpha  occ. eigenvalues --   -0.35821  -0.35510  -0.35420  -0.35291  -0.35099
 Alpha  occ. eigenvalues --   -0.34987  -0.34880  -0.34836  -0.34763  -0.34117
 Alpha  occ. eigenvalues --   -0.33285  -0.33177  -0.33054  -0.32649  -0.32562
 Alpha  occ. eigenvalues --   -0.32052  -0.31706  -0.31539  -0.31228  -0.31175
 Alpha  occ. eigenvalues --   -0.30684  -0.30570  -0.29698  -0.29034  -0.28790
 Alpha  occ. eigenvalues --   -0.28579  -0.28343  -0.27700  -0.27237  -0.26853
 Alpha  occ. eigenvalues --   -0.26627  -0.26568  -0.26131  -0.26012  -0.26003
 Alpha  occ. eigenvalues --   -0.25491  -0.25472  -0.25255  -0.20841  -0.20522
 Alpha  occ. eigenvalues --   -0.19114  -0.18976
 Alpha virt. eigenvalues --   -0.11422  -0.11297  -0.04806  -0.04200  -0.04020
 Alpha virt. eigenvalues --   -0.03315  -0.02032  -0.01796  -0.00466  -0.00047
 Alpha virt. eigenvalues --    0.00124   0.00869   0.01040   0.01403   0.02030

 Mulliken charges:
               1
     1  Mg  12.002242
     2  C    5.978634
     3  C    6.007600
     4  C    6.021122
     5  C    5.997187
     6  N    6.986576
     7  C    6.032579
     8  C    5.998561
     9  C    6.003066
    10  C    5.974378
    11  C    5.996641
    12  C    5.997430
    13  C    5.999985
    14  H    1.003157
    15  N    7.004532
    16  C    5.959895
    17  C    5.981017
    18  C    5.978947
    19  C    5.974237
    20  C    6.004233
    21  C    5.985505
    22  O    7.970318
    23  C    6.004748
    24  N    7.006434
    25  C    5.967639
    26  C    6.008823
    27  C    5.991629
    28  C    6.027139
    29  C    6.000391
    30  C    5.999169
    31  C    5.997658
    32  N    7.004295
    33  C    6.029149
    34  C    6.031745
    35  C    6.002637
    36  C    6.023687
    37  C    5.996593
    38  C    6.014429
    39  O    8.029019
    40  C    6.001468
    41  C    6.006247
    42  O    8.004320
    43  O    8.001669
    44  C    5.998855
    45  H    0.988853
    46  H    0.996458
    47  H    1.011921
    48  H    0.996945
    49  H    1.001534
    50  H    0.997378
    51  H    0.986230
    52  H    1.002974
    53  H    1.011357
    54  H    0.992467
    55  H    1.003665
    56  H    0.996620
    57  H    0.984135
    58  H    0.979392
    59  H    0.985582
    60  H    0.995828
    61  H    0.985810
    62  H    0.991669
    63  H    1.001816
    64  H    1.001738
    65  H    0.989841
    66  H    1.003436
    67  H    1.001867
    68  H    1.010350
    69  H    0.999481
    70  H    0.998012
    71  H    0.998365
    72  H    1.009449
    73  H    1.017013
    74  H    1.016521
    75  H    1.021214
    76  H    1.006765
    77  H    1.004559
    78  H    0.999497
    79  H    1.005675
    80  Mg  11.999977
    81  C    6.000023
    82  C    6.000026
    83  C    5.999979
    84  C    5.999971
    85  N    7.000021
    86  C    5.999961
    87  C    6.000008
    88  C    5.999992
    89  C    6.000018
    90  C    5.999986
    91  C    6.000005
    92  C    6.000009
    93  H    0.999963
    94  N    6.999987
    95  C    6.000020
    96  C    6.000021
    97  C    5.999984
    98  C    6.000043
    99  C    6.000005
   100  C    6.000025
   101  O    8.000023
   102  C    5.999995
   103  N    6.999996
   104  C    6.000047
   105  C    5.999977
   106  C    6.000023
   107  C    5.999975
   108  C    5.999999
   109  C    6.000002
   110  C    5.999999
   111  N    6.999995
   112  C    5.999984
   113  C    5.999959
   114  C    6.000010
   115  C    5.999959
   116  C    5.999987
   117  C    5.999970
   118  O    7.999974
   119  C    5.999991
   120  C    5.999993
   121  O    7.999972
   122  O    8.000008
   123  C    6.000003
   124  H    1.000026
   125  H    1.000012
   126  H    0.999989
   127  H    1.000020
   128  H    1.000003
   129  H    1.000020
   130  H    1.000034
   131  H    1.000011
   132  H    0.999971
   133  H    0.999985
   134  H    1.000020
   135  H    1.000006
   136  H    1.000014
   137  H    1.000036
   138  H    1.000051
   139  H    0.999992
   140  H    1.000034
   141  H    1.000027
   142  H    0.999978
   143  H    1.000014
   144  H    1.000007
   145  H    1.000028
   146  H    0.999991
   147  H    0.999998
   148  H    0.999965
   149  H    0.999976
   150  H    1.000016
   151  H    1.000007
   152  H    0.999961
   153  H    0.999987
   154  H    0.999964
   155  H    1.000006
   156  H    0.999994
   157  H    0.999980
   158  H    1.000006
 Sum of Mulliken charges = 624.00000

 Dipole moment (field-independent basis, Debye):
    X=              6.8903    Y=              2.1376    Z=             -7.3779  Tot=             10.3189
 Quadrupole moment (field-independent basis, Debye-Ang):
   XX=           -369.5354   YY=              0.1483   ZZ=              1.6970
   XY=            -60.9271   XZ=            198.0348   YZ=              4.8402

 Normal termination of Gaussian 16 at Fri Oct 15 18:55:14 2021.
