 Gaussian 16, Revision A.03,
 Gaussian 16:  ES64L-G16RevA.03 25-Dec-2016

 --------------------------------------------------------
 #p PBE1PBE/Def2SVP td=(nstates=5) density=(transition=1)
 --------------------------------------------------------

 --------------------------------
 TDDFT excited states in gaussian
 --------------------------------
 Symbolic Z-matrix:
 Charge =  0 Multiplicity = 1

                         Standard orientation:
 ---------------------------------------------------------------------
 Center     Atomic      Atomic             Coordinates (Angstroms)
 Number     Number       Type             X           Y           Z
 ---------------------------------------------------------------------
      1         12           0       30.455070    0.157459   -0.438039
      2          6           0       27.498507   -1.138025    0.802931
      3          6           0       28.761926    3.214834   -1.053297
      4          6           0       33.437218    1.694591   -1.135308
      5          6           0       32.188795   -2.642745    0.602184
      6          7           0       28.339012    0.855561   -0.261183
      7          6           0       27.328985    0.165829    0.375905
      8          6           0       26.033160    1.023108    0.631939
      9          6           0       26.313627    2.277801   -0.322653
     10          6           0       27.905141    2.143904   -0.641778
     11          6           0       25.463759    2.450400   -1.638835
     12          6           0       25.807808    1.427314    2.046415
     13          6           0       24.564440    0.982375    2.792236
     14          1           0       24.071742    1.923050    3.903602
     15          7           0       31.011667    2.169585   -1.110828
     16          6           0       30.111915    3.228064   -1.337658
     17          6           0       30.817346    4.351409   -1.867474
     18          6           0       32.250910    3.975420   -1.752379
     19          6           0       32.313435    2.551492   -1.298843
     20          6           0       30.171173    5.707104   -2.171246
     21          6           0       33.369454    4.971770   -2.103985
     22          8           0       33.239695    6.135858   -2.471662
     23          6           0       34.747358    4.621570   -1.665755
     24          7           0       32.630427   -0.346324   -0.115773
     25          6           0       33.599290    0.398329   -0.665716
     26          6           0       34.923594   -0.162801   -0.149868
     27          6           0       34.592715   -1.643432    0.357739
     28          6           0       33.002834   -1.588410    0.262096
     29          6           0       35.952298   -0.256888   -1.331936
     30          6           0       35.085772   -2.115139    1.787048
     31          6           0       36.118645   -3.224030    1.921773
     32          7           0       29.949157   -1.629917    0.460316
     33          6           0       30.760272   -2.716799    0.801281
     34          6           0       29.979337   -3.721495    1.455840
     35          6           0       28.662777   -3.167273    1.501381
     36          6           0       28.734197   -1.891537    0.817235
     37          6           0       30.425510   -5.041389    2.001312
     38          6           0       27.320614   -3.371455    1.862090
     39          8           0       26.832051   -4.340266    2.408270
     40          6           0       26.526592   -2.054551    1.508819
     41          6           0       25.266367   -2.429816    0.848767
     42          8           0       24.175751   -2.387092    1.406762
     43          8           0       25.513337   -2.849382   -0.449874
     44          6           0       24.289899   -3.285375   -1.159894
     45          1           0       28.342763    4.185728   -1.323959
     46          1           0       34.330664    2.232019   -1.461170
     47          1           0       32.760795   -3.500426    0.961912
     48          1           0       25.162127    0.478525    0.269137
     49          1           0       26.230478    3.165890    0.304861
     50          1           0       24.620693    1.763394   -1.566278
     51          1           0       26.014931    2.272302   -2.562289
     52          1           0       25.148945    3.492581   -1.677053
     53          1           0       25.733432    2.515817    2.045024
     54          1           0       26.630124    1.075745    2.668625
     55          1           0       24.806220    0.056758    3.313798
     56          1           0       23.693444    0.864240    2.148036
     57          1           0       29.123029    5.900024   -1.943696
     58          1           0       30.409267    5.837092   -3.226663
     59          1           0       30.864877    6.416320   -1.720836
     60          1           0       35.395810    4.051052   -2.329291
     61          1           0       34.764117    4.186494   -0.666376
     62          1           0       35.283894    5.567914   -1.587989
     63          1           0       35.351571    0.434127    0.655820
     64          1           0       34.875682   -2.372093   -0.401115
     65          1           0       36.871430    0.215414   -0.985226
     66          1           0       35.632178    0.196160   -2.271065
     67          1           0       36.177693   -1.282498   -1.625107
     68          1           0       34.166918   -2.406890    2.295185
     69          1           0       35.562722   -1.236626    2.223810
     70          1           0       35.958816   -3.637991    2.917678
     71          1           0       37.114905   -2.781582    1.904795
     72          1           0       36.098106   -4.074722    1.241415
     73          1           0       29.531833   -5.509952    2.414321
     74          1           0       31.206598   -4.839627    2.733689
     75          1           0       30.828621   -5.736560    1.264655
     76          1           0       26.271064   -1.642434    2.485603
     77          1           0       24.125616   -4.351367   -1.002860
     78          1           0       24.421311   -2.974162   -2.196200
     79          1           0       23.409811   -2.736835   -0.825466
     80         12           0      -30.554721    0.242682    0.377355
     81          6           0      -27.930815   -1.653322   -1.103308
     82          6           0      -32.162535    0.231532   -2.661953
     83          6           0      -32.860037    2.051963    1.904084
     84          6           0      -28.541953    0.604670    3.333206
     85          7           0      -30.062650   -0.579144   -1.743334
     86          6           0      -28.976311   -1.393747   -2.005256
     87          6           0      -29.129472   -1.856676   -3.494653
     88          6           0      -30.509786   -1.200033   -4.033673
     89          6           0      -30.923966   -0.466943   -2.753703
     90          6           0      -30.401399   -0.345837   -5.313941
     91          6           0      -28.961178   -3.404439   -3.789436
     92          6           0      -27.875652   -3.767360   -4.760606
     93          1           0      -27.399716   -2.855260   -5.860315
     94          7           0      -32.415096    0.958639   -0.285136
     95          6           0      -32.868380    0.853057   -1.562313
     96          6           0      -34.226856    1.331103   -1.538527
     97          6           0      -34.414565    1.947128   -0.282382
     98          6           0      -33.193513    1.709281    0.554159
     99          6           0      -35.088234    1.265311   -2.810990
    100          6           0      -35.560382    2.818122    0.135528
    101          8           0      -35.564817    3.411358    1.240200
    102          6           0      -36.691248    3.031555   -0.800970
    103          7           0      -30.600225    1.240191    2.362566
    104          6           0      -31.678093    1.832249    2.743750
    105          6           0      -31.714784    2.382339    4.267962
    106          6           0      -30.312862    1.924123    4.697850
    107          6           0      -29.785697    1.237933    3.461476
    108          6           0      -31.942668    3.938348    4.261272
    109          6           0      -30.226450    0.997216    5.961043
    110          6           0      -30.715421   -0.460034    5.784813
    111          7           0      -28.651231   -0.264043    0.925950
    112          6           0      -27.989185   -0.015621    2.151347
    113          6           0      -26.693075   -0.706312    2.109251
    114          6           0      -26.635298   -1.365471    0.857838
    115          6           0      -27.875534   -1.101026    0.184341
    116          6           0      -25.639487   -0.722324    3.256988
    117          6           0      -25.831704   -2.181004    0.112401
    118          8           0      -24.713452   -2.616464    0.296998
    119          6           0      -26.618965   -2.488328   -1.191996
    120          6           0      -25.782036   -2.153253   -2.320890
    121          8           0      -25.719963   -1.036070   -2.846458
    122          8           0      -24.889704   -3.201842   -2.573981
    123          6           0      -23.854722   -2.891037   -3.590984
    124          1           0      -32.642062    0.514186   -3.601836
    125          1           0      -33.552050    2.780170    2.332395
    126          1           0      -27.891839    0.680203    4.207280
    127          1           0      -28.208533   -1.423399   -3.882690
    128          1           0      -31.186665   -2.000911   -4.327875
    129          1           0      -31.083583   -0.713728   -6.081417
    130          1           0      -29.409415   -0.243254   -5.753552
    131          1           0      -30.710884    0.647648   -4.989420
    132          1           0      -29.904687   -3.821675   -4.141846
    133          1           0      -28.674480   -3.847085   -2.835481
    134          1           0      -28.302068   -4.516562   -5.428611
    135          1           0      -27.020629   -4.121704   -4.185952
    136          1           0      -34.679798    0.573660   -3.548165
    137          1           0      -35.167341    2.258196   -3.251871
    138          1           0      -36.059397    0.916229   -2.461630
    139          1           0      -37.098026    2.047406   -1.033609
    140          1           0      -36.352141    3.466553   -1.741904
    141          1           0      -37.412977    3.729882   -0.379156
    142          1           0      -32.484784    1.879064    4.853219
    143          1           0      -29.653264    2.789396    4.767541
    144          1           0      -31.513550    4.332140    3.339963
    145          1           0      -31.381135    4.366022    5.092610
    146          1           0      -32.966517    4.306255    4.332985
    147          1           0      -30.657115    1.506677    6.822483
    148          1           0      -29.181125    0.962294    6.266326
    149          1           0      -31.528906   -0.623135    5.078682
    150          1           0      -30.936638   -0.863747    6.773479
    151          1           0      -29.835840   -1.010960    5.452131
    152          1           0      -25.286003   -1.724303    3.500485
    153          1           0      -25.983983   -0.229456    4.165412
    154          1           0      -24.691278   -0.347660    2.870645
    155          1           0      -26.754889   -3.566488   -1.113789
    156          1           0      -23.148991   -2.154939   -3.206859
    157          1           0      -24.242424   -2.454818   -4.510867
    158          1           0      -23.464725   -3.849997   -3.932590
 ---------------------------------------------------------------------

 SCF Done:  E(RPBE1PBE) =  -4067.36157797     A.U. after   16 cycles

 Excitation energies and oscillator strengths:

 Excited State   1:      Singlet-A      1.7610 eV  704.05 nm  f=0.0000  <S**2>=0.000
     312 -> 313        0.70711
 This state for optimization and/or second-order correction.
 Total Energy, E(TD-HF/TD-DFT) =  -4067.29686174
 Copying the excited state density for this state as the 1-particle RhoCI density.

 Excited State   2:      Singlet-A      1.8584 eV  667.14 nm  f=0.3579  <S**2>=0.000
     309 -> 315       -0.17011
     311 -> 313        0.69186
     311 <- 313       -0.10673

 Excited State   3:      Singlet-A      1.8677 eV  663.84 nm  f=0.3671  <S**2>=0.000
     310 -> 316        0.18702
     312 -> 314        0.68775

 Excited State   4:      Singlet-A      2.1844 eV  567.59 nm  f=0.1538  <S**2>=0.000
     309 -> 313        0.65883
     311 -> 315        0.23361

 Excited State   5:      Singlet-A      2.2069 eV  561.81 nm  f=0.1034  <S**2>=0.000
     310 -> 314        0.65388
     312 -> 316       -0.25873

 The electronic state is 1-A.
 Alpha  occ. eigenvalues --  -46.93857 -46.93193 -19.25819 -19.24998 -19.20137
 Alpha  occ. eigenvalues --  -19.19591 -19.19157 -19.18788 -19.18687 -19.18126
 Alpha  occ. eigenvalues --  -14.42951 -14.42053 -14.41544 -14.41423 -14.39628
 Alpha  occ. eigenvalues --  -14.39625 -14.39524 -14.39289 -10.36196 -10.35674
 Alpha  occ. eigenvalues --  -10.32240 -10.31877 -10.31532 -10.30677 -10.30674
 Alpha  occ. eigenvalues --  -10.29541 -10.29505 -10.29424 -10.29241 -10.29161
 Alpha  occ. eigenvalues --  -10.29010 -10.28795 -10.28767 -10.28765 -10.28220
 Alpha  occ. eigenvalues --  -10.28203 -10.28160 -10.28075 -10.28063 -10.27806
 Alpha  occ. eigenvalues --  -10.27230 -10.27183 -10.27003 -10.26748 -10.26610
 Alpha  occ. eigenvalues --  -10.26565 -10.26506 -10.26487 -10.26286 -10.26276
 Alpha  occ. eigenvalues --  -10.26213 -10.26159 -10.26119 -10.26093 -10.25987
 Alpha  occ. eigenvalues --  -10.25967 -10.25766 -10.25672 -10.25614 -10.25498
 Alpha  occ. eigenvalues --  -10.25467 -10.25302 -10.25297 -10.25132 -10.25126
 Alpha  occ. eigenvalues --  -10.25115 -10.25006 -10.24927 -10.24877 -10.24739
 Alpha  occ. eigenvalues --  -10.24551 -10.24377 -10.24213 -10.24123 -10.23826
 Alpha  occ. eigenvalues --  -10.23752 -10.23688 -10.23667 -10.23663 -10.23404
 Alpha  occ. eigenvalues --  -10.23388 -10.23378 -10.23330 -10.22955 -10.22627
 Alpha  occ. eigenvalues --  -10.22007  -3.15659  -3.15117  -1.88526  -1.88007
 Alpha  occ. eigenvalues --   -1.87971  -1.87882  -1.87525  -1.87296  -1.10339
 Alpha  occ. eigenvalues --   -1.09158  -1.04753  -1.04629  -1.04310  -1.02859
 Alpha  occ. eigenvalues --   -1.02370  -1.01194  -1.00734  -0.99669  -0.98765
 Alpha  occ. eigenvalues --   -0.98180  -0.97589  -0.97050  -0.96593  -0.96255
 Alpha  occ. eigenvalues --   -0.87041  -0.86863  -0.84057  -0.83770  -0.83629
 Alpha  occ. eigenvalues --   -0.82486  -0.82377  -0.82039  -0.82014  -0.81709
 Alpha  occ. eigenvalues --   -0.81393  -0.81105  -0.79946  -0.79928  -0.78717
 Alpha  occ. eigenvalues --   -0.78552  -0.78212  -0.77691  -0.77147  -0.76836
 Alpha  occ. eigenvalues --   -0.76369  -0.76210  -0.75260  -0.75113  -0.75030
 Alpha  occ. eigenvalues --   -0.74390  -0.72434  -0.72252  -0.71881  -0.71475
 Alpha  occ. eigenvalues --   -0.71181  -0.70779  -0.70513  -0.70096  -0.69860
 Alpha  occ. eigenvalues --   -0.69315  -0.68020  -0.67070  -0.66731  -0.65987
 Alpha  occ. eigenvalues --   -0.64784  -0.63774  -0.63551  -0.63536  -0.62414
 Alpha  occ. eigenvalues --   -0.62261  -0.61530  -0.61218  -0.60070  -0.59892
 Alpha  occ. eigenvalues --   -0.59789  -0.59763  -0.59425  -0.59315  -0.59115
 Alpha  occ. eigenvalues --   -0.58779  -0.57597  -0.56088  -0.54812  -0.54592
 Alpha  occ. eigenvalues --   -0.54385  -0.54118  -0.54018  -0.53681  -0.53259
 Alpha  occ. eigenvalues --   -0.52707  -0.52451  -0.52449  -0.52124  -0.51498
 Alpha  occ. eigenvalues --   -0.51142  -0.50828  -0.50557  -0.50505  -0.50015
 Alpha  occ. eigenvalues --   -0.49864  -0.49432  -0.49345  -0.48505  -0.48288
 Alpha  occ. eigenvalues --   -0.48164  -0.47819  -0.47643  -0.47553  -0.47392
 Alpha  occ. eigenvalues --   -0.47331  -0.47305  -0.47199  -0.47026  -0.46700
 Alpha  occ. eigenvalues --   -0.46593  -0.46135  -0.46106  -0.45951  -0.45820
 Alpha  occ. eigenvalues --   -0.45682  -0.45503  -0.44970  -0.44825  -0.44807
 Alpha  occ. eigenvalues --   -0.44457  -0.44310  -0.44176  -0.44104  -0.43837
 Alpha  occ. eigenvalues --   -0.43760  -0.43642  -0.43538  -0.43520  -0.43350
 Alpha  occ. eigenvalues --   -0.43344  -0.43209  -0.42963  -0.42670  -0.42651
 Alpha  occ. eigenvalues --   -0.42489  -0.42342  -0.42182  -0.42009  -0.41928
 Alpha  occ. eigenvalues --   -0.41764  -0.41452  -0.41430  -0.41336  -0.41322
 Alpha  occ. eigenvalues --   -0.41226  -0.40889  -0.40804  -0.40757  -0.40601
 Alpha  occ. eigenvalues --   -0.40510  -0.40362  -0.40279  -0.40163  -0.39970
 Alpha  occ. eigenvalues --   -0.39791  -0.39470  -0.39445  -0.39314  -0.39111
 Alpha  occ. eigenvalues --   -0.39026  -0.38676  -0.38651  -0.38491  -0.38471
 Alpha  occ. eigenvalues --   -0.38058  -0.37986  -0.37779  -0.37640  -0.37539
 Alpha  occ. eigenvalues --   -0.37386  -0.37285  -0.37200  -0.37034  -0.36754
 Alpha  occ. eigenvalues --   -0.36680  -0.36505  -0.36426  -0.36391  -0.36189
 Alpha  occ. eigenvalues --   -0.36061  -0.36036  -0.35959  -0.35498  -0.35310
 Alpha  occ. eigenvalues --   -0.35023  -0.34954  -0.34665  -0.34659  -0.34405
 Alpha  occ. eigenvalues --   -0.34056  -0.33374  -0.32873  -0.32454  -0.32207
 Alpha  occ. eigenvalues --   -0.31930  -0.31780  -0.31701  -0.31492  -0.31069
 Alpha  occ. eigenvalues --   -0.30932  -0.30565  -0.29779  -0.29356  -0.29129
 Alpha  occ. eigenvalues --   -0.28766  -0.28668  -0.28453  -0.27436  -0.26853
 Alpha  occ. eigenvalues --   -0.26106  -0.25815  -0.25750  -0.25618  -0.25558
 Alpha  occ. eigenvalues --   -0.25500  -0.25179  -0.25027  -0.21578  -0.20708
 Alpha  occ. eigenvalues --   -0.19764  -0.18836
 Alpha virt. eigenvalues --   -0.12144  -0.11057  -0.05863  -0.05263  -0.04140
 Alpha virt. eigenvalues --   -0.04032  -0.02230  -0.02068  -0.00398  -0.00168
 Alpha virt. eigenvalues --    0.00370   0.00371   0.00621   0.01482   0.01775

 Mulliken charges:
               1
     1  Mg  12.000000
     2  C    6.000000
     3  C    6.000000
     4  C    6.000000
     5  C    6.000000
     6  N    7.000000
     7  C    6.000000
     8  C    6.000000
     9  C    6.000000
    10  C    6.000000
    11  C    6.000000
    12  C    6.000000
    13  C    6.000000
    14  H    1.000000
    15  N    7.000000
    16  C    6.000000
    17  C    6.000000
    18  C    6.000000
    19  C    6.000000
    20  C    6.000000
    21  C    6.000000
    22  O    8.000000
    23  C    6.000000
    24  N    7.000000
    25  C    6.000000
    26  C    6.000000
    27  C    6.000000
    28  C    6.000000
    29  C    6.000000
    30  C    6.000000
    31  C    6.000000
    32  N    7.000000
    33  C    6.000000
    34  C    6.000000
    35  C    6.000000
    36  C    6.000000
    37  C    6.000000
    38  C    6.000000
    39  O    8.000000
    40  C    6.000000
    41  C    6.000000
    42  O    8.000000
    43  O    8.000000
    44  C    6.000000
    45  H    1.000000
    46  H    1.000000
    47  H    1.000000
    48  H    1.000000
    49  H    1.000000
    50  H    1.000000
    51  H    1.000000
    52  H    1.000000
    53  H    1.000000
    54  H    1.000000
    55  H    1.000000
    56  H    1.000000
    57  H    1.000000
    58  H    1.000000
    59  H    1.000000
    60  H    1.000000
    61  H    1.000000
    62  H    1.000000
    63  H    1.000000
    64  H    1.000000
    65  H    1.000000
    66  H    1.000000
    67  H    1.000000
    68  H    1.000000
    69  H    1.000000
    70  H    1.000000
    71  H    1.000000
    72  H    1.000000
    73  H    1.000000
    74  H    1.000000
    75  H    1.000000
    76  H    1.000000
    77  H    1.000000
    78  H    1.000000
    79  H    1.000000
    80  Mg  12.000000
    81  C    6.000000
    82  C    6.000000
    83  C    6.000000
    84  C    6.000000
    85  N    7.000000
    86  C    6.000000
    87  C    6.000000
    88  C    6.000000
    89  C    6.000000
    90  C    6.000000
    91  C    6.000000
    92  C    6.000000
    93  H    1.000000
    94  N    7.000000
    95  C    6.000000
    96  C    6.000000
    97  C    6.000000
    98  C    6.000000
    99  C    6.000000
   100  C    6.000000
   101  O    8.000000
   102  C    6.000000
   103  N    7.000000
   104  C    6.000000
   105  C    6.000000
   106  C    6.000000
   107  C    6.000000
   108  C    6.000000
   109  C    6.000000
   110  C    6.000000
   111  N    7.000000
   112  C    6.000000
   113  C    6.000000
   114  C    6.000000
   115  C    6.000000
   116  C    6.000000
   117  C    6.000000
   118  O    8.000000
   119  C    6.000000
   120  C    6.000000
   121  O    8.000000
   122  O    8.000000
   123  C    6.000000
   124  H    1.000000
   125  H    1.000000
   126  H    1.000000
   127  H    1.000000
   128  H    1.000000
   129  H    1.000000
   130  H    1.000000
   131  H    1.000000
   132  H    1.000000
   133  H    1.000000
   134  H    1.000000
   135  H    1.000000
   136  H    1.000000
   137  H    1.000000
   138  H    1.000000
   139  H    1.000000
   140  H    1.000000
   141  H    1.000000
   142  H    1.000000
   143  H    1.000000
   144  H    1.000000
   145  H    1.000000
   146  H    1.000000
   147  H    1.000000
   148  H    1.000000
   149  H    1.000000
   150  H    1.000000
   151  H    1.000000
   152  H    1.000000
   153  H    1.000000
   154  H    1.000000
   155  H    1.000000
   156  H    1.000000
   157  H    1.000000
   158  H    1.000000
 Sum of Mulliken charges = 624.00000

 Dipole moment (field-independent basis, Debye):
    X=              0.0000    Y=             -0.0000    Z=              0.0000  Tot=              0.0000
 Quadrupole moment (field-independent basis, Debye-Ang):
   XX=             -0.0000   YY=             -0.0000   ZZ=              0.0000
   XY=              0.0000   XZ=             -0.0000   YZ=              0.0000

 Normal termination of Gaussian 16 at Fri Oct 15 07:35:34 2021.
