 Gaussian 16, Revision A.03,
 Gaussian 16:  ES64L-G16RevA.03 25-Dec-2016

 --------------------------------------------------------
 #p PBE1PBE/Def2SVP td=(nstates=5) density=(transition=1)
 --------------------------------------------------------

 --------------------------------
 TDDFT excited states in gaussian
 --------------------------------
 Symbolic Z-matrix:
 Charge =  0 Multiplicity = 1

                         Standard orientation:
 ---------------------------------------------------------------------
 Center     Atomic      Atomic             Coordinates (Angstroms)
 Number     Number       Type             X           Y           Z
 ---------------------------------------------------------------------
      1         12           0      -26.519697    0.283195   -0.561127
      2          6           0      -25.006342   -2.263192    1.351943
      3          6           0      -27.050876    2.039086    2.345092
      4          6           0      -28.044979    2.717446   -2.301373
      5          6           0      -26.476982   -1.780700   -3.386317
      6          7           0      -25.931734   -0.084239    1.512656
      7          6           0      -25.343473   -1.103803    2.131708
      8          6           0      -25.129396   -0.956432    3.652570
      9          6           0      -26.086655    0.315223    3.859364
     10          6           0      -26.423505    0.770814    2.460571
     11          6           0      -27.326570    0.017158    4.666893
     12          6           0      -23.588489   -0.663131    4.087481
     13          6           0      -23.264608   -1.136451    5.507522
     14          1           0      -22.153637   -2.215612    5.578402
     15          7           0      -27.299755    2.238368   -0.089177
     16          6           0      -27.460770    2.738951    1.226529
     17          6           0      -27.815980    4.134425    1.099223
     18          6           0      -28.090528    4.372355   -0.244506
     19          6           0      -27.800747    3.097092   -0.972192
     20          6           0      -28.070459    5.053305    2.279198
     21          6           0      -28.520695    5.624225   -0.974258
     22          8           0      -28.620951    5.611966   -2.166367
     23          6           0      -28.757856    6.918167   -0.261512
     24          7           0      -27.350457    0.391161   -2.490703
     25          6           0      -27.870297    1.538970   -3.014173
     26          6           0      -28.157620    1.244412   -4.512652
     27          6           0      -27.192941    0.144746   -4.918922
     28          6           0      -26.979056   -0.512578   -3.535105
     29          6           0      -29.591893    0.739218   -4.662591
     30          6           0      -25.949098    0.620054   -5.573861
     31          6           0      -25.189686    1.769839   -4.959555
     32          7           0      -25.860159   -1.617125   -1.004438
     33          6           0      -25.904721   -2.348878   -2.176203
     34          6           0      -25.273967   -3.657096   -1.942048
     35          6           0      -24.895507   -3.636156   -0.588384
     36          6           0      -25.260449   -2.418034   -0.083434
     37          6           0      -25.137242   -4.745983   -2.916510
     38          6           0      -24.155690   -4.318472    0.439241
     39          8           0      -23.534101   -5.421281    0.419065
     40          6           0      -24.192179   -3.391846    1.745029
     41          6           0      -24.885098   -4.194184    2.815749
     42          8           0      -25.912809   -4.775267    2.629057
     43          8           0      -24.267888   -4.170224    4.095751
     44          6           0      -25.111710   -4.684300    5.217139
     45          1           0      -27.275176    2.588227    3.261295
     46          1           0      -28.626271    3.438756   -2.880159
     47          1           0      -26.273523   -2.404475   -4.259527
     48          1           0      -25.411496   -1.879592    4.160362
     49          1           0      -25.456598    1.030333    4.389714
     50          1           0      -27.106437    0.334481    5.686054
     51          1           0      -27.658138   -1.016728    4.568448
     52          1           0      -28.048858    0.753233    4.314065
     53          1           0      -23.390809    0.408511    4.047894
     54          1           0      -22.896646   -1.106821    3.371239
     55          1           0      -24.242757   -1.475170    5.849603
     56          1           0      -23.023011   -0.306997    6.171881
     57          1           0      -27.574963    4.558601    3.113714
     58          1           0      -29.145871    4.959894    2.427699
     59          1           0      -27.652879    6.049194    2.129708
     60          1           0      -27.727514    7.175429   -0.015329
     61          1           0      -29.329681    6.830322    0.661889
     62          1           0      -29.222202    7.641344   -0.932836
     63          1           0      -28.092981    2.105728   -5.176623
     64          1           0      -27.580563   -0.572074   -5.642052
     65          1           0      -29.779439   -0.326413   -4.794734
     66          1           0      -30.031308    1.261368   -5.512455
     67          1           0      -30.154411    1.064350   -3.786656
     68          1           0      -26.107225    0.852019   -6.627355
     69          1           0      -25.294625   -0.251079   -5.550464
     70          1           0      -24.257842    1.341262   -4.589537
     71          1           0      -25.572927    2.379364   -4.140661
     72          1           0      -24.909442    2.454215   -5.760145
     73          1           0      -26.128229   -5.160035   -3.102234
     74          1           0      -24.435977   -5.431159   -2.440344
     75          1           0      -24.782096   -4.377795   -3.879950
     76          1           0      -23.147161   -3.142763    1.930329
     77          1           0      -25.128052   -5.774102    5.208992
     78          1           0      -26.138413   -4.316766    5.185854
     79          1           0      -24.745227   -4.479695    6.222678
     80         12           0       26.500792   -0.636083    0.309239
     81          6           0       25.612539    2.835437    0.386446
     82          6           0       23.148074   -1.298793   -0.606823
     83          6           0       27.436465   -3.750075   -0.520134
     84          6           0       29.814602    0.299338    0.548046
     85          7           0       24.564400    0.616920   -0.065069
     86          6           0       24.542834    1.981359    0.012516
     87          6           0       23.244465    2.505361   -0.580366
     88          6           0       22.427686    1.145971   -0.598161
     89          6           0       23.392863    0.036174   -0.422656
     90          6           0       21.263959    0.994930    0.438262
     91          6           0       23.529372    3.249704   -1.924211
     92          6           0       22.835163    4.642989   -2.216806
     93          1           0       21.882788    4.783333   -3.417912
     94          7           0       25.482271   -2.300078   -0.252955
     95          6           0       24.102915   -2.403717   -0.573288
     96          6           0       23.759378   -3.774880   -0.901998
     97          6           0       25.031472   -4.479039   -0.879642
     98          6           0       26.035238   -3.491563   -0.529670
     99          6           0       22.398294   -4.156601   -1.311759
    100          6           0       25.154115   -5.986583   -1.161820
    101          8           0       24.093807   -6.576776   -1.521383
    102          6           0       26.448296   -6.818838   -1.040425
    103          7           0       28.386648   -1.615330   -0.231102
    104          6           0       28.520193   -2.921660   -0.357565
    105          6           0       29.971348   -3.236121   -0.528156
    106          6           0       30.694104   -1.925120   -0.118249
    107          6           0       29.556040   -0.958793    0.001765
    108          6           0       30.597575   -4.507331    0.189582
    109          6           0       31.832891   -1.415132   -1.143924
    110          6           0       33.302140   -1.376280   -0.656842
    111          7           0       27.514528    1.103521    0.632424
    112          6           0       28.835169    1.339722    0.707930
    113          6           0       29.107078    2.713231    0.925699
    114          6           0       27.853336    3.324409    0.850516
    115          6           0       26.895407    2.303854    0.624458
    116          6           0       30.376734    3.421917    1.178653
    117          6           0       27.254171    4.622669    0.890363
    118          8           0       27.796819    5.700307    0.989234
    119          6           0       25.664017    4.335922    0.521459
    120          6           0       24.805901    4.803617    1.616517
    121          8           0       25.020552    4.630385    2.822930
    122          8           0       23.726501    5.430897    1.031765
    123          6           0       22.727380    5.987748    1.942246
    124          1           0       22.129087   -1.568253   -0.888773
    125          1           0       27.807547   -4.712248   -0.878280
    126          1           0       30.813712    0.615923    0.855254
    127          1           0       22.780245    3.115286    0.195039
    128          1           0       22.148241    1.156713   -1.652332
    129          1           0       21.467771    0.098783    1.026081
    130          1           0       20.281594    0.850590   -0.010891
    131          1           0       21.187060    1.790514    1.179994
    132          1           0       23.157803    2.498903   -2.621234
    133          1           0       24.579853    3.392955   -2.176330
    134          1           0       23.661624    5.347635   -2.307369
    135          1           0       22.374472    4.990174   -1.292466
    136          1           0       22.122593   -3.480600   -2.121490
    137          1           0       21.696164   -3.954019   -0.503277
    138          1           0       22.208233   -5.206403   -1.536660
    139          1           0       27.103005   -6.543167   -1.867308
    140          1           0       26.094407   -7.829640   -0.840269
    141          1           0       26.874732   -6.459607   -0.103225
    142          1           0       30.119234   -3.449489   -1.586065
    143          1           0       30.985462   -2.145908    0.908700
    144          1           0       31.423093   -4.801927   -0.458850
    145          1           0       29.822823   -5.268386    0.281298
    146          1           0       30.976940   -4.161902    1.151436
    147          1           0       31.489898   -0.421118   -1.430493
    148          1           0       31.722448   -1.989234   -2.063782
    149          1           0       33.790817   -0.425332   -0.864723
    150          1           0       33.848595   -2.186857   -1.139704
    151          1           0       33.418532   -1.604254    0.402842
    152          1           0       30.210171    4.403546    1.621099
    153          1           0       30.719530    3.473568    0.145086
    154          1           0       31.083902    2.704953    1.595568
    155          1           0       25.412601    4.715609   -0.468211
    156          1           0       23.182445    6.627589    2.698644
    157          1           0       22.165598    5.179062    2.412034
    158          1           0       22.039708    6.607606    1.366885
 ---------------------------------------------------------------------

 SCF Done:  E(RPBE1PBE) =  -4067.35312399     A.U. after   16 cycles

 Excitation energies and oscillator strengths:

 Excited State   1:      Singlet-A      1.8249 eV  679.41 nm  f=0.3545  <S**2>=0.000
     310 -> 315        0.17197
     311 -> 313        0.69446
     311 <- 313       -0.10918
 This state for optimization and/or second-order correction.
 Total Energy, E(TD-HF/TD-DFT) =  -4067.28606112
 Copying the excited state density for this state as the 1-particle RhoCI density.

 Excited State   2:      Singlet-A      1.8633 eV  665.41 nm  f=0.3821  <S**2>=0.000
     309 -> 316       -0.18018
     312 -> 314        0.69252
     312 <- 314       -0.10917

 Excited State   3:      Singlet-A      1.9729 eV  628.45 nm  f=0.0000  <S**2>=0.000
     312 -> 313        0.70711

 Excited State   4:      Singlet-A      2.0049 eV  618.40 nm  f=0.0000  <S**2>=0.000
     311 -> 314        0.70711

 Excited State   5:      Singlet-A      2.1781 eV  569.24 nm  f=0.1122  <S**2>=0.000
     310 -> 313        0.65716
     311 -> 315       -0.25110

 The electronic state is 1-A.
 Alpha  occ. eigenvalues --  -46.92285 -46.92038 -19.26854 -19.25185 -19.20716
 Alpha  occ. eigenvalues --  -19.20261 -19.19961 -19.19050 -19.18737 -19.18417
 Alpha  occ. eigenvalues --  -14.42724 -14.41383 -14.41076 -14.40961 -14.39597
 Alpha  occ. eigenvalues --  -14.39442 -14.39249 -14.38898 -10.37023 -10.36470
 Alpha  occ. eigenvalues --  -10.32578 -10.32470 -10.32123 -10.32070 -10.29616
 Alpha  occ. eigenvalues --  -10.29351 -10.29039 -10.28950 -10.28923 -10.28830
 Alpha  occ. eigenvalues --  -10.28519 -10.28488 -10.28275 -10.28274 -10.28110
 Alpha  occ. eigenvalues --  -10.28041 -10.28027 -10.27956 -10.27504 -10.27430
 Alpha  occ. eigenvalues --  -10.26751 -10.26730 -10.26687 -10.26475 -10.26389
 Alpha  occ. eigenvalues --  -10.26330 -10.26317 -10.26290 -10.26128 -10.25969
 Alpha  occ. eigenvalues --  -10.25835 -10.25788 -10.25599 -10.25583 -10.25437
 Alpha  occ. eigenvalues --  -10.25417 -10.25410 -10.25356 -10.25255 -10.25187
 Alpha  occ. eigenvalues --  -10.25096 -10.25068 -10.24920 -10.24908 -10.24906
 Alpha  occ. eigenvalues --  -10.24896 -10.24884 -10.24797 -10.24589 -10.24531
 Alpha  occ. eigenvalues --  -10.24292 -10.24152 -10.23999 -10.23894 -10.23790
 Alpha  occ. eigenvalues --  -10.23692 -10.23676 -10.23512 -10.23360 -10.23082
 Alpha  occ. eigenvalues --  -10.22821 -10.22584 -10.22522 -10.22417 -10.22282
 Alpha  occ. eigenvalues --  -10.21914  -3.14418  -3.14115  -1.87248  -1.86979
 Alpha  occ. eigenvalues --   -1.86780  -1.86659  -1.86466  -1.86355  -1.11238
 Alpha  occ. eigenvalues --   -1.10375  -1.06641  -1.05572  -1.02902  -1.02248
 Alpha  occ. eigenvalues --   -1.01979  -1.01576  -1.00109  -0.99839  -0.99399
 Alpha  occ. eigenvalues --   -0.98330  -0.97982  -0.97847  -0.97027  -0.96424
 Alpha  occ. eigenvalues --   -0.87479  -0.87425  -0.84270  -0.83727  -0.83666
 Alpha  occ. eigenvalues --   -0.83000  -0.82607  -0.82410  -0.82284  -0.82002
 Alpha  occ. eigenvalues --   -0.81813  -0.81305  -0.80806  -0.80336  -0.78935
 Alpha  occ. eigenvalues --   -0.78901  -0.78104  -0.77910  -0.76973  -0.76833
 Alpha  occ. eigenvalues --   -0.76572  -0.76207  -0.75692  -0.75508  -0.74787
 Alpha  occ. eigenvalues --   -0.74234  -0.72993  -0.72576  -0.71952  -0.71682
 Alpha  occ. eigenvalues --   -0.71512  -0.71188  -0.70587  -0.70574  -0.69704
 Alpha  occ. eigenvalues --   -0.69344  -0.67663  -0.67016  -0.66659  -0.65761
 Alpha  occ. eigenvalues --   -0.64160  -0.64062  -0.63836  -0.63303  -0.62845
 Alpha  occ. eigenvalues --   -0.62312  -0.61409  -0.61211  -0.60583  -0.60211
 Alpha  occ. eigenvalues --   -0.60146  -0.59646  -0.59450  -0.59286  -0.58841
 Alpha  occ. eigenvalues --   -0.57903  -0.57493  -0.56399  -0.54777  -0.54713
 Alpha  occ. eigenvalues --   -0.54550  -0.54466  -0.54048  -0.53766  -0.53625
 Alpha  occ. eigenvalues --   -0.53466  -0.53079  -0.52916  -0.52295  -0.52217
 Alpha  occ. eigenvalues --   -0.50924  -0.50769  -0.50417  -0.50337  -0.50152
 Alpha  occ. eigenvalues --   -0.49433  -0.49251  -0.49111  -0.49076  -0.48659
 Alpha  occ. eigenvalues --   -0.48505  -0.48312  -0.48117  -0.47964  -0.47943
 Alpha  occ. eigenvalues --   -0.47705  -0.47556  -0.47130  -0.47092  -0.46601
 Alpha  occ. eigenvalues --   -0.46529  -0.46312  -0.46050  -0.45957  -0.45923
 Alpha  occ. eigenvalues --   -0.45870  -0.45484  -0.45363  -0.45163  -0.44955
 Alpha  occ. eigenvalues --   -0.44745  -0.44614  -0.44574  -0.44517  -0.44309
 Alpha  occ. eigenvalues --   -0.44221  -0.44028  -0.43971  -0.43851  -0.43728
 Alpha  occ. eigenvalues --   -0.43476  -0.43151  -0.43030  -0.42840  -0.42556
 Alpha  occ. eigenvalues --   -0.42427  -0.42400  -0.42352  -0.42323  -0.42195
 Alpha  occ. eigenvalues --   -0.42154  -0.41934  -0.41748  -0.41451  -0.41368
 Alpha  occ. eigenvalues --   -0.41131  -0.41069  -0.40785  -0.40767  -0.40685
 Alpha  occ. eigenvalues --   -0.40433  -0.40368  -0.40152  -0.40050  -0.40014
 Alpha  occ. eigenvalues --   -0.39782  -0.39617  -0.39310  -0.39132  -0.38876
 Alpha  occ. eigenvalues --   -0.38578  -0.38566  -0.38429  -0.38402  -0.38349
 Alpha  occ. eigenvalues --   -0.38093  -0.38028  -0.37918  -0.37845  -0.37762
 Alpha  occ. eigenvalues --   -0.37653  -0.37642  -0.37330  -0.37292  -0.37221
 Alpha  occ. eigenvalues --   -0.36695  -0.36422  -0.36411  -0.36121  -0.35912
 Alpha  occ. eigenvalues --   -0.35890  -0.35836  -0.35697  -0.35277  -0.35276
 Alpha  occ. eigenvalues --   -0.35208  -0.35178  -0.34715  -0.34457  -0.33933
 Alpha  occ. eigenvalues --   -0.33741  -0.33297  -0.33219  -0.32708  -0.32640
 Alpha  occ. eigenvalues --   -0.32580  -0.32350  -0.32115  -0.31517  -0.31457
 Alpha  occ. eigenvalues --   -0.31224  -0.30859  -0.29919  -0.29820  -0.29541
 Alpha  occ. eigenvalues --   -0.29270  -0.28818  -0.28634  -0.27133  -0.26989
 Alpha  occ. eigenvalues --   -0.26112  -0.25991  -0.25710  -0.25590  -0.25303
 Alpha  occ. eigenvalues --   -0.25264  -0.25196  -0.24900  -0.21144  -0.21036
 Alpha  occ. eigenvalues --   -0.18966  -0.18942
 Alpha virt. eigenvalues --   -0.11443  -0.11348  -0.05256  -0.05218  -0.03924
 Alpha virt. eigenvalues --   -0.03823  -0.02239  -0.02038  -0.00547  -0.00186
 Alpha virt. eigenvalues --    0.00031   0.00729   0.00897   0.00929   0.01342

 Mulliken charges:
               1
     1  Mg  12.004479
     2  C    5.982811
     3  C    6.012116
     4  C    6.013926
     5  C    5.990122
     6  N    6.988900
     7  C    6.037833
     8  C    5.986201
     9  C    6.016499
    10  C    5.962647
    11  C    6.003521
    12  C    5.998963
    13  C    5.999865
    14  H    0.996625
    15  N    7.007170
    16  C    5.957469
    17  C    5.987620
    18  C    5.978861
    19  C    5.972733
    20  C    6.000420
    21  C    5.988492
    22  O    7.971963
    23  C    6.002556
    24  N    7.000929
    25  C    5.974267
    26  C    6.003323
    27  C    5.995911
    28  C    6.027060
    29  C    5.998369
    30  C    5.993920
    31  C    6.000340
    32  N    7.001956
    33  C    6.037641
    34  C    6.032680
    35  C    6.000306
    36  C    6.026166
    37  C    5.999559
    38  C    6.013556
    39  O    8.028933
    40  C    6.003316
    41  C    6.005386
    42  O    8.002162
    43  O    8.002845
    44  C    5.997922
    45  H    0.989684
    46  H    0.995576
    47  H    1.007841
    48  H    0.997877
    49  H    0.994547
    50  H    0.992140
    51  H    0.986417
    52  H    1.005646
    53  H    1.010643
    54  H    0.994061
    55  H    1.002821
    56  H    1.005255
    57  H    0.985980
    58  H    0.985751
    59  H    0.986306
    60  H    0.992446
    61  H    0.992916
    62  H    0.986368
    63  H    1.001225
    64  H    1.000424
    65  H    0.988720
    66  H    0.998521
    67  H    1.006330
    68  H    1.007046
    69  H    0.993713
    70  H    0.994121
    71  H    1.015215
    72  H    1.002767
    73  H    1.020966
    74  H    1.012766
    75  H    1.019388
    76  H    1.005915
    77  H    1.001471
    78  H    1.005292
    79  H    1.005508
    80  Mg  12.000007
    81  C    5.999954
    82  C    6.000086
    83  C    6.000056
    84  C    5.999908
    85  N    7.000025
    86  C    6.000141
    87  C    5.999961
    88  C    6.000045
    89  C    5.999836
    90  C    6.000019
    91  C    5.999951
    92  C    5.999990
    93  H    1.000059
    94  N    7.000011
    95  C    5.999712
    96  C    5.999854
    97  C    5.999918
    98  C    5.999808
    99  C    6.000043
   100  C    5.999910
   101  O    7.999816
   102  C    5.999993
   103  N    6.999997
   104  C    5.999822
   105  C    6.000067
   106  C    5.999940
   107  C    6.000192
   108  C    6.000010
   109  C    5.999982
   110  C    5.999989
   111  N    7.000007
   112  C    6.000216
   113  C    6.000194
   114  C    6.000039
   115  C    6.000176
   116  C    5.999997
   117  C    6.000113
   118  O    8.000209
   119  C    6.000021
   120  C    6.000038
   121  O    8.000034
   122  O    8.000013
   123  C    5.999981
   124  H    0.999918
   125  H    0.999951
   126  H    1.000060
   127  H    1.000003
   128  H    0.999977
   129  H    1.000022
   130  H    0.999967
   131  H    0.999930
   132  H    1.000067
   133  H    0.999974
   134  H    0.999996
   135  H    1.000009
   136  H    0.999862
   137  H    0.999847
   138  H    0.999878
   139  H    0.999935
   140  H    0.999900
   141  H    0.999957
   142  H    0.999990
   143  H    1.000019
   144  H    0.999969
   145  H    1.000035
   146  H    0.999963
   147  H    0.999969
   148  H    1.000060
   149  H    1.000001
   150  H    1.000039
   151  H    1.000013
   152  H    1.000105
   153  H    1.000135
   154  H    1.000133
   155  H    1.000072
   156  H    1.000034
   157  H    1.000028
   158  H    1.000044
 Sum of Mulliken charges = 624.00000

 Dipole moment (field-independent basis, Debye):
    X=              3.7482    Y=             -9.1675    Z=             -2.0893  Tot=             10.1221
 Quadrupole moment (field-independent basis, Debye-Ang):
   XX=           -194.9517   YY=             -5.4765   ZZ=              3.3686
   XY=            247.8865   XZ=             55.5162   YZ=              3.2071

 Normal termination of Gaussian 16 at Wed Oct 13 21:18:53 2021.
