 Gaussian 16, Revision A.03,
 Gaussian 16:  ES64L-G16RevA.03 25-Dec-2016

 --------------------------------------------------------
 #p PBE1PBE/Def2SVP td=(nstates=5) density=(transition=1)
 --------------------------------------------------------

 --------------------------------
 TDDFT excited states in gaussian
 --------------------------------
 Symbolic Z-matrix:
 Charge =  0 Multiplicity = 1

                         Standard orientation:
 ---------------------------------------------------------------------
 Center     Atomic      Atomic             Coordinates (Angstroms)
 Number     Number       Type             X           Y           Z
 ---------------------------------------------------------------------
      1         12           0       14.124410   -0.513878    0.288439
      2          6           0       11.138332   -2.136585   -0.773302
      3          6           0       14.938977    0.074905   -2.986093
      4          6           0       16.402400    1.923820    1.344587
      5          6           0       12.935560   -0.636024    3.593009
      6          7           0       12.901846   -0.816341   -1.677707
      7          6           0       11.887965   -1.672991   -1.882502
      8          6           0       11.869890   -2.090511   -3.341583
      9          6           0       13.059887   -1.324394   -4.096504
     10          6           0       13.765522   -0.756906   -2.762860
     11          6           0       13.913334   -2.361280   -4.860881
     12          6           0       10.515662   -1.803971   -3.970110
     13          6           0        9.805517   -0.500054   -3.535039
     14          1           0        9.767218    0.656463   -4.571032
     15          7           0       15.576987    0.782515   -0.693008
     16          6           0       15.696857    0.842271   -2.064412
     17          6           0       16.847316    1.651690   -2.317906
     18          6           0       17.273680    2.306497   -1.100089
     19          6           0       16.453598    1.659558   -0.044763
     20          6           0       17.333272    1.961397   -3.714915
     21          6           0       18.228756    3.492399   -0.955654
     22          8           0       18.701294    4.017149   -1.945530
     23          6           0       18.603865    4.054584    0.307131
     24          7           0       14.542645    0.581603    2.170449
     25          6           0       15.587215    1.377366    2.346055
     26          6           0       15.704138    1.915225    3.762939
     27          6           0       14.347345    1.354667    4.371622
     28          6           0       13.930878    0.330663    3.378313
     29          6           0       17.009928    1.404393    4.546665
     30          6           0       13.315115    2.546942    4.628900
     31          6           0       12.940821    2.943257    6.029026
     32          7           0       12.596580   -1.401494    1.246189
     33          6           0       12.304465   -1.472720    2.623538
     34          6           0       11.160103   -2.370692    2.866680
     35          6           0       10.734993   -2.637448    1.565342
     36          6           0       11.528518   -1.950827    0.581137
     37          6           0       10.629031   -2.970990    4.214110
     38          6           0        9.695620   -3.360871    0.825924
     39          8           0        8.754395   -4.090724    1.178509
     40          6           0        9.909953   -3.092715   -0.700301
     41          6           0        8.634720   -2.388582   -1.012402
     42          8           0        8.251903   -1.375741   -0.485147
     43          8           0        7.914180   -3.108210   -1.867782
     44          6           0        6.619575   -2.550607   -2.394097
     45          1           0       15.355721    0.007089   -3.993011
     46          1           0       17.105659    2.609183    1.821844
     47          1           0       12.596193   -0.518834    4.624810
     48          1           0       12.014892   -3.161419   -3.199151
     49          1           0       12.697560   -0.536883   -4.757832
     50          1           0       13.890767   -2.103900   -5.919628
     51          1           0       13.548551   -3.386501   -4.792892
     52          1           0       14.929646   -2.242076   -4.486340
     53          1           0        9.831756   -2.623819   -3.750344
     54          1           0       10.610046   -1.702195   -5.051628
     55          1           0       10.247860    0.070219   -2.718320
     56          1           0        8.794028   -0.816303   -3.279871
     57          1           0       16.682926    1.529227   -4.475858
     58          1           0       18.378140    1.654910   -3.774874
     59          1           0       17.398232    3.045514   -3.800614
     60          1           0       17.793330    4.511249    0.875510
     61          1           0       19.351059    4.831606    0.146900
     62          1           0       18.971694    3.186163    0.854690
     63          1           0       15.621157    2.999388    3.834807
     64          1           0       14.673038    1.059925    5.369357
     65          1           0       17.624088    0.802824    3.875935
     66          1           0       16.666752    0.755059    5.352306
     67          1           0       17.612618    2.176562    5.027290
     68          1           0       12.323578    2.298976    4.249951
     69          1           0       13.646171    3.462264    4.140219
     70          1           0       11.972405    2.561264    6.352160
     71          1           0       12.898275    4.025517    5.902180
     72          1           0       13.739662    2.841369    6.763769
     73          1           0       10.088954   -2.181758    4.736398
     74          1           0       11.492648   -3.364640    4.750369
     75          1           0        9.893656   -3.740485    3.979858
     76          1           0       10.052701   -4.072022   -1.158593
     77          1           0        5.776375   -2.739970   -1.729436
     78          1           0        6.374958   -2.975616   -3.368411
     79          1           0        6.806954   -1.483265   -2.511309
     80         12           0      -13.192897    0.929130   -0.565633
     81          6           0      -13.986264   -2.419098    0.234252
     82          6           0      -10.008729    0.128643   -0.873427
     83          6           0      -12.477205    4.266762   -0.421306
     84          6           0      -16.507164    1.790487    0.830395
     85          7           0      -12.147015   -0.958422   -0.276386
     86          6           0      -12.678378   -2.195797   -0.199953
     87          6           0      -11.578619   -3.236300   -0.488841
     88          6           0      -10.361888   -2.448170   -0.854570
     89          6           0      -10.823103   -0.976894   -0.625911
     90          6           0       -9.053820   -2.955732   -0.120664
     91          6           0      -11.894173   -4.397996   -1.489465
     92          6           0      -10.799193   -4.998322   -2.471624
     93          1           0      -10.702042   -6.524257   -2.614817
     94          7           0      -11.491439    2.025645   -0.887732
     95          6           0      -10.232352    1.481149   -1.002996
     96          6           0       -9.316140    2.554580   -1.264523
     97          6           0       -9.986189    3.829746   -1.104933
     98          6           0      -11.357103    3.408971   -0.740706
     99          6           0       -7.895211    2.218498   -1.473699
    100          6           0       -9.475378    5.275723   -1.320939
    101          8           0      -10.183465    6.199965   -1.090962
    102          6           0       -8.195026    5.523570   -2.049929
    103          7           0      -14.349939    2.753580    0.175541
    104          6           0      -13.798397    3.969509   -0.036903
    105          6           0      -14.769607    5.130298    0.350141
    106          6           0      -16.077453    4.363702    0.715345
    107          6           0      -15.658893    2.877428    0.594509
    108          6           0      -14.302834    6.025509    1.467081
    109          6           0      -17.365685    4.652357   -0.132081
    110          6           0      -17.499350    4.040466   -1.485522
    111          7           0      -14.955329    0.003481    0.342143
    112          6           0      -16.163356    0.472860    0.772068
    113          6           0      -17.017640   -0.641229    1.103828
    114          6           0      -16.240277   -1.815565    0.923989
    115          6           0      -14.974941   -1.358788    0.502683
    116          6           0      -18.375919   -0.599764    1.710071
    117          6           0      -16.207589   -3.245599    1.039479
    118          8           0      -17.045508   -4.084654    1.349556
    119          6           0      -14.762481   -3.709912    0.551177
    120          6           0      -14.088551   -4.668296    1.518562
    121          8           0      -13.751145   -4.368672    2.634770
    122          8           0      -13.897340   -5.889253    0.891527
    123          6           0      -13.283377   -6.894676    1.759588
    124          1           0       -8.982495   -0.068633   -1.191476
    125          1           0      -12.181995    5.317519   -0.447324
    126          1           0      -17.524447    2.034698    1.143063
    127          1           0      -11.537361   -3.694942    0.499121
    128          1           0      -10.152315   -2.641656   -1.906948
    129          1           0       -9.273869   -3.881221    0.411203
    130          1           0       -8.660616   -2.123442    0.463038
    131          1           0       -8.302668   -3.288888   -0.837061
    132          1           0      -12.703627   -4.044181   -2.128450
    133          1           0      -12.318573   -5.265533   -0.983450
    134          1           0       -9.856218   -4.599573   -2.097061
    135          1           0      -10.948576   -4.578571   -3.466480
    136          1           0       -7.333151    3.027509   -1.007668
    137          1           0       -7.712466    2.263452   -2.546678
    138          1           0       -7.467811    1.276027   -1.130983
    139          1           0       -7.471536    5.561861   -1.236609
    140          1           0       -8.308233    6.408922   -2.676323
    141          1           0       -7.850100    4.698160   -2.673075
    142          1           0      -15.050528    5.730250   -0.515679
    143          1           0      -16.440844    4.377039    1.742422
    144          1           0      -13.255133    5.845409    1.711368
    145          1           0      -14.850245    5.849154    2.393386
    146          1           0      -14.440232    7.042768    1.101306
    147          1           0      -17.481528    5.727858   -0.266596
    148          1           0      -18.228519    4.441542    0.500126
    149          1           0      -16.512139    3.793874   -1.876777
    150          1           0      -17.924630    4.601184   -2.318186
    151          1           0      -18.167207    3.190385   -1.342557
    152          1           0      -18.431000   -0.100589    2.677056
    153          1           0      -18.567653   -1.617234    2.051711
    154          1           0      -19.120763   -0.219091    1.010670
    155          1           0      -14.920277   -4.193890   -0.412862
    156          1           0      -12.376557   -6.866503    1.156242
    157          1           0      -13.898630   -7.778165    1.590907
    158          1           0      -13.191460   -6.569681    2.796166
 ---------------------------------------------------------------------

 SCF Done:  E(RPBE1PBE) =  -4067.32364497     A.U. after   16 cycles

 Excitation energies and oscillator strengths:

 Excited State   1:      Singlet-A      1.8530 eV  669.12 nm  f=0.4527  <S**2>=0.000
     309 -> 315       -0.19160
     311 -> 313        0.67925
     312 -> 314        0.10552
 This state for optimization and/or second-order correction.
 Total Energy, E(TD-HF/TD-DFT) =  -4067.25555011
 Copying the excited state density for this state as the 1-particle RhoCI density.

 Excited State   2:      Singlet-A      1.8557 eV  668.13 nm  f=0.0000  <S**2>=0.000
     312 -> 313        0.70710

 Excited State   3:      Singlet-A      1.8613 eV  666.13 nm  f=0.2692  <S**2>=0.000
     310 -> 316       -0.17729
     311 -> 313       -0.10464
     312 -> 314        0.68317
     312 <- 314       -0.10641

 Excited State   4:      Singlet-A      2.0462 eV  605.91 nm  f=0.0000  <S**2>=0.000
     311 -> 314        0.70710

 Excited State   5:      Singlet-A      2.1921 eV  565.59 nm  f=0.1034  <S**2>=0.000
     310 -> 314        0.65379
     312 -> 316        0.25421

 The electronic state is 1-A.
 Alpha  occ. eigenvalues --  -46.93656 -46.93357 -19.25815 -19.25422 -19.20226
 Alpha  occ. eigenvalues --  -19.19653 -19.19215 -19.19180 -19.18877 -19.18322
 Alpha  occ. eigenvalues --  -14.42002 -14.41717 -14.41532 -14.41212 -14.39918
 Alpha  occ. eigenvalues --  -14.39267 -14.39098 -14.38480 -10.36104 -10.35837
 Alpha  occ. eigenvalues --  -10.32734 -10.32269 -10.31943 -10.31474 -10.29848
 Alpha  occ. eigenvalues --  -10.29797 -10.29249 -10.29219 -10.28870 -10.28842
 Alpha  occ. eigenvalues --  -10.28623 -10.28576 -10.28514 -10.28485 -10.28426
 Alpha  occ. eigenvalues --  -10.28370 -10.28161 -10.27786 -10.27545 -10.27115
 Alpha  occ. eigenvalues --  -10.26992 -10.26791 -10.26757 -10.26647 -10.26620
 Alpha  occ. eigenvalues --  -10.26322 -10.26225 -10.26123 -10.26081 -10.26035
 Alpha  occ. eigenvalues --  -10.25987 -10.25832 -10.25780 -10.25754 -10.25742
 Alpha  occ. eigenvalues --  -10.25619 -10.25551 -10.25461 -10.25414 -10.25260
 Alpha  occ. eigenvalues --  -10.25205 -10.25159 -10.25047 -10.24795 -10.24633
 Alpha  occ. eigenvalues --  -10.24510 -10.24376 -10.24373 -10.24357 -10.24299
 Alpha  occ. eigenvalues --  -10.24261 -10.24156 -10.23959 -10.23942 -10.23799
 Alpha  occ. eigenvalues --  -10.23747 -10.23744 -10.23732 -10.23635 -10.23029
 Alpha  occ. eigenvalues --  -10.22985 -10.22822 -10.22644 -10.22536 -10.22532
 Alpha  occ. eigenvalues --  -10.22346  -3.15550  -3.15250  -1.88351  -1.88060
 Alpha  occ. eigenvalues --   -1.87954  -1.87749  -1.87631  -1.87462  -1.11934
 Alpha  occ. eigenvalues --   -1.11047  -1.07547  -1.04994  -1.03966  -1.03660
 Alpha  occ. eigenvalues --   -1.03365  -1.02621  -0.99285  -0.98791  -0.98352
 Alpha  occ. eigenvalues --   -0.97748  -0.97161  -0.97092  -0.96443  -0.96297
 Alpha  occ. eigenvalues --   -0.86387  -0.85949  -0.83517  -0.83320  -0.83135
 Alpha  occ. eigenvalues --   -0.83117  -0.82630  -0.82513  -0.81658  -0.81478
 Alpha  occ. eigenvalues --   -0.81382  -0.80554  -0.80418  -0.79682  -0.78988
 Alpha  occ. eigenvalues --   -0.78403  -0.78236  -0.77918  -0.77161  -0.76914
 Alpha  occ. eigenvalues --   -0.76625  -0.76202  -0.75519  -0.75129  -0.74729
 Alpha  occ. eigenvalues --   -0.74680  -0.72546  -0.72317  -0.71719  -0.71407
 Alpha  occ. eigenvalues --   -0.71363  -0.70770  -0.70642  -0.70164  -0.69374
 Alpha  occ. eigenvalues --   -0.68989  -0.67378  -0.66767  -0.66259  -0.65838
 Alpha  occ. eigenvalues --   -0.64066  -0.63610  -0.63309  -0.62996  -0.62668
 Alpha  occ. eigenvalues --   -0.62620  -0.61289  -0.61212  -0.60078  -0.59701
 Alpha  occ. eigenvalues --   -0.59451  -0.59419  -0.58743  -0.58649  -0.58608
 Alpha  occ. eigenvalues --   -0.58476  -0.57105  -0.56236  -0.54921  -0.54494
 Alpha  occ. eigenvalues --   -0.54057  -0.53929  -0.53669  -0.53350  -0.53173
 Alpha  occ. eigenvalues --   -0.52902  -0.52520  -0.52476  -0.51913  -0.51908
 Alpha  occ. eigenvalues --   -0.50834  -0.50576  -0.50440  -0.50384  -0.49878
 Alpha  occ. eigenvalues --   -0.49682  -0.49578  -0.49575  -0.49193  -0.49136
 Alpha  occ. eigenvalues --   -0.48598  -0.48533  -0.48148  -0.48122  -0.47765
 Alpha  occ. eigenvalues --   -0.47707  -0.47381  -0.47293  -0.46995  -0.46925
 Alpha  occ. eigenvalues --   -0.46740  -0.46498  -0.46342  -0.46163  -0.45692
 Alpha  occ. eigenvalues --   -0.45463  -0.45331  -0.45303  -0.45137  -0.44874
 Alpha  occ. eigenvalues --   -0.44810  -0.44614  -0.44445  -0.44365  -0.44123
 Alpha  occ. eigenvalues --   -0.44101  -0.43891  -0.43836  -0.43597  -0.43594
 Alpha  occ. eigenvalues --   -0.43350  -0.43200  -0.43195  -0.43005  -0.42892
 Alpha  occ. eigenvalues --   -0.42517  -0.42282  -0.42029  -0.41871  -0.41811
 Alpha  occ. eigenvalues --   -0.41713  -0.41678  -0.41437  -0.41405  -0.41107
 Alpha  occ. eigenvalues --   -0.40737  -0.40615  -0.40466  -0.40365  -0.40248
 Alpha  occ. eigenvalues --   -0.40164  -0.40143  -0.39999  -0.39901  -0.39650
 Alpha  occ. eigenvalues --   -0.39327  -0.39289  -0.39214  -0.39015  -0.38836
 Alpha  occ. eigenvalues --   -0.38832  -0.38653  -0.38469  -0.38421  -0.38358
 Alpha  occ. eigenvalues --   -0.38072  -0.38070  -0.37832  -0.37783  -0.37658
 Alpha  occ. eigenvalues --   -0.37448  -0.37330  -0.37171  -0.36960  -0.36871
 Alpha  occ. eigenvalues --   -0.36690  -0.36411  -0.36391  -0.36300  -0.36201
 Alpha  occ. eigenvalues --   -0.35799  -0.35722  -0.35454  -0.35077  -0.35040
 Alpha  occ. eigenvalues --   -0.34973  -0.34802  -0.34053  -0.33871  -0.33721
 Alpha  occ. eigenvalues --   -0.33025  -0.33016  -0.32811  -0.32488  -0.32348
 Alpha  occ. eigenvalues --   -0.32186  -0.31938  -0.31864  -0.31497  -0.30845
 Alpha  occ. eigenvalues --   -0.30807  -0.30749  -0.29503  -0.29357  -0.29217
 Alpha  occ. eigenvalues --   -0.28924  -0.28776  -0.28641  -0.27095  -0.26497
 Alpha  occ. eigenvalues --   -0.26417  -0.26098  -0.25617  -0.25564  -0.25437
 Alpha  occ. eigenvalues --   -0.25356  -0.24989  -0.24559  -0.21303  -0.20727
 Alpha  occ. eigenvalues --   -0.19063  -0.18652
 Alpha virt. eigenvalues --   -0.11344  -0.11051  -0.06005  -0.05056  -0.04046
 Alpha virt. eigenvalues --   -0.03742  -0.02143  -0.01917  -0.01739  -0.01621
 Alpha virt. eigenvalues --    0.00337   0.00356   0.00861   0.01000   0.01752

 Mulliken charges:
               1
     1  Mg  12.005351
     2  C    6.011149
     3  C    5.976338
     4  C    5.987281
     5  C    6.018131
     6  N    7.006074
     7  C    5.973518
     8  C    6.001058
     9  C    5.986583
    10  C    6.039956
    11  C    5.999140
    12  C    6.002646
    13  C    6.007040
    14  H    0.987169
    15  N    6.991951
    16  C    6.040517
    17  C    6.017707
    18  C    6.010391
    19  C    6.034601
    20  C    5.997014
    21  C    6.011430
    22  O    8.016859
    23  C    5.996347
    24  N    7.003540
    25  C    6.025893
    26  C    5.987940
    27  C    6.014047
    28  C    5.963557
    29  C    5.997437
    30  C    6.000669
    31  C    6.001586
    32  N    7.003268
    33  C    5.960880
    34  C    5.973790
    35  C    5.998494
    36  C    5.970545
    37  C    5.995879
    38  C    5.984168
    39  O    7.968266
    40  C    6.000208
    41  C    5.993618
    42  O    7.997579
    43  O    7.998673
    44  C    6.001647
    45  H    1.006413
    46  H    1.009480
    47  H    0.991241
    48  H    1.005463
    49  H    1.005327
    50  H    1.004038
    51  H    1.009964
    52  H    0.996096
    53  H    1.004816
    54  H    0.992791
    55  H    1.000049
    56  H    1.003758
    57  H    1.017577
    58  H    1.017823
    59  H    1.015316
    60  H    1.010401
    61  H    1.011495
    62  H    1.006328
    63  H    1.001574
    64  H    0.995738
    65  H    0.996795
    66  H    1.011429
    67  H    1.001407
    68  H    1.003422
    69  H    0.987621
    70  H    1.002395
    71  H    0.995233
    72  H    0.995695
    73  H    0.984652
    74  H    0.986248
    75  H    0.990314
    76  H    0.990747
    77  H    0.998157
    78  H    0.994454
    79  H    0.995808
    80  Mg  12.000031
    81  C    6.003778
    82  C    5.999234
    83  C    5.997250
    84  C    5.999819
    85  N    7.002271
    86  C    5.994864
    87  C    6.000968
    88  C    5.998198
    89  C    6.004634
    90  C    6.000003
    91  C    6.000261
    92  C    5.999587
    93  H    1.000455
    94  N    6.998949
    95  C    6.005266
    96  C    6.003118
    97  C    6.002469
    98  C    6.004220
    99  C    5.999050
   100  C    6.001997
   101  O    8.003600
   102  C    5.999350
   103  N    6.999643
   104  C    6.004149
   105  C    5.998337
   106  C    6.000485
   107  C    5.996243
   108  C    5.999967
   109  C    6.000800
   110  C    6.001089
   111  N    7.000218
   112  C    5.995716
   113  C    5.994281
   114  C    6.000181
   115  C    5.995163
   116  C    6.000332
   117  C    5.997702
   118  O    7.995691
   119  C    5.999605
   120  C    5.999433
   121  O    7.999535
   122  O    7.999748
   123  C    6.000160
   124  H    1.001691
   125  H    1.000595
   126  H    0.998096
   127  H    1.000490
   128  H    1.000705
   129  H    1.001817
   130  H    0.999711
   131  H    1.000677
   132  H    1.000171
   133  H    1.000606
   134  H    0.999251
   135  H    0.999613
   136  H    1.002720
   137  H    1.002988
   138  H    1.003187
   139  H    1.001456
   140  H    1.001761
   141  H    1.000601
   142  H    1.000015
   143  H    1.000095
   144  H    0.999007
   145  H    1.001186
   146  H    0.999979
   147  H    0.998197
   148  H    1.000108
   149  H    0.998660
   150  H    0.998701
   151  H    1.000910
   152  H    0.996634
   153  H    0.998005
   154  H    0.996856
   155  H    0.999019
   156  H    0.999271
   157  H    0.999624
   158  H    0.999751
 Sum of Mulliken charges = 624.00000

 Dipole moment (field-independent basis, Debye):
    X=              8.7525    Y=              5.3536    Z=             -4.8561  Tot=             11.3511
 Quadrupole moment (field-independent basis, Debye-Ang):
   XX=            165.1160   YY=             -1.5345   ZZ=             -2.7805
   XY=             56.9869   XZ=            -56.7855   YZ=              2.0054

 Normal termination of Gaussian 16 at Wed Oct 13 23:14:04 2021.
