 Gaussian 16, Revision A.03,
 Gaussian 16:  ES64L-G16RevA.03 25-Dec-2016

 --------------------------------------------------------
 #p PBE1PBE/Def2SVP td=(nstates=5) density=(transition=1)
 --------------------------------------------------------

 --------------------------------
 TDDFT excited states in gaussian
 --------------------------------
 Symbolic Z-matrix:
 Charge =  0 Multiplicity = 1

                         Standard orientation:
 ---------------------------------------------------------------------
 Center     Atomic      Atomic             Coordinates (Angstroms)
 Number     Number       Type             X           Y           Z
 ---------------------------------------------------------------------
      1         12           0      -27.014620   -0.353490   -0.403545
      2          6           0      -25.261361    2.611101   -0.518933
      3          6           0      -28.568178    0.831722    2.405151
      4          6           0      -28.522172   -3.361367   -0.113070
      5          6           0      -24.968840   -1.663927   -2.890846
      6          7           0      -26.760617    1.522690    0.851983
      7          6           0      -26.179888    2.610893    0.520216
      8          6           0      -26.415654    3.880243    1.490549
      9          6           0      -27.267048    3.149536    2.602667
     10          6           0      -27.510123    1.691518    1.985115
     11          6           0      -26.521514    2.964751    4.026438
     12          6           0      -27.153868    5.121417    0.825090
     13          6           0      -26.789284    6.555618    1.349269
     14          1           0      -25.970986    6.624722    2.603158
     15          7           0      -28.377878   -1.118121    0.868289
     16          6           0      -29.009521   -0.434665    1.980534
     17          6           0      -29.994658   -1.347599    2.550922
     18          6           0      -29.914427   -2.606125    1.904295
     19          6           0      -28.943019   -2.391114    0.808047
     20          6           0      -30.865666   -0.812271    3.629817
     21          6           0      -30.710356   -3.914637    2.120068
     22          8           0      -30.494509   -4.959586    1.581822
     23          6           0      -31.747620   -3.862972    3.260018
     24          7           0      -26.750916   -2.324436   -1.267966
     25          6           0      -27.454621   -3.381215   -1.010493
     26          6           0      -26.858449   -4.648846   -1.685714
     27          6           0      -25.796124   -4.084386   -2.659200
     28          6           0      -25.825742   -2.583225   -2.287182
     29          6           0      -26.289751   -5.623139   -0.632228
     30          6           0      -26.119181   -4.408558   -4.150079
     31          6           0      -25.931992   -5.881141   -4.549627
     32          7           0      -25.412021    0.306603   -1.522757
     33          6           0      -24.756665   -0.318430   -2.568742
     34          6           0      -23.821294    0.639435   -3.096946
     35          6           0      -23.912846    1.833451   -2.320765
     36          6           0      -24.952040    1.529037   -1.399785
     37          6           0      -22.920336    0.393464   -4.162414
     38          6           0      -23.492900    3.185193   -2.130335
     39          8           0      -22.561782    3.811081   -2.719285
     40          6           0      -24.287688    3.687955   -0.863301
     41          6           0      -23.311875    4.045547    0.144024
     42          8           0      -22.760798    3.241231    0.895116
     43          8           0      -23.030547    5.377842   -0.021411
     44          6           0      -21.862167    5.825657    0.765653
     45          1           0      -29.061242    1.172393    3.317494
     46          1           0      -29.068018   -4.297586    0.026069
     47          1           0      -24.401655   -2.100146   -3.716311
     48          1           0      -25.416081    4.098237    1.867486
     49          1           0      -28.181978    3.707648    2.800454
     50          1           0      -25.448852    3.066080    3.859003
     51          1           0      -26.741108    1.976356    4.429819
     52          1           0      -26.801957    3.665027    4.813922
     53          1           0      -28.204496    4.943113    1.052645
     54          1           0      -27.246762    5.103884   -0.261349
     55          1           0      -27.655783    7.193763    1.522195
     56          1           0      -26.148873    7.047298    0.616937
     57          1           0      -30.371289   -0.892784    4.598337
     58          1           0      -31.883486   -1.200335    3.587993
     59          1           0      -31.009608    0.247188    3.419189
     60          1           0      -32.651011   -3.298219    3.027614
     61          1           0      -31.161930   -3.410278    4.059465
     62          1           0      -32.068675   -4.826665    3.654266
     63          1           0      -27.715088   -5.047790   -2.228434
     64          1           0      -24.811341   -4.460608   -2.382239
     65          1           0      -25.996244   -5.175213    0.317401
     66          1           0      -25.364372   -6.149758   -0.867922
     67          1           0      -27.082053   -6.351411   -0.459322
     68          1           0      -25.439425   -3.842962   -4.785859
     69          1           0      -27.137362   -4.094862   -4.382777
     70          1           0      -25.692234   -6.439052   -3.644435
     71          1           0      -24.995225   -5.979040   -5.098451
     72          1           0      -26.697439   -6.365620   -5.155344
     73          1           0      -23.520158   -0.124560   -4.910821
     74          1           0      -22.074024   -0.256186   -3.939828
     75          1           0      -22.468600    1.340848   -4.458323
     76          1           0      -24.772278    4.594646   -1.226449
     77          1           0      -20.998461    5.314810    0.339107
     78          1           0      -22.019532    5.699400    1.836306
     79          1           0      -21.744349    6.894573    0.587099
     80         12           0       25.943030   -0.859719    0.202490
     81          6           0       26.931967    2.238660   -1.299800
     82          6           0       25.204958    1.034382    3.085405
     83          6           0       25.684506   -3.615744    1.946526
     84          6           0       27.058431   -2.501911   -2.558226
     85          7           0       26.020021    1.383092    0.765778
     86          6           0       26.356287    2.387249   -0.079143
     87          6           0       26.052853    3.713437    0.598344
     88          6           0       25.466454    3.410560    2.006024
     89          6           0       25.527308    1.871559    1.961849
     90          6           0       26.297519    4.106410    3.225518
     91          6           0       25.030466    4.606026   -0.227390
     92          6           0       25.412406    6.072455   -0.431481
     93          1           0       26.223745    6.864398    0.670971
     94          7           0       25.552050   -1.238425    2.269721
     95          6           0       25.264757   -0.364244    3.210802
     96          6           0       25.051527   -1.097735    4.426521
     97          6           0       25.026176   -2.488926    4.153456
     98          6           0       25.459963   -2.496138    2.780900
     99          6           0       24.589752   -0.432330    5.721960
    100          6           0       24.594769   -3.718585    4.937173
    101          8           0       24.726910   -4.853016    4.515719
    102          6           0       23.927063   -3.458990    6.259565
    103          7           0       26.661061   -2.745546   -0.151029
    104          6           0       26.228582   -3.786108    0.673161
    105          6           0       26.352813   -5.183024    0.006308
    106          6           0       26.637989   -4.728700   -1.474780
    107          6           0       26.797380   -3.209826   -1.408884
    108          6           0       27.455097   -6.014288    0.678566
    109          6           0       25.432418   -5.037828   -2.482905
    110          6           0       25.585079   -6.163072   -3.450648
    111          7           0       26.695134   -0.295713   -1.583445
    112          6           0       27.139861   -1.098663   -2.611468
    113          6           0       27.763830   -0.340779   -3.692915
    114          6           0       27.703199    1.018726   -3.220424
    115          6           0       27.171288    0.971082   -1.910202
    116          6           0       28.124597   -0.914115   -5.015440
    117          6           0       27.926335    2.412476   -3.572856
    118          8           0       28.363181    2.853523   -4.651498
    119          6           0       27.449560    3.302266   -2.288970
    120          6           0       28.651611    3.991802   -1.847656
    121          8           0       29.678455    3.426035   -1.541969
    122          8           0       28.471992    5.317500   -1.812548
    123          6           0       29.572706    6.263600   -1.447753
    124          1           0       24.891091    1.576675    3.979657
    125          1           0       25.234733   -4.550438    2.289765
    126          1           0       27.324515   -3.065814   -3.454400
    127          1           0       27.003797    4.230833    0.725362
    128          1           0       24.474149    3.842715    2.136268
    129          1           0       26.861949    4.967884    2.868482
    130          1           0       26.941374    3.314543    3.609145
    131          1           0       25.608105    4.407768    4.014013
    132          1           0       24.001950    4.581478    0.130073
    133          1           0       24.952811    4.214068   -1.241438
    134          1           0       24.539768    6.687886   -0.651238
    135          1           0       25.969550    6.044384   -1.367918
    136          1           0       23.513268   -0.477186    5.887935
    137          1           0       24.992755    0.575930    5.822020
    138          1           0       25.080974   -0.975445    6.529002
    139          1           0       23.221901   -2.627325    6.268972
    140          1           0       24.609362   -3.265643    7.086145
    141          1           0       23.228069   -4.269640    6.465539
    142          1           0       25.393256   -5.684975    0.127355
    143          1           0       27.535263   -5.245946   -1.814820
    144          1           0       27.839537   -5.589545    1.605771
    145          1           0       28.328539   -6.118457    0.035824
    146          1           0       27.074752   -7.016003    0.881242
    147          1           0       25.151433   -4.206074   -3.128893
    148          1           0       24.486957   -5.201796   -1.967190
    149          1           0       24.847916   -6.938367   -3.245765
    150          1           0       26.597836   -6.516140   -3.255426
    151          1           0       25.439732   -5.810824   -4.471826
    152          1           0       27.971600   -0.191655   -5.816434
    153          1           0       27.573712   -1.850558   -5.101237
    154          1           0       29.188009   -1.153031   -4.970207
    155          1           0       26.696832    4.039356   -2.565355
    156          1           0       30.459511    6.030338   -2.037339
    157          1           0       29.847594    6.201378   -0.394534
    158          1           0       29.287795    7.313339   -1.512658
 ---------------------------------------------------------------------

 SCF Done:  E(RPBE1PBE) =  -4067.38576237     A.U. after   17 cycles

 Excitation energies and oscillator strengths:

 Excited State   1:      Singlet-A      1.8475 eV  671.09 nm  f=0.3889  <S**2>=0.000
     309 -> 316        0.16132
     312 -> 313        0.69526
     312 <- 313       -0.11633
 This state for optimization and/or second-order correction.
 Total Energy, E(TD-HF/TD-DFT) =  -4067.31786779
 Copying the excited state density for this state as the 1-particle RhoCI density.

 Excited State   2:      Singlet-A      1.9096 eV  649.28 nm  f=0.3727  <S**2>=0.000
     310 -> 315       -0.19444
     311 -> 314        0.68532

 Excited State   3:      Singlet-A      2.0157 eV  615.11 nm  f=0.0000  <S**2>=0.000
     312 -> 314        0.70711

 Excited State   4:      Singlet-A      2.0308 eV  610.51 nm  f=0.0000  <S**2>=0.000
     311 -> 313        0.70711

 Excited State   5:      Singlet-A      2.2073 eV  561.70 nm  f=0.1189  <S**2>=0.000
     309 -> 313        0.66006
     312 -> 316       -0.23219

 The electronic state is 1-A.
 Alpha  occ. eigenvalues --  -46.92023 -46.91827 -19.25829 -19.25475 -19.20204
 Alpha  occ. eigenvalues --  -19.19713 -19.19557 -19.19260 -19.18681 -19.18671
 Alpha  occ. eigenvalues --  -14.41615 -14.41363 -14.41262 -14.41090 -14.39339
 Alpha  occ. eigenvalues --  -14.39080 -14.38707 -14.38678 -10.35561 -10.35416
 Alpha  occ. eigenvalues --  -10.33257 -10.32879 -10.32643 -10.32062 -10.29705
 Alpha  occ. eigenvalues --  -10.29471 -10.29071 -10.28519 -10.28503 -10.28410
 Alpha  occ. eigenvalues --  -10.28242 -10.28215 -10.28188 -10.28134 -10.27999
 Alpha  occ. eigenvalues --  -10.27958 -10.27312 -10.27310 -10.26913 -10.26901
 Alpha  occ. eigenvalues --  -10.26850 -10.26770 -10.26752 -10.26707 -10.26673
 Alpha  occ. eigenvalues --  -10.26221 -10.26167 -10.26024 -10.26022 -10.25891
 Alpha  occ. eigenvalues --  -10.25807 -10.25677 -10.25631 -10.25617 -10.25504
 Alpha  occ. eigenvalues --  -10.25456 -10.25417 -10.25406 -10.25392 -10.25307
 Alpha  occ. eigenvalues --  -10.24985 -10.24802 -10.24718 -10.24691 -10.24604
 Alpha  occ. eigenvalues --  -10.24445 -10.24407 -10.24276 -10.24247 -10.24072
 Alpha  occ. eigenvalues --  -10.23928 -10.23900 -10.23602 -10.23512 -10.23473
 Alpha  occ. eigenvalues --  -10.23438 -10.23319 -10.23318 -10.23279 -10.23138
 Alpha  occ. eigenvalues --  -10.22992 -10.22959 -10.22858 -10.22439 -10.22416
 Alpha  occ. eigenvalues --  -10.22227  -3.14228  -3.14017  -1.87033  -1.86852
 Alpha  occ. eigenvalues --   -1.86608  -1.86461  -1.86397  -1.86245  -1.11266
 Alpha  occ. eigenvalues --   -1.10297  -1.07123  -1.05554  -1.03166  -1.02124
 Alpha  occ. eigenvalues --   -1.02051  -1.01610  -1.00025  -0.99338  -0.98995
 Alpha  occ. eigenvalues --   -0.98286  -0.98146  -0.97733  -0.96562  -0.95350
 Alpha  occ. eigenvalues --   -0.86964  -0.86488  -0.83622  -0.82927  -0.82606
 Alpha  occ. eigenvalues --   -0.82581  -0.82338  -0.82051  -0.81839  -0.81436
 Alpha  occ. eigenvalues --   -0.81325  -0.81268  -0.81115  -0.80749  -0.78509
 Alpha  occ. eigenvalues --   -0.78408  -0.78219  -0.77740  -0.76911  -0.76589
 Alpha  occ. eigenvalues --   -0.75985  -0.75831  -0.75594  -0.75379  -0.75023
 Alpha  occ. eigenvalues --   -0.74600  -0.72774  -0.72566  -0.71969  -0.71724
 Alpha  occ. eigenvalues --   -0.71166  -0.70687  -0.70553  -0.70060  -0.69216
 Alpha  occ. eigenvalues --   -0.69191  -0.66942  -0.66714  -0.65917  -0.65876
 Alpha  occ. eigenvalues --   -0.63763  -0.63162  -0.63155  -0.62685  -0.62227
 Alpha  occ. eigenvalues --   -0.62050  -0.61360  -0.61314  -0.60207  -0.59949
 Alpha  occ. eigenvalues --   -0.59817  -0.59578  -0.59314  -0.59210  -0.59012
 Alpha  occ. eigenvalues --   -0.58650  -0.56998  -0.56160  -0.55034  -0.54491
 Alpha  occ. eigenvalues --   -0.53986  -0.53729  -0.53702  -0.53423  -0.53091
 Alpha  occ. eigenvalues --   -0.52914  -0.52585  -0.52476  -0.52168  -0.51985
 Alpha  occ. eigenvalues --   -0.50671  -0.50557  -0.50189  -0.50175  -0.49784
 Alpha  occ. eigenvalues --   -0.49745  -0.49118  -0.48851  -0.48585  -0.48111
 Alpha  occ. eigenvalues --   -0.47962  -0.47875  -0.47666  -0.47558  -0.47398
 Alpha  occ. eigenvalues --   -0.47377  -0.47172  -0.47015  -0.46873  -0.46767
 Alpha  occ. eigenvalues --   -0.46683  -0.46493  -0.45966  -0.45894  -0.45783
 Alpha  occ. eigenvalues --   -0.45607  -0.45454  -0.45303  -0.45132  -0.45001
 Alpha  occ. eigenvalues --   -0.44824  -0.44737  -0.44515  -0.44107  -0.43774
 Alpha  occ. eigenvalues --   -0.43726  -0.43693  -0.43594  -0.43363  -0.43195
 Alpha  occ. eigenvalues --   -0.43160  -0.43106  -0.43066  -0.42809  -0.42790
 Alpha  occ. eigenvalues --   -0.42485  -0.42465  -0.42415  -0.42016  -0.41672
 Alpha  occ. eigenvalues --   -0.41435  -0.41290  -0.41274  -0.41160  -0.41027
 Alpha  occ. eigenvalues --   -0.40910  -0.40837  -0.40728  -0.40662  -0.40391
 Alpha  occ. eigenvalues --   -0.40025  -0.39920  -0.39875  -0.39702  -0.39261
 Alpha  occ. eigenvalues --   -0.39205  -0.39083  -0.39067  -0.38934  -0.38653
 Alpha  occ. eigenvalues --   -0.38508  -0.38422  -0.38213  -0.38148  -0.37897
 Alpha  occ. eigenvalues --   -0.37791  -0.37756  -0.37642  -0.37596  -0.37509
 Alpha  occ. eigenvalues --   -0.37365  -0.37234  -0.37129  -0.36626  -0.36559
 Alpha  occ. eigenvalues --   -0.36492  -0.36404  -0.36301  -0.36288  -0.36186
 Alpha  occ. eigenvalues --   -0.36084  -0.35905  -0.35495  -0.35439  -0.35185
 Alpha  occ. eigenvalues --   -0.35160  -0.34688  -0.34654  -0.34331  -0.34185
 Alpha  occ. eigenvalues --   -0.33338  -0.33185  -0.32952  -0.32910  -0.32625
 Alpha  occ. eigenvalues --   -0.31993  -0.31977  -0.31499  -0.31474  -0.31408
 Alpha  occ. eigenvalues --   -0.31258  -0.31190  -0.29645  -0.29575  -0.29106
 Alpha  occ. eigenvalues --   -0.28731  -0.28597  -0.28320  -0.26973  -0.26879
 Alpha  occ. eigenvalues --   -0.26455  -0.26258  -0.25830  -0.25786  -0.25561
 Alpha  occ. eigenvalues --   -0.25401  -0.25045  -0.24971  -0.20759  -0.20626
 Alpha  occ. eigenvalues --   -0.18847  -0.18597
 Alpha virt. eigenvalues --   -0.11135  -0.10942  -0.05151  -0.04705  -0.04233
 Alpha virt. eigenvalues --   -0.04043  -0.02323  -0.02287  -0.00993  -0.00129
 Alpha virt. eigenvalues --    0.00705   0.00865   0.01113   0.01427   0.01497

 Mulliken charges:
               1
     1  Mg  11.999995
     2  C    6.000028
     3  C    6.000042
     4  C    5.999988
     5  C    5.999936
     6  N    7.000024
     7  C    5.999964
     8  C    6.000007
     9  C    5.999990
    10  C    5.999991
    11  C    5.999986
    12  C    6.000006
    13  C    5.999995
    14  H    1.000024
    15  N    7.000006
    16  C    5.999991
    17  C    6.000007
    18  C    5.999991
    19  C    6.000028
    20  C    6.000003
    21  C    6.000022
    22  O    8.000014
    23  C    5.999990
    24  N    6.999968
    25  C    6.000019
    26  C    5.999992
    27  C    6.000011
    28  C    6.000036
    29  C    5.999999
    30  C    6.000007
    31  C    6.000000
    32  N    7.000000
    33  C    6.000017
    34  C    5.999977
    35  C    6.000013
    36  C    5.999980
    37  C    6.000008
    38  C    5.999980
    39  O    7.999978
    40  C    5.999995
    41  C    5.999997
    42  O    8.000014
    43  O    7.999995
    44  C    6.000001
    45  H    1.000009
    46  H    1.000003
    47  H    0.999991
    48  H    1.000017
    49  H    0.999996
    50  H    1.000028
    51  H    1.000008
    52  H    1.000015
    53  H    0.999982
    54  H    0.999990
    55  H    0.999986
    56  H    0.999995
    57  H    1.000029
    58  H    1.000005
    59  H    1.000003
    60  H    0.999997
    61  H    1.000016
    62  H    1.000020
    63  H    0.999984
    64  H    1.000010
    65  H    1.000012
    66  H    1.000021
    67  H    0.999992
    68  H    0.999995
    69  H    0.999980
    70  H    1.000009
    71  H    0.999996
    72  H    0.999980
    73  H    0.999970
    74  H    0.999992
    75  H    0.999975
    76  H    0.999979
    77  H    1.000007
    78  H    1.000011
    79  H    0.999985
    80  Mg  12.002076
    81  C    5.981068
    82  C    6.007636
    83  C    6.024721
    84  C    5.994432
    85  N    6.991808
    86  C    6.024014
    87  C    5.990594
    88  C    6.013074
    89  C    5.969235
    90  C    6.000641
    91  C    5.998962
    92  C    5.999247
    93  H    1.006718
    94  N    7.004222
    95  C    5.967061
    96  C    5.974153
    97  C    5.989027
    98  C    5.967570
    99  C    6.002897
   100  C    5.986262
   101  O    7.973594
   102  C    6.007281
   103  N    7.008612
   104  C    5.958447
   105  C    6.009979
   106  C    5.991932
   107  C    6.026050
   108  C    6.003074
   109  C    5.992120
   110  C    5.999772
   111  N    7.002718
   112  C    6.028871
   113  C    6.037763
   114  C    5.998714
   115  C    6.031573
   116  C    5.997493
   117  C    6.015409
   118  O    8.026783
   119  C    6.006305
   120  C    6.004937
   121  O    8.002490
   122  O    8.002018
   123  C    5.998057
   124  H    0.989431
   125  H    0.994634
   126  H    1.011367
   127  H    0.999598
   128  H    0.994710
   129  H    0.987419
   130  H    1.001558
   131  H    0.999754
   132  H    1.007935
   133  H    0.992416
   134  H    1.002047
   135  H    0.994021
   136  H    0.979486
   137  H    0.983532
   138  H    0.984017
   139  H    0.995179
   140  H    0.990721
   141  H    0.986229
   142  H    1.000400
   143  H    1.002829
   144  H    1.004624
   145  H    0.988803
   146  H    0.997532
   147  H    0.994955
   148  H    1.012747
   149  H    1.006722
   150  H    1.002500
   151  H    0.998119
   152  H    1.017087
   153  H    1.017376
   154  H    1.022508
   155  H    1.008708
   156  H    1.000583
   157  H    1.006387
   158  H    1.004656
 Sum of Mulliken charges = 624.00000

 Dipole moment (field-independent basis, Debye):
    X=              3.4172    Y=              2.1357    Z=             -9.7358  Tot=             10.5368
 Quadrupole moment (field-independent basis, Debye-Ang):
   XX=            180.9868   YY=             -1.3281   ZZ=             -7.7641
   XY=             55.4563   XZ=           -255.2842   YZ=              8.6975

 Normal termination of Gaussian 16 at Fri Oct 15 10:23:27 2021.
