 Gaussian 16, Revision A.03,
 Gaussian 16:  ES64L-G16RevA.03 25-Dec-2016

 --------------------------------------------------------
 #p PBE1PBE/Def2SVP td=(nstates=5) density=(transition=1)
 --------------------------------------------------------

 --------------------------------
 TDDFT excited states in gaussian
 --------------------------------
 Symbolic Z-matrix:
 Charge =  0 Multiplicity = 1

                         Standard orientation:
 ---------------------------------------------------------------------
 Center     Atomic      Atomic             Coordinates (Angstroms)
 Number     Number       Type             X           Y           Z
 ---------------------------------------------------------------------
      1         12           0       16.607544    0.478692   -0.058003
      2          6           0       15.215053   -2.340663    1.419386
      3          6           0       14.083316    2.324717    1.353948
      4          6           0       17.821352    3.245267   -1.727623
      5          6           0       18.792461   -1.511406   -1.906308
      6          7           0       14.919903    0.032271    1.312322
      7          6           0       14.598026   -1.143972    1.877192
      8          6           0       13.487525   -1.066782    2.950718
      9          6           0       12.967359    0.419394    2.739587
     10          6           0       14.030587    0.997495    1.687624
     11          6           0       11.481110    0.374923    2.234557
     12          6           0       14.190685   -1.336702    4.378639
     13          6           0       13.573920   -2.466036    5.255455
     14          1           0       12.090159   -2.826861    4.883970
     15          7           0       16.032040    2.489888   -0.259334
     16          6           0       14.989812    3.068506    0.494099
     17          6           0       15.044323    4.505966    0.333909
     18          6           0       16.067925    4.789781   -0.579004
     19          6           0       16.766799    3.479497   -0.851587
     20          6           0       13.909429    5.406793    0.841554
     21          6           0       16.464734    6.167428   -1.172741
     22          8           0       17.392990    6.359361   -1.980274
     23          6           0       15.711464    7.414510   -0.678772
     24          7           0       18.051270    0.756192   -1.656012
     25          6           0       18.394610    2.064655   -2.113905
     26          6           0       19.362796    1.976675   -3.312110
     27          6           0       19.875286    0.468769   -3.161945
     28          6           0       18.872032   -0.131727   -2.142487
     29          6           0       18.627088    2.354001   -4.587293
     30          6           0       21.353820    0.411291   -2.588636
     31          6           0       21.846489    1.124414   -1.283522
     32          7           0       16.914098   -1.490277   -0.299400
     33          6           0       17.825911   -2.189402   -1.096238
     34          6           0       17.670849   -3.588556   -0.862869
     35          6           0       16.711202   -3.701433    0.126879
     36          6           0       16.188215   -2.409408    0.380841
     37          6           0       18.364258   -4.725103   -1.585927
     38          6           0       16.020048   -4.627645    0.933147
     39          8           0       16.079507   -5.814626    0.878135
     40          6           0       14.935929   -3.780685    1.719781
     41          6           0       13.599848   -4.225051    1.191944
     42          8           0       12.914021   -3.565270    0.439333
     43          8           0       13.366219   -5.451273    1.674453
     44          6           0       12.370509   -6.171803    0.919453
     45          1           0       13.333580    2.933789    1.862771
     46          1           0       18.026732    4.070126   -2.412131
     47          1           0       19.462653   -2.149931   -2.486505
     48          1           0       12.690823   -1.803140    2.846909
     49          1           0       13.024049    1.054740    3.623754
     50          1           0       11.247413    1.064803    1.423314
     51          1           0       10.984747    0.649534    3.164886
     52          1           0       11.248195   -0.671666    2.039783
     53          1           0       14.264870   -0.374741    4.885381
     54          1           0       15.225615   -1.607312    4.167945
     55          1           0       13.647878   -2.019150    6.246287
     56          1           0       14.131843   -3.401942    5.260539
     57          1           0       13.538332    5.965825   -0.017813
     58          1           0       14.318094    6.147913    1.529771
     59          1           0       13.138856    4.800303    1.316450
     60          1           0       14.716296    7.376943   -1.123792
     61          1           0       16.209794    8.261533   -1.149984
     62          1           0       15.861452    7.529540    0.394435
     63          1           0       20.193075    2.629768   -3.041818
     64          1           0       19.949474    0.004454   -4.144648
     65          1           0       17.807017    3.052013   -4.418084
     66          1           0       18.219431    1.466875   -5.071443
     67          1           0       19.288975    2.882193   -5.273295
     68          1           0       22.030658    0.688396   -3.396908
     69          1           0       21.462721   -0.641820   -2.329286
     70          1           0       22.169211    2.131743   -1.547040
     71          1           0       22.691654    0.530603   -0.933441
     72          1           0       21.160502    1.103876   -0.436102
     73          1           0       19.448304   -4.682046   -1.479089
     74          1           0       18.097884   -4.566751   -2.630751
     75          1           0       18.178137   -5.723115   -1.186677
     76          1           0       14.882060   -3.903244    2.801679
     77          1           0       12.519119   -7.251318    0.908931
     78          1           0       12.059475   -5.847906   -0.073648
     79          1           0       11.369500   -6.102457    1.345764
     80         12           0      -16.226638    0.575906    0.382610
     81          6           0      -15.883564   -2.680932   -0.920615
     82          6           0      -13.056606    0.322640    1.446281
     83          6           0      -16.496428    3.755116    1.090034
     84          6           0      -19.269252    0.759743   -1.482644
     85          7           0      -14.650473   -1.001741    0.221406
     86          6           0      -14.716611   -2.264887   -0.262154
     87          6           0      -13.445449   -3.063159   -0.055015
     88          6           0      -12.687556   -2.115195    0.958834
     89          6           0      -13.473607   -0.821980    0.896018
     90          6           0      -12.581583   -2.669706    2.439249
     91          6           0      -12.515652   -3.491146   -1.272880
     92          6           0      -12.657637   -2.835018   -2.671968
     93          1           0      -11.355340   -2.656468   -3.538520
     94          7           0      -14.932124    1.816089    1.305439
     95          6           0      -13.653313    1.585757    1.571155
     96          6           0      -13.032280    2.840411    2.076454
     97          6           0      -14.141860    3.834343    2.122142
     98          6           0      -15.253706    3.139901    1.472160
     99          6           0      -11.629913    2.929201    2.615318
    100          6           0      -14.030462    5.256741    2.605274
    101          8           0      -12.962216    5.636310    3.078653
    102          6           0      -15.160036    6.346922    2.501827
    103          7           0      -17.675144    2.147707   -0.230894
    104          6           0      -17.552009    3.273199    0.383294
    105          6           0      -18.838045    4.148064    0.037090
    106          6           0      -19.541763    3.234695   -0.968750
    107          6           0      -18.767690    1.931457   -0.920700
    108          6           0      -19.748958    4.625941    1.180172
    109          6           0      -19.422897    3.741658   -2.498315
    110          6           0      -20.730141    4.192831   -3.175227
    111          7           0      -17.350415   -0.610833   -0.974984
    112          6           0      -18.590266   -0.469874   -1.540161
    113          6           0      -19.063381   -1.764722   -2.094765
    114          6           0      -17.965305   -2.664817   -1.991040
    115          6           0      -17.005996   -1.903008   -1.193354
    116          6           0      -20.384249   -2.028976   -2.851465
    117          6           0      -17.439662   -3.957997   -2.276713
    118          8           0      -17.813634   -4.910401   -2.982397
    119          6           0      -16.086917   -4.060423   -1.527169
    120          6           0      -16.205530   -5.241205   -0.559181
    121          8           0      -15.744723   -6.351713   -0.566600
    122          8           0      -16.845908   -4.779535    0.595936
    123          6           0      -16.975285   -5.729617    1.744176
    124          1           0      -12.020368    0.215147    1.774138
    125          1           0      -16.554021    4.806061    1.383637
    126          1           0      -20.308101    0.756706   -1.818079
    127          1           0      -13.764836   -3.946048    0.498405
    128          1           0      -11.660375   -1.976968    0.621036
    129          1           0      -13.109933   -3.617285    2.538837
    130          1           0      -13.194220   -1.950643    2.981951
    131          1           0      -11.534778   -2.714021    2.740369
    132          1           0      -12.628645   -4.569284   -1.387427
    133          1           0      -11.472951   -3.370487   -0.977133
    134          1           0      -13.084429   -1.848717   -2.489728
    135          1           0      -13.220637   -3.436318   -3.385147
    136          1           0      -11.442695    3.842428    3.179789
    137          1           0      -10.966038    2.741517    1.770599
    138          1           0      -11.530766    2.026721    3.219377
    139          1           0      -16.164162    6.155942    2.882328
    140          1           0      -15.345622    6.537954    1.444861
    141          1           0      -14.878580    7.276204    2.996288
    142          1           0      -18.561488    5.100177   -0.414529
    143          1           0      -20.609969    3.047920   -0.853143
    144          1           0      -19.374885    4.313090    2.155133
    145          1           0      -20.781486    4.307410    1.033032
    146          1           0      -19.798228    5.711005    1.271378
    147          1           0      -19.033227    2.962631   -3.152153
    148          1           0      -18.706429    4.563085   -2.475941
    149          1           0      -20.794357    4.002609   -4.246865
    150          1           0      -20.749411    5.276565   -3.060457
    151          1           0      -21.495284    3.636089   -2.634077
    152          1           0      -20.922836   -1.135681   -3.166073
    153          1           0      -20.994945   -2.571841   -2.130461
    154          1           0      -20.174624   -2.719952   -3.667614
    155          1           0      -15.291036   -4.255896   -2.245064
    156          1           0      -17.057187   -6.795453    1.532263
    157          1           0      -17.931882   -5.452038    2.186463
    158          1           0      -16.266766   -5.648789    2.568787
 ---------------------------------------------------------------------

 SCF Done:  E(RPBE1PBE) =  -4067.36418347     A.U. after   16 cycles

 Excitation energies and oscillator strengths:

 Excited State   1:      Singlet-A      1.8332 eV  676.32 nm  f=0.0000  <S**2>=0.000
     312 -> 313        0.70710
 This state for optimization and/or second-order correction.
 Total Energy, E(TD-HF/TD-DFT) =  -4067.29681414
 Copying the excited state density for this state as the 1-particle RhoCI density.

 Excited State   2:      Singlet-A      1.8555 eV  668.19 nm  f=0.3673  <S**2>=0.000
     310 -> 316       -0.16978
     312 -> 314        0.69310
     312 <- 314       -0.10776

 Excited State   3:      Singlet-A      1.9112 eV  648.73 nm  f=0.4031  <S**2>=0.000
     309 -> 315        0.17702
     311 -> 313        0.69104
     311 <- 313       -0.10566

 Excited State   4:      Singlet-A      2.1257 eV  583.26 nm  f=0.0000  <S**2>=0.000
     311 -> 314        0.70710

 Excited State   5:      Singlet-A      2.2281 eV  556.47 nm  f=0.1215  <S**2>=0.000
     310 -> 314        0.65664
     312 -> 316        0.24645

 The electronic state is 1-A.
 Alpha  occ. eigenvalues --  -46.93472 -46.91455 -19.26676 -19.25224 -19.20589
 Alpha  occ. eigenvalues --  -19.20160 -19.19535 -19.19330 -19.18986 -19.18978
 Alpha  occ. eigenvalues --  -14.41843 -14.41692 -14.41317 -14.40918 -14.40024
 Alpha  occ. eigenvalues --  -14.39897 -14.39298 -14.38628 -10.36867 -10.36193
 Alpha  occ. eigenvalues --  -10.32934 -10.32677 -10.32421 -10.31724 -10.29170
 Alpha  occ. eigenvalues --  -10.29123 -10.29075 -10.28743 -10.28692 -10.28564
 Alpha  occ. eigenvalues --  -10.28518 -10.28483 -10.28216 -10.28191 -10.27954
 Alpha  occ. eigenvalues --  -10.27813 -10.27719 -10.27655 -10.27645 -10.27641
 Alpha  occ. eigenvalues --  -10.27605 -10.27546 -10.27358 -10.26869 -10.26757
 Alpha  occ. eigenvalues --  -10.26608 -10.26497 -10.26358 -10.26318 -10.26250
 Alpha  occ. eigenvalues --  -10.25907 -10.25765 -10.25647 -10.25602 -10.25598
 Alpha  occ. eigenvalues --  -10.25565 -10.25516 -10.25481 -10.25315 -10.25239
 Alpha  occ. eigenvalues --  -10.25238 -10.25156 -10.24954 -10.24901 -10.24791
 Alpha  occ. eigenvalues --  -10.24707 -10.24695 -10.24469 -10.24396 -10.24266
 Alpha  occ. eigenvalues --  -10.24241 -10.24158 -10.24135 -10.24050 -10.24046
 Alpha  occ. eigenvalues --  -10.24011 -10.23689 -10.23493 -10.23317 -10.23222
 Alpha  occ. eigenvalues --  -10.23175 -10.23032 -10.22992 -10.22902 -10.22763
 Alpha  occ. eigenvalues --  -10.22120  -3.15531  -3.13635  -1.88359  -1.87904
 Alpha  occ. eigenvalues --   -1.87757  -1.86477  -1.85987  -1.85881  -1.12821
 Alpha  occ. eigenvalues --   -1.10766  -1.06563  -1.04469  -1.03899  -1.03763
 Alpha  occ. eigenvalues --   -1.03184  -1.02074  -1.01414  -0.99443  -0.98718
 Alpha  occ. eigenvalues --   -0.98664  -0.98044  -0.97872  -0.97270  -0.95969
 Alpha  occ. eigenvalues --   -0.87860  -0.86994  -0.84185  -0.83195  -0.82917
 Alpha  occ. eigenvalues --   -0.82888  -0.82642  -0.82326  -0.82010  -0.81303
 Alpha  occ. eigenvalues --   -0.81120  -0.80792  -0.80350  -0.79909  -0.79205
 Alpha  occ. eigenvalues --   -0.78205  -0.78167  -0.77608  -0.77186  -0.76516
 Alpha  occ. eigenvalues --   -0.76040  -0.75464  -0.75168  -0.75129  -0.74799
 Alpha  occ. eigenvalues --   -0.74177  -0.72850  -0.72036  -0.71998  -0.71360
 Alpha  occ. eigenvalues --   -0.71349  -0.70991  -0.70957  -0.70078  -0.69804
 Alpha  occ. eigenvalues --   -0.69327  -0.67755  -0.67328  -0.66901  -0.65620
 Alpha  occ. eigenvalues --   -0.64025  -0.63597  -0.63213  -0.63078  -0.63047
 Alpha  occ. eigenvalues --   -0.62296  -0.62085  -0.61325  -0.60845  -0.60241
 Alpha  occ. eigenvalues --   -0.60180  -0.60011  -0.59427  -0.59048  -0.59000
 Alpha  occ. eigenvalues --   -0.58369  -0.57675  -0.56892  -0.55144  -0.54906
 Alpha  occ. eigenvalues --   -0.54424  -0.54060  -0.53903  -0.53519  -0.53195
 Alpha  occ. eigenvalues --   -0.52756  -0.52730  -0.52572  -0.51806  -0.51683
 Alpha  occ. eigenvalues --   -0.51037  -0.50670  -0.50427  -0.50280  -0.50155
 Alpha  occ. eigenvalues --   -0.49621  -0.49487  -0.49074  -0.49009  -0.48524
 Alpha  occ. eigenvalues --   -0.48477  -0.48288  -0.47781  -0.47738  -0.47546
 Alpha  occ. eigenvalues --   -0.47383  -0.46990  -0.46785  -0.46631  -0.46497
 Alpha  occ. eigenvalues --   -0.46355  -0.46315  -0.46187  -0.46109  -0.45762
 Alpha  occ. eigenvalues --   -0.45651  -0.45543  -0.45223  -0.45066  -0.44673
 Alpha  occ. eigenvalues --   -0.44435  -0.44412  -0.44383  -0.44088  -0.44034
 Alpha  occ. eigenvalues --   -0.43798  -0.43725  -0.43507  -0.43496  -0.43256
 Alpha  occ. eigenvalues --   -0.43236  -0.43159  -0.42945  -0.42920  -0.42619
 Alpha  occ. eigenvalues --   -0.42578  -0.42425  -0.42337  -0.42192  -0.42153
 Alpha  occ. eigenvalues --   -0.41902  -0.41706  -0.41668  -0.41363  -0.41325
 Alpha  occ. eigenvalues --   -0.41110  -0.41006  -0.40911  -0.40787  -0.40599
 Alpha  occ. eigenvalues --   -0.40397  -0.40245  -0.40240  -0.40134  -0.39725
 Alpha  occ. eigenvalues --   -0.39676  -0.39644  -0.39481  -0.39216  -0.39033
 Alpha  occ. eigenvalues --   -0.38926  -0.38822  -0.38446  -0.38411  -0.38360
 Alpha  occ. eigenvalues --   -0.38154  -0.38130  -0.37930  -0.37859  -0.37734
 Alpha  occ. eigenvalues --   -0.37705  -0.37463  -0.37227  -0.37061  -0.36983
 Alpha  occ. eigenvalues --   -0.36863  -0.36850  -0.36607  -0.36320  -0.36193
 Alpha  occ. eigenvalues --   -0.36156  -0.35825  -0.35679  -0.35623  -0.35609
 Alpha  occ. eigenvalues --   -0.35154  -0.34913  -0.34472  -0.34123  -0.34068
 Alpha  occ. eigenvalues --   -0.33833  -0.33281  -0.32710  -0.32653  -0.32448
 Alpha  occ. eigenvalues --   -0.32060  -0.31986  -0.31913  -0.31551  -0.31518
 Alpha  occ. eigenvalues --   -0.31327  -0.31181  -0.30070  -0.29585  -0.29430
 Alpha  occ. eigenvalues --   -0.29163  -0.29106  -0.28237  -0.27450  -0.27111
 Alpha  occ. eigenvalues --   -0.26596  -0.26163  -0.26118  -0.25913  -0.25560
 Alpha  occ. eigenvalues --   -0.25445  -0.25141  -0.25082  -0.21431  -0.20658
 Alpha  occ. eigenvalues --   -0.19200  -0.18585
 Alpha virt. eigenvalues --   -0.11443  -0.10980  -0.05545  -0.04896  -0.04793
 Alpha virt. eigenvalues --   -0.03607  -0.02670  -0.01889  -0.01466  -0.00306
 Alpha virt. eigenvalues --    0.00163   0.00509   0.00570   0.01240   0.01637

 Mulliken charges:
               1
     1  Mg  12.000000
     2  C    6.000000
     3  C    6.000000
     4  C    6.000000
     5  C    6.000000
     6  N    7.000000
     7  C    6.000000
     8  C    6.000000
     9  C    6.000000
    10  C    6.000000
    11  C    6.000000
    12  C    6.000000
    13  C    6.000000
    14  H    1.000000
    15  N    7.000000
    16  C    6.000000
    17  C    6.000000
    18  C    6.000000
    19  C    6.000000
    20  C    6.000000
    21  C    6.000000
    22  O    8.000000
    23  C    6.000000
    24  N    7.000000
    25  C    6.000000
    26  C    6.000000
    27  C    6.000000
    28  C    6.000000
    29  C    6.000000
    30  C    6.000000
    31  C    6.000000
    32  N    7.000000
    33  C    6.000000
    34  C    6.000000
    35  C    6.000000
    36  C    6.000000
    37  C    6.000000
    38  C    6.000000
    39  O    8.000000
    40  C    6.000000
    41  C    6.000000
    42  O    8.000000
    43  O    8.000000
    44  C    6.000000
    45  H    1.000000
    46  H    1.000000
    47  H    1.000000
    48  H    1.000000
    49  H    1.000000
    50  H    1.000000
    51  H    1.000000
    52  H    1.000000
    53  H    1.000000
    54  H    1.000000
    55  H    1.000000
    56  H    1.000000
    57  H    1.000000
    58  H    1.000000
    59  H    1.000000
    60  H    1.000000
    61  H    1.000000
    62  H    1.000000
    63  H    1.000000
    64  H    1.000000
    65  H    1.000000
    66  H    1.000000
    67  H    1.000000
    68  H    1.000000
    69  H    1.000000
    70  H    1.000000
    71  H    1.000000
    72  H    1.000000
    73  H    1.000000
    74  H    1.000000
    75  H    1.000000
    76  H    1.000000
    77  H    1.000000
    78  H    1.000000
    79  H    1.000000
    80  Mg  12.000000
    81  C    6.000000
    82  C    6.000000
    83  C    6.000000
    84  C    6.000000
    85  N    7.000000
    86  C    6.000000
    87  C    6.000000
    88  C    6.000000
    89  C    6.000000
    90  C    6.000000
    91  C    6.000000
    92  C    6.000000
    93  H    1.000000
    94  N    7.000000
    95  C    6.000000
    96  C    6.000000
    97  C    6.000000
    98  C    6.000000
    99  C    6.000000
   100  C    6.000000
   101  O    8.000000
   102  C    6.000000
   103  N    7.000000
   104  C    6.000000
   105  C    6.000000
   106  C    6.000000
   107  C    6.000000
   108  C    6.000000
   109  C    6.000000
   110  C    6.000000
   111  N    7.000000
   112  C    6.000000
   113  C    6.000000
   114  C    6.000000
   115  C    6.000000
   116  C    6.000000
   117  C    6.000000
   118  O    8.000000
   119  C    6.000000
   120  C    6.000000
   121  O    8.000000
   122  O    8.000000
   123  C    6.000000
   124  H    1.000000
   125  H    1.000000
   126  H    1.000000
   127  H    1.000000
   128  H    1.000000
   129  H    1.000000
   130  H    1.000000
   131  H    1.000000
   132  H    1.000000
   133  H    1.000000
   134  H    1.000000
   135  H    1.000000
   136  H    1.000000
   137  H    1.000000
   138  H    1.000000
   139  H    1.000000
   140  H    1.000000
   141  H    1.000000
   142  H    1.000000
   143  H    1.000000
   144  H    1.000000
   145  H    1.000000
   146  H    1.000000
   147  H    1.000000
   148  H    1.000000
   149  H    1.000000
   150  H    1.000000
   151  H    1.000000
   152  H    1.000000
   153  H    1.000000
   154  H    1.000000
   155  H    1.000000
   156  H    1.000000
   157  H    1.000000
   158  H    1.000000
 Sum of Mulliken charges = 624.00000

 Dipole moment (field-independent basis, Debye):
    X=              0.0000    Y=             -0.0000    Z=             -0.0000  Tot=              0.0000
 Quadrupole moment (field-independent basis, Debye-Ang):
   XX=              0.0000   YY=             -0.0000   ZZ=              0.0000
   XY=             -0.0000   XZ=             -0.0000   YZ=              0.0000

 Normal termination of Gaussian 16 at Thu Oct 14 20:46:14 2021.
