 Gaussian 16, Revision A.03,
 Gaussian 16:  ES64L-G16RevA.03 25-Dec-2016

 --------------------------------------------------------
 #p PBE1PBE/Def2SVP td=(nstates=5) density=(transition=1)
 --------------------------------------------------------

 --------------------------------
 TDDFT excited states in gaussian
 --------------------------------
 Symbolic Z-matrix:
 Charge =  0 Multiplicity = 1

                         Standard orientation:
 ---------------------------------------------------------------------
 Center     Atomic      Atomic             Coordinates (Angstroms)
 Number     Number       Type             X           Y           Z
 ---------------------------------------------------------------------
      1         12           0      -27.237166   -0.372037   -0.433587
      2          6           0      -25.179252    2.446038   -0.583372
      3          6           0      -28.278943    0.777019    2.711059
      4          6           0      -28.827144   -3.265246    0.114399
      5          6           0      -25.367702   -1.794911   -2.948311
      6          7           0      -26.863926    1.505823    0.916877
      7          6           0      -25.924142    2.433142    0.592354
      8          6           0      -25.813816    3.529992    1.724413
      9          6           0      -26.652602    2.818115    2.902033
     10          6           0      -27.275228    1.609045    2.183907
     11          6           0      -25.617129    2.275972    3.950306
     12          6           0      -26.552661    4.817059    1.203250
     13          6           0      -26.700753    6.005870    2.191487
     14          1           0      -27.900270    6.865261    2.459741
     15          7           0      -28.526589   -1.019487    1.080879
     16          6           0      -28.886463   -0.412189    2.295528
     17          6           0      -29.754968   -1.282715    2.969920
     18          6           0      -30.074272   -2.364028    2.159579
     19          6           0      -29.136365   -2.245991    1.055328
     20          6           0      -30.349568   -0.883353    4.280628
     21          6           0      -31.044054   -3.568915    2.394004
     22          8           0      -31.254693   -4.466756    1.585640
     23          6           0      -31.996812   -3.624231    3.591305
     24          7           0      -27.011510   -2.274153   -1.229809
     25          6           0      -27.893703   -3.253797   -0.931021
     26          6           0      -27.806930   -4.471679   -1.871555
     27          6           0      -26.603856   -4.059796   -2.764712
     28          6           0      -26.363717   -2.604557   -2.404980
     29          6           0      -27.766501   -5.855362   -1.141893
     30          6           0      -26.733591   -4.311115   -4.292062
     31          6           0      -27.600714   -3.387802   -5.037700
     32          7           0      -25.669196    0.194406   -1.630079
     33          6           0      -25.028724   -0.449448   -2.578151
     34          6           0      -24.041385    0.402142   -3.249411
     35          6           0      -24.105382    1.584671   -2.445161
     36          6           0      -25.063362    1.402881   -1.466965
     37          6           0      -23.487715    0.285351   -4.592126
     38          6           0      -23.543890    2.918419   -2.320811
     39          8           0      -22.772109    3.519561   -3.033162
     40          6           0      -24.191013    3.477079   -1.047723
     41          6           0      -23.140937    3.899202   -0.014734
     42          8           0      -22.548058    3.135281    0.701831
     43          8           0      -22.941038    5.256438   -0.098359
     44          6           0      -21.941361    5.743727    0.879791
     45          1           0      -28.691798    1.207877    3.624654
     46          1           0      -29.479964   -4.140728    0.132630
     47          1           0      -25.038444   -2.410642   -3.787107
     48          1           0      -24.787364    3.685386    2.057577
     49          1           0      -27.384398    3.461655    3.391917
     50          1           0      -25.448769    1.199549    3.956948
     51          1           0      -26.009137    2.335788    4.965913
     52          1           0      -24.637730    2.750233    3.890770
     53          1           0      -27.532895    4.502691    0.845924
     54          1           0      -26.032649    5.135358    0.299311
     55          1           0      -25.842803    6.638927    1.963185
     56          1           0      -26.557569    5.489233    3.139727
     57          1           0      -30.010114    0.071723    4.682395
     58          1           0      -30.267940   -1.735576    4.956667
     59          1           0      -31.405895   -0.744246    4.048941
     60          1           0      -31.491372   -3.738831    4.550272
     61          1           0      -32.809996   -4.343527    3.492815
     62          1           0      -32.545920   -2.682477    3.585590
     63          1           0      -28.770147   -4.334056   -2.362060
     64          1           0      -25.766871   -4.624327   -2.353777
     65          1           0      -28.299788   -5.811823   -0.192833
     66          1           0      -26.729332   -6.122585   -0.937781
     67          1           0      -28.248371   -6.648583   -1.713847
     68          1           0      -27.151822   -5.317087   -4.306776
     69          1           0      -25.741364   -4.394340   -4.735946
     70          1           0      -27.039785   -2.488265   -5.290765
     71          1           0      -28.513417   -3.171747   -4.482709
     72          1           0      -27.887292   -3.793303   -6.008486
     73          1           0      -24.227048   -0.293623   -5.146054
     74          1           0      -22.573188   -0.285311   -4.754406
     75          1           0      -23.352458    1.302116   -4.959381
     76          1           0      -24.796811    4.336965   -1.335457
     77          1           0      -21.387478    6.564096    0.423770
     78          1           0      -21.116465    5.066262    1.101462
     79          1           0      -22.427808    6.142501    1.769393
     80         12           0       26.213439   -0.915102    0.066231
     81          6           0       26.588601    2.490790   -0.807899
     82          6           0       25.610206    0.078431    3.287733
     83          6           0       26.510001   -4.079553    0.996888
     84          6           0       27.319827   -1.759591   -3.145342
     85          7           0       26.273377    1.062722    1.149176
     86          6           0       26.338524    2.315739    0.533996
     87          6           0       25.914753    3.417751    1.536108
     88          6           0       25.623865    2.612600    2.855030
     89          6           0       25.798737    1.125399    2.440133
     90          6           0       26.304943    3.092754    4.124711
     91          6           0       24.743838    4.317719    1.111530
     92          6           0       25.070946    5.835888    1.146852
     93          1           0       24.147523    6.680576    1.996420
     94          7           0       25.987445   -1.857069    1.900854
     95          6           0       25.775551   -1.303855    3.129461
     96          6           0       25.535069   -2.381167    4.059702
     97          6           0       25.946740   -3.629542    3.423515
     98          6           0       26.183622   -3.177917    2.060961
     99          6           0       25.183899   -2.122620    5.615453
    100          6           0       26.346287   -4.927311    3.981533
    101          8           0       26.667858   -5.911985    3.379651
    102          6           0       26.364690   -5.020164    5.504379
    103          7           0       27.042777   -2.652305   -0.916551
    104          6           0       26.984194   -3.857980   -0.318125
    105          6           0       27.267918   -4.975964   -1.324074
    106          6           0       27.163482   -4.251313   -2.675630
    107          6           0       27.134117   -2.798450   -2.256471
    108          6           0       28.711650   -5.618409   -1.090552
    109          6           0       25.765718   -4.660896   -3.368471
    110          6           0       24.490700   -4.048074   -2.727373
    111          7           0       26.735963    0.076602   -1.729186
    112          6           0       27.140525   -0.399325   -2.917893
    113          6           0       27.364368    0.717750   -3.795712
    114          6           0       27.114721    1.843965   -3.034170
    115          6           0       26.790808    1.429207   -1.739471
    116          6           0       27.810860    0.721875   -5.245336
    117          6           0       27.160547    3.305189   -3.134286
    118          8           0       27.497034    4.141008   -3.924949
    119          6           0       26.745408    3.789867   -1.720023
    120          6           0       27.875272    4.622226   -1.237370
    121          8           0       29.001682    4.194478   -1.202943
    122          8           0       27.511895    5.923799   -0.931118
    123          6           0       28.635069    6.898736   -0.726855
    124          1           0       25.216712    0.409228    4.251287
    125          1           0       26.506448   -5.148708    1.220780
    126          1           0       27.460130   -1.927218   -4.215263
    127          1           0       26.784065    4.035806    1.761580
    128          1           0       24.581708    2.782129    3.126419
    129          1           0       27.133456    3.762227    3.898244
    130          1           0       26.656016    2.285043    4.767430
    131          1           0       25.568925    3.709356    4.640021
    132          1           0       23.826799    4.276032    1.699265
    133          1           0       24.411787    4.068274    0.104005
    134          1           0       25.198128    6.240573    0.142836
    135          1           0       26.042262    5.949207    1.626627
    136          1           0       24.330031   -2.749670    5.871759
    137          1           0       24.873038   -1.112201    5.878306
    138          1           0       25.966000   -2.269046    6.360384
    139          1           0       25.324229   -4.842764    5.777546
    140          1           0       27.022770   -4.212071    5.822213
    141          1           0       26.634765   -6.000434    5.898323
    142          1           0       26.507429   -5.757501   -1.333371
    143          1           0       27.968856   -4.329102   -3.406325
    144          1           0       28.653963   -6.653411   -1.428540
    145          1           0       29.106582   -5.660267   -0.074913
    146          1           0       29.362121   -5.050809   -1.755817
    147          1           0       25.627901   -5.739910   -3.435202
    148          1           0       25.705051   -4.208744   -4.358505
    149          1           0       23.545260   -4.456505   -3.082771
    150          1           0       24.487365   -2.983328   -2.961171
    151          1           0       24.576776   -4.169367   -1.647075
    152          1           0       27.114818    0.239924   -5.931510
    153          1           0       28.735542    0.145603   -5.228244
    154          1           0       28.085988    1.715720   -5.598386
    155          1           0       25.884049    4.427025   -1.919699
    156          1           0       28.254283    7.403442    0.161047
    157          1           0       28.732960    7.614780   -1.542610
    158          1           0       29.651690    6.540800   -0.566101
 ---------------------------------------------------------------------

 SCF Done:  E(RPBE1PBE) =  -4067.39909256     A.U. after   16 cycles

 Excitation energies and oscillator strengths:

 Excited State   1:      Singlet-A      1.8611 eV  666.18 nm  f=0.0000  <S**2>=0.000
     312 -> 313        0.70711
 This state for optimization and/or second-order correction.
 Total Energy, E(TD-HF/TD-DFT) =  -4067.33069807
 Copying the excited state density for this state as the 1-particle RhoCI density.

 Excited State   2:      Singlet-A      1.8679 eV  663.76 nm  f=0.3811  <S**2>=0.000
     309 -> 315       -0.16820
     311 -> 313        0.69459
     311 <- 313       -0.11167

 Excited State   3:      Singlet-A      1.8847 eV  657.85 nm  f=0.3838  <S**2>=0.000
     310 -> 316       -0.17974
     312 -> 314        0.69125
     312 <- 314       -0.10353

 Excited State   4:      Singlet-A      2.1859 eV  567.21 nm  f=0.0000  <S**2>=0.000
     311 -> 314        0.70711

 Excited State   5:      Singlet-A      2.2023 eV  562.97 nm  f=0.1270  <S**2>=0.000
     309 -> 313        0.66417
     311 -> 315        0.22436

 The electronic state is 1-A.
 Alpha  occ. eigenvalues --  -46.92930 -46.92139 -19.26474 -19.25765 -19.20651
 Alpha  occ. eigenvalues --  -19.19777 -19.19537 -19.19457 -19.19130 -19.18634
 Alpha  occ. eigenvalues --  -14.41690 -14.41578 -14.41382 -14.40763 -14.39435
 Alpha  occ. eigenvalues --  -14.38865 -14.38856 -14.38792 -10.36820 -10.35774
 Alpha  occ. eigenvalues --  -10.33216 -10.32271 -10.31722 -10.31496 -10.29230
 Alpha  occ. eigenvalues --  -10.29078 -10.29018 -10.28696 -10.28536 -10.28508
 Alpha  occ. eigenvalues --  -10.28508 -10.28460 -10.28243 -10.27965 -10.27852
 Alpha  occ. eigenvalues --  -10.27827 -10.27706 -10.27513 -10.27421 -10.27163
 Alpha  occ. eigenvalues --  -10.26999 -10.26801 -10.26527 -10.26468 -10.26433
 Alpha  occ. eigenvalues --  -10.26214 -10.25845 -10.25841 -10.25821 -10.25747
 Alpha  occ. eigenvalues --  -10.25738 -10.25635 -10.25616 -10.25547 -10.25495
 Alpha  occ. eigenvalues --  -10.25408 -10.25381 -10.25330 -10.25277 -10.25103
 Alpha  occ. eigenvalues --  -10.24983 -10.24885 -10.24755 -10.24711 -10.24680
 Alpha  occ. eigenvalues --  -10.24575 -10.24289 -10.24215 -10.24201 -10.24107
 Alpha  occ. eigenvalues --  -10.23938 -10.23867 -10.23864 -10.23563 -10.23539
 Alpha  occ. eigenvalues --  -10.23514 -10.23488 -10.23434 -10.23297 -10.23096
 Alpha  occ. eigenvalues --  -10.23034 -10.22900 -10.22704 -10.22602 -10.22363
 Alpha  occ. eigenvalues --  -10.22169  -3.14918  -3.14279  -1.87741  -1.87306
 Alpha  occ. eigenvalues --   -1.87133  -1.87106  -1.86668  -1.86489  -1.11617
 Alpha  occ. eigenvalues --   -1.10395  -1.06397  -1.05843  -1.05131  -1.05025
 Alpha  occ. eigenvalues --   -1.03629  -1.02418  -0.99815  -0.99792  -0.98965
 Alpha  occ. eigenvalues --   -0.98534  -0.98370  -0.97998  -0.97035  -0.96610
 Alpha  occ. eigenvalues --   -0.88271  -0.86691  -0.83753  -0.83182  -0.83072
 Alpha  occ. eigenvalues --   -0.82812  -0.82577  -0.82456  -0.82081  -0.81744
 Alpha  occ. eigenvalues --   -0.81566  -0.80857  -0.80651  -0.80608  -0.78711
 Alpha  occ. eigenvalues --   -0.78320  -0.78011  -0.77757  -0.76759  -0.76695
 Alpha  occ. eigenvalues --   -0.75735  -0.75484  -0.75184  -0.75177  -0.74710
 Alpha  occ. eigenvalues --   -0.74424  -0.72755  -0.72671  -0.71944  -0.71698
 Alpha  occ. eigenvalues --   -0.71042  -0.70962  -0.70477  -0.70447  -0.69586
 Alpha  occ. eigenvalues --   -0.69189  -0.67550  -0.67005  -0.66229  -0.66223
 Alpha  occ. eigenvalues --   -0.64408  -0.63690  -0.63639  -0.63631  -0.62809
 Alpha  occ. eigenvalues --   -0.62510  -0.61629  -0.61371  -0.59907  -0.59859
 Alpha  occ. eigenvalues --   -0.59836  -0.59645  -0.59230  -0.59055  -0.58971
 Alpha  occ. eigenvalues --   -0.58609  -0.57124  -0.56835  -0.55016  -0.54556
 Alpha  occ. eigenvalues --   -0.54269  -0.54057  -0.53938  -0.53852  -0.53354
 Alpha  occ. eigenvalues --   -0.53069  -0.52910  -0.52612  -0.52155  -0.51952
 Alpha  occ. eigenvalues --   -0.51079  -0.50613  -0.50209  -0.50152  -0.49895
 Alpha  occ. eigenvalues --   -0.49804  -0.49705  -0.49235  -0.49220  -0.48662
 Alpha  occ. eigenvalues --   -0.48570  -0.48014  -0.47829  -0.47589  -0.47558
 Alpha  occ. eigenvalues --   -0.47316  -0.47087  -0.46934  -0.46847  -0.46752
 Alpha  occ. eigenvalues --   -0.46696  -0.46541  -0.46122  -0.45731  -0.45717
 Alpha  occ. eigenvalues --   -0.45630  -0.45390  -0.45326  -0.44736  -0.44642
 Alpha  occ. eigenvalues --   -0.44553  -0.44386  -0.44187  -0.44064  -0.44063
 Alpha  occ. eigenvalues --   -0.44029  -0.43917  -0.43833  -0.43650  -0.43550
 Alpha  occ. eigenvalues --   -0.43464  -0.43064  -0.42966  -0.42933  -0.42559
 Alpha  occ. eigenvalues --   -0.42558  -0.42259  -0.42183  -0.42036  -0.41798
 Alpha  occ. eigenvalues --   -0.41661  -0.41352  -0.41097  -0.40895  -0.40854
 Alpha  occ. eigenvalues --   -0.40775  -0.40749  -0.40595  -0.40584  -0.40309
 Alpha  occ. eigenvalues --   -0.40127  -0.40086  -0.39860  -0.39806  -0.39759
 Alpha  occ. eigenvalues --   -0.39473  -0.39314  -0.39209  -0.39073  -0.38912
 Alpha  occ. eigenvalues --   -0.38864  -0.38664  -0.38499  -0.38458  -0.38194
 Alpha  occ. eigenvalues --   -0.38156  -0.38098  -0.37989  -0.37805  -0.37745
 Alpha  occ. eigenvalues --   -0.37711  -0.37402  -0.37336  -0.37278  -0.37174
 Alpha  occ. eigenvalues --   -0.37140  -0.36977  -0.36865  -0.36802  -0.36656
 Alpha  occ. eigenvalues --   -0.36314  -0.36295  -0.35734  -0.35613  -0.35237
 Alpha  occ. eigenvalues --   -0.35156  -0.34673  -0.34573  -0.33992  -0.33871
 Alpha  occ. eigenvalues --   -0.33419  -0.33297  -0.33049  -0.32833  -0.32819
 Alpha  occ. eigenvalues --   -0.32707  -0.32276  -0.32099  -0.31823  -0.31428
 Alpha  occ. eigenvalues --   -0.31356  -0.31192  -0.29826  -0.29595  -0.29519
 Alpha  occ. eigenvalues --   -0.29115  -0.28747  -0.28743  -0.27238  -0.26962
 Alpha  occ. eigenvalues --   -0.26148  -0.25995  -0.25904  -0.25763  -0.25749
 Alpha  occ. eigenvalues --   -0.25552  -0.25114  -0.25003  -0.21128  -0.20737
 Alpha  occ. eigenvalues --   -0.19191  -0.18674
 Alpha virt. eigenvalues --   -0.11587  -0.10911  -0.04998  -0.04864  -0.03800
 Alpha virt. eigenvalues --   -0.03686  -0.02123  -0.01931  -0.01123  -0.00587
 Alpha virt. eigenvalues --    0.00533   0.00815   0.01157   0.01325   0.02077

 Mulliken charges:
               1
     1  Mg  12.000000
     2  C    6.000000
     3  C    6.000000
     4  C    6.000000
     5  C    6.000000
     6  N    7.000000
     7  C    6.000000
     8  C    6.000000
     9  C    6.000000
    10  C    6.000000
    11  C    6.000000
    12  C    6.000000
    13  C    6.000000
    14  H    1.000000
    15  N    7.000000
    16  C    6.000000
    17  C    6.000000
    18  C    6.000000
    19  C    6.000000
    20  C    6.000000
    21  C    6.000000
    22  O    8.000000
    23  C    6.000000
    24  N    7.000000
    25  C    6.000000
    26  C    6.000000
    27  C    6.000000
    28  C    6.000000
    29  C    6.000000
    30  C    6.000000
    31  C    6.000000
    32  N    7.000000
    33  C    6.000000
    34  C    6.000000
    35  C    6.000000
    36  C    6.000000
    37  C    6.000000
    38  C    6.000000
    39  O    8.000000
    40  C    6.000000
    41  C    6.000000
    42  O    8.000000
    43  O    8.000000
    44  C    6.000000
    45  H    1.000000
    46  H    1.000000
    47  H    1.000000
    48  H    1.000000
    49  H    1.000000
    50  H    1.000000
    51  H    1.000000
    52  H    1.000000
    53  H    1.000000
    54  H    1.000000
    55  H    1.000000
    56  H    1.000000
    57  H    1.000000
    58  H    1.000000
    59  H    1.000000
    60  H    1.000000
    61  H    1.000000
    62  H    1.000000
    63  H    1.000000
    64  H    1.000000
    65  H    1.000000
    66  H    1.000000
    67  H    1.000000
    68  H    1.000000
    69  H    1.000000
    70  H    1.000000
    71  H    1.000000
    72  H    1.000000
    73  H    1.000000
    74  H    1.000000
    75  H    1.000000
    76  H    1.000000
    77  H    1.000000
    78  H    1.000000
    79  H    1.000000
    80  Mg  12.000000
    81  C    6.000000
    82  C    6.000000
    83  C    6.000000
    84  C    6.000000
    85  N    7.000000
    86  C    6.000000
    87  C    6.000000
    88  C    6.000000
    89  C    6.000000
    90  C    6.000000
    91  C    6.000000
    92  C    6.000000
    93  H    1.000000
    94  N    7.000000
    95  C    6.000000
    96  C    6.000000
    97  C    6.000000
    98  C    6.000000
    99  C    6.000000
   100  C    6.000000
   101  O    8.000000
   102  C    6.000000
   103  N    7.000000
   104  C    6.000000
   105  C    6.000000
   106  C    6.000000
   107  C    6.000000
   108  C    6.000000
   109  C    6.000000
   110  C    6.000000
   111  N    7.000000
   112  C    6.000000
   113  C    6.000000
   114  C    6.000000
   115  C    6.000000
   116  C    6.000000
   117  C    6.000000
   118  O    8.000000
   119  C    6.000000
   120  C    6.000000
   121  O    8.000000
   122  O    8.000000
   123  C    6.000000
   124  H    1.000000
   125  H    1.000000
   126  H    1.000000
   127  H    1.000000
   128  H    1.000000
   129  H    1.000000
   130  H    1.000000
   131  H    1.000000
   132  H    1.000000
   133  H    1.000000
   134  H    1.000000
   135  H    1.000000
   136  H    1.000000
   137  H    1.000000
   138  H    1.000000
   139  H    1.000000
   140  H    1.000000
   141  H    1.000000
   142  H    1.000000
   143  H    1.000000
   144  H    1.000000
   145  H    1.000000
   146  H    1.000000
   147  H    1.000000
   148  H    1.000000
   149  H    1.000000
   150  H    1.000000
   151  H    1.000000
   152  H    1.000000
   153  H    1.000000
   154  H    1.000000
   155  H    1.000000
   156  H    1.000000
   157  H    1.000000
   158  H    1.000000
 Sum of Mulliken charges = 624.00000

 Dipole moment (field-independent basis, Debye):
    X=              0.0000    Y=              0.0000    Z=             -0.0000  Tot=              0.0000
 Quadrupole moment (field-independent basis, Debye-Ang):
   XX=             -0.0000   YY=             -0.0000   ZZ=             -0.0000
   XY=              0.0000   XZ=             -0.0000   YZ=              0.0000

 Normal termination of Gaussian 16 at Thu Oct 14 02:13:32 2021.
