 Gaussian 16, Revision A.03,
 Gaussian 16:  ES64L-G16RevA.03 25-Dec-2016

 --------------------------------------------------------
 #p PBE1PBE/Def2SVP td=(nstates=5) density=(transition=1)
 --------------------------------------------------------

 --------------------------------
 TDDFT excited states in gaussian
 --------------------------------
 Symbolic Z-matrix:
 Charge =  0 Multiplicity = 1

                         Standard orientation:
 ---------------------------------------------------------------------
 Center     Atomic      Atomic             Coordinates (Angstroms)
 Number     Number       Type             X           Y           Z
 ---------------------------------------------------------------------
      1         12           0      -20.796738    0.315713   -0.218543
      2          6           0      -17.929853   -1.514819   -0.076692
      3          6           0      -22.490396   -2.511766    0.861330
      4          6           0      -23.550959    2.222596    0.006541
      5          6           0      -18.915710    3.258551   -0.651217
      6          7           0      -20.210043   -1.712060    0.578890
      7          6           0      -18.959932   -2.205674    0.474276
      8          6           0      -18.834771   -3.566906    1.054585
      9          6           0      -20.425194   -4.014109    0.999222
     10          6           0      -21.130102   -2.656242    0.797158
     11          6           0      -20.716028   -5.078850   -0.099294
     12          6           0      -18.306776   -3.471921    2.477244
     13          6           0      -19.078834   -2.558271    3.537860
     14          1           0      -19.253923   -3.027439    4.976826
     15          7           0      -22.740062   -0.073923    0.349936
     16          6           0      -23.289544   -1.349253    0.636087
     17          6           0      -24.703988   -1.189414    0.698918
     18          6           0      -25.055758    0.141930    0.514185
     19          6           0      -23.797267    0.853471    0.234029
     20          6           0      -25.548064   -2.419791    0.962542
     21          6           0      -26.427576    0.758929    0.647059
     22          8           0      -27.353726   -0.034927    0.947485
     23          6           0      -26.722360    2.152364    0.668893
     24          7           0      -21.126249    2.474372   -0.096617
     25          6           0      -22.386923    2.994262   -0.069772
     26          6           0      -22.357208    4.540709   -0.117916
     27          6           0      -20.835767    4.843999   -0.330563
     28          6           0      -20.231711    3.450636   -0.285212
     29          6           0      -23.262275    5.129787   -1.178763
     30          6           0      -20.272038    5.845595    0.812483
     31          6           0      -19.323942    6.927628    0.283049
     32          7           0      -18.776185    0.869408   -0.361015
     33          6           0      -18.166165    2.025156   -0.730833
     34          6           0      -16.801586    1.696516   -1.041948
     35          6           0      -16.606882    0.284540   -0.852451
     36          6           0      -17.844399   -0.153797   -0.411020
     37          6           0      -15.704300    2.683783   -1.248193
     38          6           0      -15.708841   -0.824906   -0.826069
     39          8           0      -14.517899   -0.770015   -1.157733
     40          6           0      -16.532037   -2.013715   -0.365687
     41          6           0      -16.481100   -3.058662   -1.417013
     42          8           0      -15.401940   -3.489358   -1.773218
     43          8           0      -17.698102   -3.506947   -1.831171
     44          6           0      -17.660382   -4.555442   -2.852518
     45          1           0      -23.050114   -3.446946    0.927482
     46          1           0      -24.476700    2.779769   -0.150536
     47          1           0      -18.287824    4.095614   -0.964553
     48          1           0      -18.185995   -4.283792    0.551229
     49          1           0      -20.701559   -4.577024    1.891715
     50          1           0      -21.144279   -5.972644    0.352923
     51          1           0      -19.754217   -5.354549   -0.532556
     52          1           0      -21.357003   -4.732869   -0.911227
     53          1           0      -17.250230   -3.212500    2.406983
     54          1           0      -18.221872   -4.521679    2.757877
     55          1           0      -20.105219   -2.297593    3.279296
     56          1           0      -18.424017   -1.689100    3.592721
     57          1           0      -25.563936   -2.531617    2.046837
     58          1           0      -25.045747   -3.288914    0.539642
     59          1           0      -26.566712   -2.401422    0.573929
     60          1           0      -27.600948    2.371266    1.276564
     61          1           0      -26.750044    2.608694   -0.321440
     62          1           0      -25.919957    2.593015    1.259009
     63          1           0      -22.673374    4.822930    0.886928
     64          1           0      -20.677029    5.200956   -1.347969
     65          1           0      -23.885477    4.395243   -1.688131
     66          1           0      -22.880010    5.822895   -1.927660
     67          1           0      -24.020716    5.637452   -0.582107
     68          1           0      -19.731688    5.341427    1.613762
     69          1           0      -21.076780    6.326564    1.368218
     70          1           0      -19.853094    7.879876    0.307237
     71          1           0      -19.131576    6.724606   -0.770674
     72          1           0      -18.402992    7.006869    0.860901
     73          1           0      -15.729373    3.282230   -2.158073
     74          1           0      -14.784840    2.098796   -1.204523
     75          1           0      -15.673405    3.433924   -0.457908
     76          1           0      -16.045206   -2.387090    0.535723
     77          1           0      -17.084226   -5.389516   -2.450910
     78          1           0      -17.282103   -4.210473   -3.814941
     79          1           0      -18.670062   -4.837237   -3.150888
     80         12           0       20.762509    0.374635   -0.005904
     81          6           0       18.673881   -2.358763   -0.012272
     82          6           0       18.111214    2.533353    0.188963
     83          6           0       22.917657    3.128893    0.196115
     84          6           0       23.468028   -1.667820    0.653457
     85          7           0       18.644335    0.020905    0.293258
     86          6           0       17.934623   -1.164535    0.083188
     87          6           0       16.427467   -0.950684    0.244498
     88          6           0       16.376029    0.593237    0.119277
     89          6           0       17.810295    1.133094    0.294086
     90          6           0       15.636042    1.074199   -1.148075
     91          6           0       15.902267   -1.488078    1.590505
     92          6           0       14.535254   -2.254989    1.561107
     93          1           0       13.698716   -2.144728    2.775591
     94          7           0       20.531282    2.480741    0.110505
     95          6           0       19.371824    3.177141    0.088023
     96          6           0       19.567800    4.582790   -0.104729
     97          6           0       20.951532    4.779264   -0.244365
     98          6           0       21.553830    3.403325   -0.001552
     99          6           0       18.436473    5.595647   -0.292470
    100          6           0       21.694425    6.137797   -0.514080
    101          8           0       21.015356    7.196153   -0.535325
    102          6           0       23.244890    6.245401   -0.845907
    103          7           0       22.850804    0.704112    0.670306
    104          6           0       23.501784    1.882310    0.512877
    105          6           0       24.995818    1.752796    0.663321
    106          6           0       25.197733    0.234785    0.859924
    107          6           0       23.773233   -0.296759    0.682032
    108          6           0       25.827601    2.390871   -0.498332
    109          6           0       25.942343   -0.132777    2.230735
    110          6           0       27.405837   -0.559906    2.069259
    111          7           0       21.068475   -1.606837    0.215104
    112          6           0       22.240231   -2.357801    0.455108
    113          6           0       21.947185   -3.784960    0.268339
    114          6           0       20.583098   -3.795846    0.012431
    115          6           0       20.113253   -2.476623    0.120987
    116          6           0       22.844085   -4.967617    0.355135
    117          6           0       19.445197   -4.686105   -0.257954
    118          8           0       19.390909   -5.882919   -0.585582
    119          6           0       18.152567   -3.778165   -0.330390
    120          6           0       17.493846   -3.858568   -1.700984
    121          8           0       18.042787   -3.804499   -2.806029
    122          8           0       16.179557   -4.072977   -1.409164
    123          6           0       15.305893   -4.370877   -2.531707
    124          1           0       17.274046    3.232118    0.245081
    125          1           0       23.695942    3.894857    0.184417
    126          1           0       24.281522   -2.369922    0.846828
    127          1           0       15.897079   -1.476402   -0.550181
    128          1           0       15.776808    0.892275    0.979229
    129          1           0       14.936613    0.404514   -1.648449
    130          1           0       16.414862    1.247665   -1.890519
    131          1           0       15.073072    1.990802   -0.973561
    132          1           0       15.865063   -0.723632    2.366134
    133          1           0       16.712013   -2.106531    1.978459
    134          1           0       14.727178   -3.311523    1.374219
    135          1           0       13.921420   -1.833133    0.764051
    136          1           0       18.630979    6.075249   -1.251499
    137          1           0       18.326226    6.194998    0.611341
    138          1           0       17.547308    4.982025   -0.436950
    139          1           0       23.757113    6.265528    0.115315
    140          1           0       23.378630    7.197973   -1.358038
    141          1           0       23.449880    5.478206   -1.593050
    142          1           0       25.287827    2.282877    1.569969
    143          1           0       25.687659   -0.298649    0.045690
    144          1           0       26.620816    1.724689   -0.836498
    145          1           0       26.289374    3.336082   -0.213531
    146          1           0       25.152303    2.670675   -1.305846
    147          1           0       25.484657   -0.981527    2.738751
    148          1           0       25.844435    0.688892    2.940140
    149          1           0       28.000143   -0.149312    2.885730
    150          1           0       27.795185   -0.187015    1.122160
    151          1           0       27.552996   -1.639724    2.059255
    152          1           0       23.860180   -4.596252    0.488474
    153          1           0       22.612980   -5.669364   -0.446511
    154          1           0       22.618351   -5.441978    1.310790
    155          1           0       17.430393   -4.020041    0.449847
    156          1           0       15.462286   -3.725835   -3.397258
    157          1           0       14.233144   -4.372310   -2.338645
    158          1           0       15.476357   -5.394222   -2.867064
 ---------------------------------------------------------------------

 SCF Done:  E(RPBE1PBE) =  -4067.39290081     A.U. after   16 cycles

 Excitation energies and oscillator strengths:

 Excited State   1:      Singlet-A      1.8386 eV  674.36 nm  f=0.3512  <S**2>=0.000
     310 -> 315        0.16806
     312 -> 314        0.69269
     312 <- 314       -0.10467
 This state for optimization and/or second-order correction.
 Total Energy, E(TD-HF/TD-DFT) =  -4067.32533533
 Copying the excited state density for this state as the 1-particle RhoCI density.

 Excited State   2:      Singlet-A      1.8500 eV  670.17 nm  f=0.0000  <S**2>=0.000
     312 -> 313        0.70710

 Excited State   3:      Singlet-A      1.8908 eV  655.72 nm  f=0.3809  <S**2>=0.000
     309 -> 316       -0.16984
     311 -> 313        0.69196
     311 <- 313       -0.10819

 Excited State   4:      Singlet-A      2.1361 eV  580.43 nm  f=0.0000  <S**2>=0.000
     311 -> 314        0.70711

 Excited State   5:      Singlet-A      2.2081 eV  561.51 nm  f=0.1160  <S**2>=0.000
     309 -> 313        0.66035
     311 -> 316        0.22030

 The electronic state is 1-A.
 Alpha  occ. eigenvalues --  -46.92545 -46.92481 -19.27063 -19.27036 -19.20540
 Alpha  occ. eigenvalues --  -19.19764 -19.19668 -19.18876 -19.18691 -19.18257
 Alpha  occ. eigenvalues --  -14.41964 -14.41607 -14.41580 -14.41491 -14.39688
 Alpha  occ. eigenvalues --  -14.39393 -14.38852 -14.38390 -10.37011 -10.36524
 Alpha  occ. eigenvalues --  -10.33667 -10.32081 -10.31828 -10.31737 -10.29983
 Alpha  occ. eigenvalues --  -10.29685 -10.29260 -10.29248 -10.28978 -10.28977
 Alpha  occ. eigenvalues --  -10.28747 -10.28695 -10.28690 -10.28444 -10.28336
 Alpha  occ. eigenvalues --  -10.28033 -10.27879 -10.27771 -10.27686 -10.27145
 Alpha  occ. eigenvalues --  -10.26588 -10.26343 -10.26304 -10.26269 -10.26255
 Alpha  occ. eigenvalues --  -10.26226 -10.26153 -10.26077 -10.25933 -10.25925
 Alpha  occ. eigenvalues --  -10.25902 -10.25884 -10.25830 -10.25777 -10.25713
 Alpha  occ. eigenvalues --  -10.25702 -10.25698 -10.25686 -10.25672 -10.25411
 Alpha  occ. eigenvalues --  -10.25218 -10.24987 -10.24916 -10.24911 -10.24895
 Alpha  occ. eigenvalues --  -10.24877 -10.24779 -10.24688 -10.24677 -10.24608
 Alpha  occ. eigenvalues --  -10.24587 -10.24496 -10.24176 -10.24159 -10.23993
 Alpha  occ. eigenvalues --  -10.23792 -10.23667 -10.23555 -10.23490 -10.23416
 Alpha  occ. eigenvalues --  -10.23212 -10.23088 -10.22864 -10.22575 -10.22575
 Alpha  occ. eigenvalues --  -10.22472  -3.14656  -3.14516  -1.87462  -1.87332
 Alpha  occ. eigenvalues --   -1.87017  -1.86909  -1.86909  -1.86721  -1.12218
 Alpha  occ. eigenvalues --   -1.11645  -1.03905  -1.03220  -1.03104  -1.02963
 Alpha  occ. eigenvalues --   -1.02895  -1.02633  -0.99570  -0.99392  -0.99152
 Alpha  occ. eigenvalues --   -0.98702  -0.97985  -0.97560  -0.96708  -0.95987
 Alpha  occ. eigenvalues --   -0.88549  -0.85841  -0.83538  -0.83328  -0.83148
 Alpha  occ. eigenvalues --   -0.83068  -0.83050  -0.82931  -0.82095  -0.81739
 Alpha  occ. eigenvalues --   -0.81222  -0.80549  -0.80528  -0.80187  -0.79403
 Alpha  occ. eigenvalues --   -0.78539  -0.78461  -0.78191  -0.77515  -0.77063
 Alpha  occ. eigenvalues --   -0.76755  -0.75801  -0.75755  -0.75287  -0.75271
 Alpha  occ. eigenvalues --   -0.74492  -0.72989  -0.72301  -0.72256  -0.71693
 Alpha  occ. eigenvalues --   -0.71394  -0.70948  -0.70447  -0.70207  -0.69582
 Alpha  occ. eigenvalues --   -0.69290  -0.67174  -0.67013  -0.66559  -0.66115
 Alpha  occ. eigenvalues --   -0.64432  -0.63638  -0.63515  -0.63334  -0.63246
 Alpha  occ. eigenvalues --   -0.62307  -0.61546  -0.61539  -0.60982  -0.60543
 Alpha  occ. eigenvalues --   -0.59832  -0.59764  -0.59637  -0.59395  -0.59097
 Alpha  occ. eigenvalues --   -0.58914  -0.58415  -0.57301  -0.54792  -0.54462
 Alpha  occ. eigenvalues --   -0.54240  -0.54154  -0.53850  -0.53517  -0.53238
 Alpha  occ. eigenvalues --   -0.53169  -0.53013  -0.52683  -0.52312  -0.51734
 Alpha  occ. eigenvalues --   -0.51301  -0.51145  -0.50474  -0.50429  -0.50383
 Alpha  occ. eigenvalues --   -0.49775  -0.49729  -0.49541  -0.49149  -0.48883
 Alpha  occ. eigenvalues --   -0.48440  -0.48378  -0.47916  -0.47817  -0.47802
 Alpha  occ. eigenvalues --   -0.47704  -0.47247  -0.46973  -0.46947  -0.46574
 Alpha  occ. eigenvalues --   -0.46493  -0.46436  -0.46106  -0.46024  -0.45869
 Alpha  occ. eigenvalues --   -0.45794  -0.45710  -0.45546  -0.45522  -0.45441
 Alpha  occ. eigenvalues --   -0.44758  -0.44559  -0.44208  -0.44079  -0.44057
 Alpha  occ. eigenvalues --   -0.43934  -0.43805  -0.43649  -0.43374  -0.43366
 Alpha  occ. eigenvalues --   -0.43199  -0.43176  -0.42820  -0.42772  -0.42736
 Alpha  occ. eigenvalues --   -0.42472  -0.42269  -0.42212  -0.42085  -0.41956
 Alpha  occ. eigenvalues --   -0.41770  -0.41495  -0.41476  -0.41262  -0.41137
 Alpha  occ. eigenvalues --   -0.41121  -0.41020  -0.40758  -0.40668  -0.40535
 Alpha  occ. eigenvalues --   -0.40438  -0.40353  -0.40035  -0.39991  -0.39586
 Alpha  occ. eigenvalues --   -0.39508  -0.39488  -0.39450  -0.39314  -0.39156
 Alpha  occ. eigenvalues --   -0.38713  -0.38652  -0.38533  -0.38418  -0.38338
 Alpha  occ. eigenvalues --   -0.38261  -0.38143  -0.37688  -0.37681  -0.37395
 Alpha  occ. eigenvalues --   -0.37291  -0.37156  -0.37108  -0.37100  -0.36957
 Alpha  occ. eigenvalues --   -0.36780  -0.36730  -0.36655  -0.36464  -0.36098
 Alpha  occ. eigenvalues --   -0.36046  -0.36031  -0.35815  -0.35725  -0.35517
 Alpha  occ. eigenvalues --   -0.35275  -0.34640  -0.34520  -0.34212  -0.34126
 Alpha  occ. eigenvalues --   -0.33672  -0.33611  -0.33334  -0.33078  -0.32814
 Alpha  occ. eigenvalues --   -0.32692  -0.32475  -0.32342  -0.31963  -0.31886
 Alpha  occ. eigenvalues --   -0.31438  -0.31038  -0.30019  -0.29778  -0.29718
 Alpha  occ. eigenvalues --   -0.29194  -0.28636  -0.28568  -0.27380  -0.26925
 Alpha  occ. eigenvalues --   -0.26227  -0.25739  -0.25595  -0.25583  -0.25442
 Alpha  occ. eigenvalues --   -0.25367  -0.25365  -0.24817  -0.21209  -0.21054
 Alpha  occ. eigenvalues --   -0.19265  -0.18697
 Alpha virt. eigenvalues --   -0.11580  -0.11093  -0.05503  -0.05415  -0.04047
 Alpha virt. eigenvalues --   -0.03962  -0.02464  -0.02364  -0.01393  -0.01086
 Alpha virt. eigenvalues --    0.00272   0.00512   0.00724   0.01305   0.01863

 Mulliken charges:
               1
     1  Mg  12.000005
     2  C    6.000022
     3  C    6.000041
     4  C    5.999995
     5  C    5.999945
     6  N    6.999966
     7  C    6.000064
     8  C    5.999976
     9  C    6.000061
    10  C    5.999907
    11  C    6.000028
    12  C    5.999987
    13  C    5.999997
    14  H    0.999990
    15  N    7.000023
    16  C    5.999818
    17  C    5.999915
    18  C    5.999978
    19  C    5.999883
    20  C    6.000013
    21  C    5.999925
    22  O    7.999897
    23  C    6.000016
    24  N    6.999988
    25  C    5.999930
    26  C    6.000020
    27  C    5.999964
    28  C    6.000126
    29  C    6.000000
    30  C    5.999969
    31  C    5.999982
    32  N    6.999989
    33  C    6.000153
    34  C    6.000159
    35  C    5.999994
    36  C    6.000073
    37  C    5.999973
    38  C    6.000078
    39  O    8.000131
    40  C    5.999984
    41  C    6.000007
    42  O    7.999997
    43  O    8.000009
    44  C    6.000013
    45  H    0.999906
    46  H    0.999990
    47  H    1.000103
    48  H    0.999960
    49  H    0.999950
    50  H    0.999951
    51  H    0.999913
    52  H    1.000009
    53  H    0.999971
    54  H    0.999980
    55  H    1.000075
    56  H    0.999993
    57  H    0.999900
    58  H    0.999903
    59  H    0.999915
    60  H    0.999944
    61  H    0.999957
    62  H    0.999978
    63  H    1.000010
    64  H    1.000021
    65  H    1.000003
    66  H    0.999994
    67  H    1.000009
    68  H    1.000001
    69  H    1.000056
    70  H    1.000055
    71  H    1.000002
    72  H    1.000037
    73  H    1.000157
    74  H    1.000083
    75  H    1.000159
    76  H    1.000020
    77  H    0.999972
    78  H    1.000005
    79  H    1.000026
    80  Mg  12.001041
    81  C    5.972991
    82  C    6.009154
    83  C    6.024410
    84  C    6.000562
    85  N    6.984270
    86  C    6.034417
    87  C    5.992635
    88  C    6.008441
    89  C    5.969799
    90  C    6.002926
    91  C    6.000387
    92  C    5.998657
    93  H    1.003739
    94  N    7.004470
    95  C    5.967134
    96  C    5.979656
    97  C    5.987808
    98  C    5.962663
    99  C    6.001742
   100  C    5.988929
   101  O    7.979290
   102  C    5.998025
   103  N    7.006861
   104  C    5.965331
   105  C    6.010776
   106  C    5.992196
   107  C    6.031478
   108  C    6.000659
   109  C    5.996913
   110  C    5.999437
   111  N    6.999965
   112  C    6.035620
   113  C    6.023948
   114  C    6.003359
   115  C    6.026417
   116  C    5.998251
   117  C    6.017372
   118  O    8.030314
   119  C    6.000516
   120  C    6.005413
   121  O    8.002360
   122  O    8.001587
   123  C    5.998406
   124  H    0.989759
   125  H    0.994645
   126  H    1.012759
   127  H    0.998210
   128  H    0.994997
   129  H    0.987316
   130  H    0.999234
   131  H    1.000791
   132  H    1.008318
   133  H    0.992733
   134  H    0.995270
   135  H    1.003848
   136  H    0.986309
   137  H    0.983835
   138  H    0.985161
   139  H    0.990092
   140  H    0.989399
   141  H    0.991730
   142  H    0.999229
   143  H    0.997566
   144  H    0.990446
   145  H    1.002374
   146  H    1.003388
   147  H    0.996896
   148  H    1.011024
   149  H    1.005271
   150  H    1.005246
   151  H    0.997989
   152  H    1.014699
   153  H    1.015029
   154  H    1.018349
   155  H    1.007371
   156  H    1.004857
   157  H    1.005076
   158  H    1.000458
 Sum of Mulliken charges = 624.00000

 Dipole moment (field-independent basis, Debye):
    X=              1.9735    Y=             -9.8281    Z=              0.5116  Tot=             10.0374
 Quadrupole moment (field-independent basis, Debye-Ang):
   XX=             80.0289   YY=             -8.7078   ZZ=              0.8388
   XY=           -203.9925   XZ=             13.4963   YZ=              1.5490

 Normal termination of Gaussian 16 at Fri Oct 15 00:32:47 2021.
