 Gaussian 16, Revision A.03,
 Gaussian 16:  ES64L-G16RevA.03 25-Dec-2016

 --------------------------------------------------------
 #p PBE1PBE/Def2SVP td=(nstates=5) density=(transition=1)
 --------------------------------------------------------

 --------------------------------
 TDDFT excited states in gaussian
 --------------------------------
 Symbolic Z-matrix:
 Charge =  0 Multiplicity = 1

                         Standard orientation:
 ---------------------------------------------------------------------
 Center     Atomic      Atomic             Coordinates (Angstroms)
 Number     Number       Type             X           Y           Z
 ---------------------------------------------------------------------
      1         12           0       18.368821   -0.131544    0.020781
      2          6           0       15.058366   -0.982119   -0.857734
      3          6           0       18.431411    2.129734   -2.634475
      4          6           0       21.063890    1.342089    1.497057
      5          6           0       17.877768   -2.112760    2.964165
      6          7           0       16.938530    0.444462   -1.539027
      7          6           0       15.671722    0.000928   -1.683238
      8          6           0       14.931726    0.774906   -2.822337
      9          6           0       16.176516    1.452246   -3.560183
     10          6           0       17.331260    1.321239   -2.514957
     11          6           0       16.715196    0.881560   -4.891669
     12          6           0       13.924514    1.797463   -2.172623
     13          6           0       12.602178    1.976778   -2.968832
     14          1           0       12.054965    3.459349   -3.059349
     15          7           0       19.742783    1.419016   -0.602896
     16          6           0       19.576145    2.156406   -1.745041
     17          6           0       20.693847    3.016868   -1.837496
     18          6           0       21.469005    2.899718   -0.645633
     19          6           0       20.810309    1.810870    0.150898
     20          6           0       20.957762    3.974083   -2.975712
     21          6           0       22.590483    3.783507   -0.217332
     22          8           0       22.915082    4.770630   -0.857620
     23          6           0       23.349172    3.621527    0.995508
     24          7           0       19.257171   -0.311159    2.047209
     25          6           0       20.485078    0.318063    2.300101
     26          6           0       21.074440   -0.175178    3.584492
     27          6           0       20.042708   -1.238070    4.115270
     28          6           0       18.996394   -1.243729    3.014169
     29          6           0       22.475421   -0.735611    3.308035
     30          6           0       19.616034   -1.014026    5.614869
     31          6           0       19.846378   -2.152348    6.562053
     32          7           0       16.803335   -1.372086    0.918044
     33          6           0       16.807477   -2.126506    2.065552
     34          6           0       15.589879   -2.963807    2.137087
     35          6           0       14.874784   -2.460313    1.018162
     36          6           0       15.672390   -1.593743    0.294561
     37          6           0       15.138241   -3.924931    3.225499
     38          6           0       13.577836   -2.487657    0.395788
     39          8           0       12.546014   -3.089576    0.731786
     40          6           0       13.599911   -1.583192   -0.836130
     41          6           0       13.207935   -2.323195   -2.050155
     42          8           0       12.285846   -2.010489   -2.712387
     43          8           0       14.117659   -3.265167   -2.434956
     44          6           0       13.799335   -3.779755   -3.784541
     45          1           0       18.515569    2.790253   -3.500505
     46          1           0       21.986272    1.793345    1.866040
     47          1           0       17.535742   -2.730293    3.797987
     48          1           0       14.404739    0.046144   -3.438450
     49          1           0       16.170318    2.541971   -3.577366
     50          1           0       16.480530   -0.180470   -4.971832
     51          1           0       17.779476    1.019072   -5.082981
     52          1           0       16.155778    1.390731   -5.675736
     53          1           0       14.405492    2.761716   -2.005933
     54          1           0       13.705755    1.376731   -1.191132
     55          1           0       11.897663    1.344133   -2.428621
     56          1           0       12.833924    1.504676   -3.923821
     57          1           0       21.991155    4.294730   -3.108186
     58          1           0       20.323218    4.827668   -2.738817
     59          1           0       20.504024    3.727725   -3.935696
     60          1           0       23.835243    2.647029    0.933626
     61          1           0       22.713111    3.723586    1.875244
     62          1           0       24.100433    4.410104    1.039565
     63          1           0       21.053308    0.608134    4.341793
     64          1           0       20.292445   -2.291720    3.988630
     65          1           0       22.871955   -0.444043    2.335184
     66          1           0       22.481823   -1.825591    3.310056
     67          1           0       23.199809   -0.234062    3.949073
     68          1           0       18.555005   -0.770197    5.561206
     69          1           0       20.189997   -0.242905    6.127419
     70          1           0       18.890461   -2.371183    7.037143
     71          1           0       20.533701   -1.881010    7.363558
     72          1           0       20.335057   -3.007677    6.095364
     73          1           0       14.653367   -3.418135    4.060106
     74          1           0       15.934504   -4.582463    3.576642
     75          1           0       14.339249   -4.456465    2.708748
     76          1           0       12.812768   -0.834725   -0.754572
     77          1           0       14.553735   -4.524156   -4.040525
     78          1           0       13.792648   -2.970096   -4.514141
     79          1           0       12.880251   -4.362288   -3.837932
     80         12           0      -18.118905    0.400872    0.448096
     81          6           0      -15.091816   -0.760151   -0.868493
     82          6           0      -19.399934   -2.762875    0.274092
     83          6           0      -21.047375    1.631890    1.369970
     84          6           0      -16.716770    3.688375    0.395493
     85          7           0      -17.315166   -1.532555   -0.278294
     86          6           0      -16.042620   -1.828840   -0.713653
     87          6           0      -15.841852   -3.331297   -0.786262
     88          6           0      -17.315816   -3.891391   -0.688255
     89          6           0      -18.031920   -2.628218   -0.099749
     90          6           0      -17.898819   -4.315095   -2.030381
     91          6           0      -14.765353   -3.780844    0.267746
     92          6           0      -14.649638   -5.323652    0.412915
     93          1           0      -14.964601   -6.147945   -0.818054
     94          7           0      -19.900060   -0.424411    0.781098
     95          6           0      -20.290328   -1.739081    0.559377
     96          6           0      -21.723241   -1.937489    0.839699
     97          6           0      -22.179673   -0.632387    1.200342
     98          6           0      -21.021920    0.253871    1.114850
     99          6           0      -22.388284   -3.261262    0.775902
    100          6           0      -23.590017   -0.257731    1.576545
    101          8           0      -23.898837    0.914879    1.927144
    102          6           0      -24.684763   -1.288684    1.628903
    103          7           0      -18.768865    2.398407    0.885145
    104          6           0      -20.039537    2.585719    1.242687
    105          6           0      -20.353398    4.140574    1.377006
    106          6           0      -18.923579    4.831744    1.012527
    107          6           0      -18.087293    3.582227    0.733141
    108          6           0      -21.533910    4.502523    0.385400
    109          6           0      -18.270138    5.657295    2.201910
    110          6           0      -18.728664    7.138328    2.330517
    111          7           0      -16.361015    1.332378   -0.154111
    112          6           0      -15.859919    2.654142   -0.019665
    113          6           0      -14.407443    2.700061   -0.492387
    114          6           0      -14.083495    1.410623   -0.902159
    115          6           0      -15.289669    0.599674   -0.596582
    116          6           0      -13.475975    3.871451   -0.481490
    117          6           0      -13.050814    0.537377   -1.408810
    118          8           0      -11.884896    0.747900   -1.757679
    119          6           0      -13.602708   -0.964201   -1.239051
    120          6           0      -13.402159   -1.804928   -2.479125
    121          8           0      -14.175401   -1.844089   -3.397733
    122          8           0      -12.326350   -2.706555   -2.315098
    123          6           0      -12.281848   -3.872212   -3.210634
    124          1           0      -19.674240   -3.807874    0.113110
    125          1           0      -22.020623    2.034378    1.659031
    126          1           0      -16.262522    4.671493    0.254824
    127          1           0      -15.419232   -3.556840   -1.764528
    128          1           0      -17.465419   -4.700838    0.026979
    129          1           0      -18.189411   -5.358277   -1.907089
    130          1           0      -17.162957   -4.106920   -2.806746
    131          1           0      -18.870531   -3.863958   -2.229840
    132          1           0      -15.005695   -3.129108    1.107155
    133          1           0      -13.819331   -3.391623   -0.107119
    134          1           0      -15.341006   -5.545046    1.226042
    135          1           0      -13.627317   -5.557371    0.709784
    136          1           0      -23.099422   -3.124820   -0.038636
    137          1           0      -22.845918   -3.559148    1.718888
    138          1           0      -21.809530   -4.139128    0.485838
    139          1           0      -24.448128   -2.015554    2.404714
    140          1           0      -24.618564   -1.641206    0.598855
    141          1           0      -25.698995   -0.913372    1.762353
    142          1           0      -20.583089    4.193020    2.441952
    143          1           0      -18.833605    5.321535    0.042003
    144          1           0      -21.895515    3.665892   -0.212176
    145          1           0      -21.205268    5.269851   -0.316043
    146          1           0      -22.370214    4.786861    1.023347
    147          1           0      -17.190934    5.518049    2.258612
    148          1           0      -18.618772    5.177346    3.115777
    149          1           0      -19.105064    7.260770    3.345496
    150          1           0      -19.450111    7.346252    1.540232
    151          1           0      -17.899788    7.835615    2.206328
    152          1           0      -12.764726    3.683995    0.323220
    153          1           0      -14.033501    4.795750   -0.325279
    154          1           0      -12.853773    4.035093   -1.361122
    155          1           0      -13.072417   -1.382632   -0.384084
    156          1           0      -11.890322   -3.484212   -4.150611
    157          1           0      -13.248834   -4.374795   -3.239892
    158          1           0      -11.602006   -4.584902   -2.744510
 ---------------------------------------------------------------------

 SCF Done:  E(RPBE1PBE) =  -4067.36565279     A.U. after   17 cycles

 Excitation energies and oscillator strengths:

 Excited State   1:      Singlet-A      1.6277 eV  761.73 nm  f=0.0000  <S**2>=0.000
     312 -> 313        0.70710
 This state for optimization and/or second-order correction.
 Total Energy, E(TD-HF/TD-DFT) =  -4067.30583704
 Copying the excited state density for this state as the 1-particle RhoCI density.

 Excited State   2:      Singlet-A      1.8469 eV  671.32 nm  f=0.4209  <S**2>=0.000
     309 -> 315       -0.16861
     311 -> 313        0.69363
     311 <- 313       -0.11303

 Excited State   3:      Singlet-A      1.8621 eV  665.83 nm  f=0.3491  <S**2>=0.000
     310 -> 316        0.19113
     312 -> 314        0.68763
     312 <- 314       -0.10009

 Excited State   4:      Singlet-A      2.2121 eV  560.49 nm  f=0.1076  <S**2>=0.000
     309 -> 313        0.65188
     311 -> 315        0.25459

 Excited State   5:      Singlet-A      2.2826 eV  543.18 nm  f=0.0467  <S**2>=0.000
     310 -> 314        0.61491
     312 -> 316       -0.34319

 The electronic state is 1-A.
 Alpha  occ. eigenvalues --  -46.94173 -46.91450 -19.25680 -19.24573 -19.20409
 Alpha  occ. eigenvalues --  -19.20079 -19.19360 -19.18958 -19.18549 -19.17609
 Alpha  occ. eigenvalues --  -14.42399 -14.42274 -14.41552 -14.41092 -14.39600
 Alpha  occ. eigenvalues --  -14.39567 -14.39473 -14.38859 -10.36354 -10.35678
 Alpha  occ. eigenvalues --  -10.32631 -10.32294 -10.31803 -10.30672 -10.29903
 Alpha  occ. eigenvalues --  -10.29652 -10.29633 -10.28998 -10.28905 -10.28878
 Alpha  occ. eigenvalues --  -10.28776 -10.28721 -10.28541 -10.28406 -10.28033
 Alpha  occ. eigenvalues --  -10.28027 -10.27866 -10.27775 -10.27706 -10.27654
 Alpha  occ. eigenvalues --  -10.27238 -10.27087 -10.26837 -10.26827 -10.26820
 Alpha  occ. eigenvalues --  -10.26805 -10.26720 -10.26597 -10.26271 -10.26250
 Alpha  occ. eigenvalues --  -10.26250 -10.26129 -10.26121 -10.26074 -10.26067
 Alpha  occ. eigenvalues --  -10.25994 -10.25897 -10.25799 -10.25544 -10.25542
 Alpha  occ. eigenvalues --  -10.25462 -10.25290 -10.25188 -10.24961 -10.24916
 Alpha  occ. eigenvalues --  -10.24727 -10.24562 -10.24495 -10.24425 -10.24379
 Alpha  occ. eigenvalues --  -10.24358 -10.24304 -10.24090 -10.24018 -10.23883
 Alpha  occ. eigenvalues --  -10.23716 -10.23622 -10.23609 -10.23190 -10.23142
 Alpha  occ. eigenvalues --  -10.23037 -10.23021 -10.22842 -10.22805 -10.22802
 Alpha  occ. eigenvalues --  -10.22630  -3.15912  -3.13708  -1.88763  -1.88265
 Alpha  occ. eigenvalues --   -1.88127  -1.86555  -1.86068  -1.85963  -1.12689
 Alpha  occ. eigenvalues --   -1.10133  -1.04347  -1.03834  -1.03797  -1.03566
 Alpha  occ. eigenvalues --   -1.02540  -1.02411  -0.99711  -0.98879  -0.98375
 Alpha  occ. eigenvalues --   -0.98054  -0.98003  -0.97404  -0.97244  -0.96028
 Alpha  occ. eigenvalues --   -0.86909  -0.85904  -0.83686  -0.83339  -0.83115
 Alpha  occ. eigenvalues --   -0.82783  -0.82531  -0.82321  -0.82058  -0.81822
 Alpha  occ. eigenvalues --   -0.81247  -0.81001  -0.80615  -0.80193  -0.79148
 Alpha  occ. eigenvalues --   -0.78906  -0.78459  -0.77192  -0.76986  -0.76726
 Alpha  occ. eigenvalues --   -0.76282  -0.76133  -0.75197  -0.74997  -0.74894
 Alpha  occ. eigenvalues --   -0.74286  -0.73168  -0.72973  -0.71875  -0.71719
 Alpha  occ. eigenvalues --   -0.71226  -0.71165  -0.70760  -0.70029  -0.69788
 Alpha  occ. eigenvalues --   -0.68863  -0.67575  -0.66961  -0.66480  -0.65865
 Alpha  occ. eigenvalues --   -0.63764  -0.63667  -0.63614  -0.62939  -0.62728
 Alpha  occ. eigenvalues --   -0.62390  -0.61443  -0.61301  -0.60748  -0.60125
 Alpha  occ. eigenvalues --   -0.59892  -0.59603  -0.59565  -0.59197  -0.58418
 Alpha  occ. eigenvalues --   -0.58241  -0.57796  -0.55797  -0.55148  -0.54652
 Alpha  occ. eigenvalues --   -0.54531  -0.54018  -0.53559  -0.53473  -0.53215
 Alpha  occ. eigenvalues --   -0.52833  -0.52155  -0.52126  -0.51640  -0.51312
 Alpha  occ. eigenvalues --   -0.50985  -0.50705  -0.50586  -0.50259  -0.50151
 Alpha  occ. eigenvalues --   -0.49610  -0.49115  -0.49083  -0.48691  -0.48419
 Alpha  occ. eigenvalues --   -0.48185  -0.47963  -0.47925  -0.47799  -0.47757
 Alpha  occ. eigenvalues --   -0.47377  -0.47099  -0.47072  -0.46855  -0.46737
 Alpha  occ. eigenvalues --   -0.46459  -0.46305  -0.46282  -0.45995  -0.45931
 Alpha  occ. eigenvalues --   -0.45854  -0.45690  -0.45547  -0.45304  -0.44992
 Alpha  occ. eigenvalues --   -0.44694  -0.44550  -0.44495  -0.44192  -0.44046
 Alpha  occ. eigenvalues --   -0.43989  -0.43880  -0.43837  -0.43654  -0.43597
 Alpha  occ. eigenvalues --   -0.43476  -0.43226  -0.43116  -0.43062  -0.42758
 Alpha  occ. eigenvalues --   -0.42740  -0.42654  -0.42224  -0.41978  -0.41975
 Alpha  occ. eigenvalues --   -0.41637  -0.41549  -0.41483  -0.41410  -0.41058
 Alpha  occ. eigenvalues --   -0.40992  -0.40879  -0.40725  -0.40483  -0.40417
 Alpha  occ. eigenvalues --   -0.40281  -0.39932  -0.39909  -0.39810  -0.39784
 Alpha  occ. eigenvalues --   -0.39639  -0.39614  -0.39463  -0.39383  -0.39127
 Alpha  occ. eigenvalues --   -0.38930  -0.38817  -0.38767  -0.38445  -0.38258
 Alpha  occ. eigenvalues --   -0.38209  -0.37934  -0.37838  -0.37787  -0.37680
 Alpha  occ. eigenvalues --   -0.37644  -0.37477  -0.37430  -0.37131  -0.37035
 Alpha  occ. eigenvalues --   -0.36984  -0.36605  -0.36220  -0.36145  -0.36022
 Alpha  occ. eigenvalues --   -0.35908  -0.35713  -0.35567  -0.35238  -0.35027
 Alpha  occ. eigenvalues --   -0.35003  -0.34545  -0.34128  -0.34084  -0.34010
 Alpha  occ. eigenvalues --   -0.33621  -0.33416  -0.33204  -0.32954  -0.32860
 Alpha  occ. eigenvalues --   -0.32524  -0.32211  -0.31923  -0.31709  -0.31412
 Alpha  occ. eigenvalues --   -0.31141  -0.30881  -0.29783  -0.29345  -0.29332
 Alpha  occ. eigenvalues --   -0.29309  -0.29029  -0.28643  -0.27118  -0.26791
 Alpha  occ. eigenvalues --   -0.26343  -0.25954  -0.25713  -0.25685  -0.25544
 Alpha  occ. eigenvalues --   -0.25154  -0.25036  -0.24585  -0.21427  -0.20842
 Alpha  occ. eigenvalues --   -0.19227  -0.18114
 Alpha virt. eigenvalues --   -0.11761  -0.10433  -0.05736  -0.05494  -0.04357
 Alpha virt. eigenvalues --   -0.03878  -0.02147  -0.01985  -0.01509  -0.00137
 Alpha virt. eigenvalues --    0.00613   0.00656   0.01145   0.01322   0.01451

 Mulliken charges:
               1
     1  Mg  12.000000
     2  C    6.000000
     3  C    6.000000
     4  C    6.000000
     5  C    6.000000
     6  N    7.000000
     7  C    6.000000
     8  C    6.000000
     9  C    6.000000
    10  C    6.000000
    11  C    6.000000
    12  C    6.000000
    13  C    6.000000
    14  H    1.000000
    15  N    7.000000
    16  C    6.000000
    17  C    6.000000
    18  C    6.000000
    19  C    6.000000
    20  C    6.000000
    21  C    6.000000
    22  O    8.000000
    23  C    6.000000
    24  N    7.000000
    25  C    6.000000
    26  C    6.000000
    27  C    6.000000
    28  C    6.000000
    29  C    6.000000
    30  C    6.000000
    31  C    6.000000
    32  N    7.000000
    33  C    6.000000
    34  C    6.000000
    35  C    6.000000
    36  C    6.000000
    37  C    6.000000
    38  C    6.000000
    39  O    8.000000
    40  C    6.000000
    41  C    6.000000
    42  O    8.000000
    43  O    8.000000
    44  C    6.000000
    45  H    1.000000
    46  H    1.000000
    47  H    1.000000
    48  H    1.000000
    49  H    1.000000
    50  H    1.000000
    51  H    1.000000
    52  H    1.000000
    53  H    1.000000
    54  H    1.000000
    55  H    1.000000
    56  H    1.000000
    57  H    1.000000
    58  H    1.000000
    59  H    1.000000
    60  H    1.000000
    61  H    1.000000
    62  H    1.000000
    63  H    1.000000
    64  H    1.000000
    65  H    1.000000
    66  H    1.000000
    67  H    1.000000
    68  H    1.000000
    69  H    1.000000
    70  H    1.000000
    71  H    1.000000
    72  H    1.000000
    73  H    1.000000
    74  H    1.000000
    75  H    1.000000
    76  H    1.000000
    77  H    1.000000
    78  H    1.000000
    79  H    1.000000
    80  Mg  12.000000
    81  C    6.000000
    82  C    6.000000
    83  C    6.000000
    84  C    6.000000
    85  N    7.000000
    86  C    6.000000
    87  C    6.000000
    88  C    6.000000
    89  C    6.000000
    90  C    6.000000
    91  C    6.000000
    92  C    6.000000
    93  H    1.000000
    94  N    7.000000
    95  C    6.000000
    96  C    6.000000
    97  C    6.000000
    98  C    6.000000
    99  C    6.000000
   100  C    6.000000
   101  O    8.000000
   102  C    6.000000
   103  N    7.000000
   104  C    6.000000
   105  C    6.000000
   106  C    6.000000
   107  C    6.000000
   108  C    6.000000
   109  C    6.000000
   110  C    6.000000
   111  N    7.000000
   112  C    6.000000
   113  C    6.000000
   114  C    6.000000
   115  C    6.000000
   116  C    6.000000
   117  C    6.000000
   118  O    8.000000
   119  C    6.000000
   120  C    6.000000
   121  O    8.000000
   122  O    8.000000
   123  C    6.000000
   124  H    1.000000
   125  H    1.000000
   126  H    1.000000
   127  H    1.000000
   128  H    1.000000
   129  H    1.000000
   130  H    1.000000
   131  H    1.000000
   132  H    1.000000
   133  H    1.000000
   134  H    1.000000
   135  H    1.000000
   136  H    1.000000
   137  H    1.000000
   138  H    1.000000
   139  H    1.000000
   140  H    1.000000
   141  H    1.000000
   142  H    1.000000
   143  H    1.000000
   144  H    1.000000
   145  H    1.000000
   146  H    1.000000
   147  H    1.000000
   148  H    1.000000
   149  H    1.000000
   150  H    1.000000
   151  H    1.000000
   152  H    1.000000
   153  H    1.000000
   154  H    1.000000
   155  H    1.000000
   156  H    1.000000
   157  H    1.000000
   158  H    1.000000
 Sum of Mulliken charges = 624.00000

 Dipole moment (field-independent basis, Debye):
    X=              0.0000    Y=              0.0000    Z=             -0.0000  Tot=              0.0000
 Quadrupole moment (field-independent basis, Debye-Ang):
   XX=             -0.0000   YY=             -0.0000   ZZ=             -0.0000
   XY=             -0.0000   XZ=              0.0000   YZ=              0.0000

 Normal termination of Gaussian 16 at Thu Oct 14 05:32:23 2021.
