 Gaussian 16, Revision A.03,
 Gaussian 16:  ES64L-G16RevA.03 25-Dec-2016

 --------------------------------------------------------
 #p PBE1PBE/Def2SVP td=(nstates=5) density=(transition=1)
 --------------------------------------------------------

 --------------------------------
 TDDFT excited states in gaussian
 --------------------------------
 Symbolic Z-matrix:
 Charge =  0 Multiplicity = 1

                         Standard orientation:
 ---------------------------------------------------------------------
 Center     Atomic      Atomic             Coordinates (Angstroms)
 Number     Number       Type             X           Y           Z
 ---------------------------------------------------------------------
      1         12           0      -28.876072    0.056677   -0.297883
      2          6           0      -25.554878    0.789711   -0.286056
      3          6           0      -28.291369   -2.175588   -2.978107
      4          6           0      -31.797126   -1.402407    0.404047
      5          6           0      -29.276541    1.927711    2.765037
      6          7           0      -27.139220   -0.551091   -1.457855
      7          6           0      -25.906707   -0.186074   -1.329816
      8          6           0      -24.995475   -0.645350   -2.523070
      9          6           0      -25.981765   -1.356071   -3.526204
     10          6           0      -27.277851   -1.360988   -2.644503
     11          6           0      -26.033850   -0.788829   -4.945486
     12          6           0      -23.720397   -1.548545   -2.017776
     13          6           0      -23.819945   -2.269120   -0.683001
     14          1           0      -22.895629   -3.443851   -0.362820
     15          7           0      -29.888305   -1.574121   -1.172066
     16          6           0      -29.538890   -2.307080   -2.280699
     17          6           0      -30.500447   -3.295223   -2.513879
     18          6           0      -31.540714   -3.140048   -1.518282
     19          6           0      -31.086445   -2.013667   -0.660870
     20          6           0      -30.433654   -4.170020   -3.752297
     21          6           0      -32.800182   -4.021675   -1.438962
     22          8           0      -32.929189   -4.931170   -2.289005
     23          6           0      -33.849315   -3.897245   -0.468765
     24          7           0      -30.309270    0.129132    1.492118
     25          6           0      -31.472111   -0.440082    1.347041
     26          6           0      -32.492307   -0.028662    2.446452
     27          6           0      -31.709508    1.081959    3.180430
     28          6           0      -30.302566    1.118546    2.457644
     29          6           0      -33.791801    0.471808    1.927264
     30          6           0      -31.615952    0.836603    4.759832
     31          6           0      -32.430891    1.843194    5.671838
     32          7           0      -27.755208    1.243871    0.960681
     33          6           0      -28.014560    1.969922    2.129861
     34          6           0      -26.767219    2.693683    2.528219
     35          6           0      -25.808757    2.208042    1.627438
     36          6           0      -26.431920    1.307505    0.713331
     37          6           0      -26.554335    3.620801    3.623322
     38          6           0      -24.444591    2.288120    1.368790
     39          8           0      -23.511713    2.930480    1.872922
     40          6           0      -24.225544    1.457839    0.072202
     41          6           0      -23.583844    2.383226   -0.988817
     42          8           0      -22.557655    2.191014   -1.618529
     43          8           0      -24.318633    3.531575   -1.190505
     44          6           0      -23.795804    4.514224   -2.147217
     45          1           0      -28.001841   -2.870508   -3.768929
     46          1           0      -32.823751   -1.725702    0.587261
     47          1           0      -29.454886    2.621779    3.588868
     48          1           0      -24.704506    0.264610   -3.048544
     49          1           0      -25.761354   -2.418351   -3.635960
     50          1           0      -27.018016   -0.359641   -5.132397
     51          1           0      -25.876178   -1.557547   -5.702886
     52          1           0      -25.265928   -0.054947   -5.190221
     53          1           0      -22.912845   -0.817870   -2.069079
     54          1           0      -23.470337   -2.397310   -2.654668
     55          1           0      -24.855074   -2.609272   -0.667950
     56          1           0      -23.738701   -1.484419    0.069374
     57          1           0      -31.275170   -4.195348   -4.445107
     58          1           0      -30.162743   -5.181314   -3.448089
     59          1           0      -29.587862   -3.853008   -4.362107
     60          1           0      -34.410533   -2.963365   -0.442544
     61          1           0      -33.434516   -3.891733    0.538709
     62          1           0      -34.535888   -4.743159   -0.455479
     63          1           0      -32.824259   -0.782852    3.159850
     64          1           0      -32.094502    2.082460    2.982887
     65          1           0      -34.624035   -0.226262    2.016377
     66          1           0      -33.758744    0.572412    0.841830
     67          1           0      -34.057368    1.407935    2.418156
     68          1           0      -30.579904    0.994487    5.062520
     69          1           0      -32.005462   -0.125401    5.090138
     70          1           0      -32.981027    1.286127    6.429171
     71          1           0      -33.207231    2.297199    5.055849
     72          1           0      -31.670633    2.446296    6.168546
     73          1           0      -27.517083    4.117630    3.745485
     74          1           0      -25.795405    4.358661    3.360689
     75          1           0      -26.174125    3.027273    4.454219
     76          1           0      -23.386081    0.766430    0.141666
     77          1           0      -24.203647    5.492041   -1.890314
     78          1           0      -24.056951    4.398199   -3.198967
     79          1           0      -22.707153    4.536846   -2.204599
     80         12           0       28.814062   -0.468616    0.100704
     81          6           0       25.967633    1.570025    0.291897
     82          6           0       29.787697    1.322149   -2.674075
     83          6           0       31.469307   -2.420511   -0.076667
     84          6           0       27.580908   -2.280190    2.846652
     85          7           0       27.975823    1.288594   -0.956177
     86          6           0       26.782870    1.980335   -0.745530
     87          6           0       26.702008    3.342129   -1.540916
     88          6           0       27.830398    3.102031   -2.525189
     89          6           0       28.608645    1.814649   -2.027471
     90          6           0       27.253096    2.766847   -3.976269
     91          6           0       27.118677    4.441720   -0.466064
     92          6           0       26.292352    5.802337   -0.463323
     93          1           0       25.863355    6.138158   -1.868760
     94          7           0       30.282216   -0.619063   -1.251270
     95          6           0       30.526018    0.161800   -2.300041
     96          6           0       31.731544   -0.204389   -2.995232
     97          6           0       32.347292   -1.168993   -2.173299
     98          6           0       31.319920   -1.499019   -1.115026
     99          6           0       32.231561    0.396721   -4.257513
    100          6           0       33.752188   -1.734658   -2.204272
    101          8           0       34.234928   -2.384752   -1.270066
    102          6           0       34.599757   -1.604271   -3.472822
    103          7           0       29.400024   -2.169096    1.226387
    104          6           0       30.623948   -2.726385    0.940218
    105          6           0       30.944498   -3.764067    2.013920
    106          6           0       29.730132   -3.649908    3.058713
    107          6           0       28.860318   -2.608003    2.405875
    108          6           0       31.202900   -5.160208    1.344859
    109          6           0       30.092103   -3.351918    4.505291
    110          6           0       29.469641   -4.353215    5.528091
    111          7           0       27.117656   -0.394055    1.303418
    112          6           0       26.730614   -1.228975    2.398289
    113          6           0       25.465104   -0.828882    2.901175
    114          6           0       25.145122    0.273171    2.090422
    115          6           0       26.156841    0.444045    1.122812
    116          6           0       24.652518   -1.362474    4.036702
    117          6           0       24.178849    1.295530    1.845343
    118          8           0       23.109761    1.552468    2.347117
    119          6           0       24.747786    2.228850    0.739450
    120          6           0       23.694221    2.463839   -0.281205
    121          8           0       23.253832    1.664026   -1.102052
    122          8           0       23.340851    3.749071   -0.182699
    123          6           0       22.375188    4.239374   -1.143665
    124          1           0       30.279539    1.884282   -3.470500
    125          1           0       32.363107   -3.037774   -0.197215
    126          1           0       27.190253   -2.774890    3.738417
    127          1           0       25.652625    3.442780   -1.816255
    128          1           0       28.508991    3.954320   -2.535059
    129          1           0       26.163324    2.743909   -3.995279
    130          1           0       27.634041    1.791452   -4.278290
    131          1           0       27.662635    3.553528   -4.610014
    132          1           0       28.154822    4.765357   -0.560338
    133          1           0       27.054460    3.952162    0.506044
    134          1           0       26.945834    6.646680   -0.243591
    135          1           0       25.577853    5.835112    0.359591
    136          1           0       33.135028    0.950930   -3.999524
    137          1           0       31.516049    1.105430   -4.672166
    138          1           0       32.470820   -0.340796   -5.023047
    139          1           0       35.326019   -2.395036   -3.286259
    140          1           0       35.047992   -0.619123   -3.607231
    141          1           0       34.138241   -1.898958   -4.415108
    142          1           0       31.860604   -3.591519    2.578716
    143          1           0       29.176359   -4.588699    3.042119
    144          1           0       32.102107   -5.551168    1.821098
    145          1           0       31.288042   -5.122379    0.258802
    146          1           0       30.490985   -5.906284    1.699883
    147          1           0       29.841493   -2.342982    4.831415
    148          1           0       31.156547   -3.584227    4.560915
    149          1           0       28.971190   -5.173021    5.010569
    150          1           0       28.632535   -3.909785    6.066898
    151          1           0       30.229199   -4.763114    6.194110
    152          1           0       25.207754   -0.977121    4.892320
    153          1           0       24.615813   -2.444246    3.910051
    154          1           0       23.656640   -0.923730    4.079791
    155          1           0       24.869994    3.179862    1.259568
    156          1           0       21.484670    3.610338   -1.130443
    157          1           0       22.671712    4.218408   -2.192890
    158          1           0       22.123022    5.251788   -0.827664
 ---------------------------------------------------------------------

 SCF Done:  E(RPBE1PBE) =  -4067.36939203     A.U. after   19 cycles

 Excitation energies and oscillator strengths:

 Excited State   1:      Singlet-A      1.7694 eV  700.72 nm  f=0.0000  <S**2>=0.000
     312 -> 313        0.70711
 This state for optimization and/or second-order correction.
 Total Energy, E(TD-HF/TD-DFT) =  -4067.30436849
 Copying the excited state density for this state as the 1-particle RhoCI density.

 Excited State   2:      Singlet-A      1.8537 eV  668.86 nm  f=0.4252  <S**2>=0.000
     309 -> 315        0.15869
     311 -> 313        0.69678
     311 <- 313       -0.12231

 Excited State   3:      Singlet-A      1.8615 eV  666.05 nm  f=0.3589  <S**2>=0.000
     310 -> 316        0.15505
     312 -> 314        0.69358
     312 <- 314       -0.10797

 Excited State   4:      Singlet-A      2.1864 eV  567.07 nm  f=0.0000  <S**2>=0.000
     311 -> 314        0.70711

 Excited State   5:      Singlet-A      2.2475 eV  551.65 nm  f=0.1098  <S**2>=0.000
     309 -> 313        0.65199
     311 -> 315       -0.24630

 The electronic state is 1-A.
 Alpha  occ. eigenvalues --  -46.93699 -46.91143 -19.25950 -19.25465 -19.20294
 Alpha  occ. eigenvalues --  -19.19884 -19.19104 -19.19003 -19.17869 -19.17850
 Alpha  occ. eigenvalues --  -14.42684 -14.41751 -14.41391 -14.41111 -14.40097
 Alpha  occ. eigenvalues --  -14.39683 -14.39589 -14.38237 -10.36717 -10.35390
 Alpha  occ. eigenvalues --  -10.33116 -10.31633 -10.31579 -10.30535 -10.30493
 Alpha  occ. eigenvalues --  -10.29416 -10.29243 -10.28852 -10.28670 -10.28668
 Alpha  occ. eigenvalues --  -10.28614 -10.28580 -10.28557 -10.28417 -10.28370
 Alpha  occ. eigenvalues --  -10.28197 -10.28061 -10.27924 -10.27822 -10.27116
 Alpha  occ. eigenvalues --  -10.27054 -10.27030 -10.27000 -10.26955 -10.26536
 Alpha  occ. eigenvalues --  -10.26338 -10.26313 -10.26290 -10.26267 -10.26146
 Alpha  occ. eigenvalues --  -10.26059 -10.25835 -10.25536 -10.25378 -10.25369
 Alpha  occ. eigenvalues --  -10.25344 -10.25108 -10.25047 -10.25039 -10.25030
 Alpha  occ. eigenvalues --  -10.25006 -10.24964 -10.24805 -10.24797 -10.24796
 Alpha  occ. eigenvalues --  -10.24783 -10.24749 -10.24405 -10.24388 -10.24378
 Alpha  occ. eigenvalues --  -10.24111 -10.23916 -10.23915 -10.23889 -10.23706
 Alpha  occ. eigenvalues --  -10.23570 -10.23513 -10.23439 -10.23397 -10.23389
 Alpha  occ. eigenvalues --  -10.23163 -10.23071 -10.23063 -10.22919 -10.22551
 Alpha  occ. eigenvalues --  -10.21614  -3.15688  -3.13428  -1.88504  -1.88095
 Alpha  occ. eigenvalues --   -1.87875  -1.86281  -1.85783  -1.85683  -1.11953
 Alpha  occ. eigenvalues --   -1.10836  -1.04824  -1.04331  -1.03582  -1.02515
 Alpha  occ. eigenvalues --   -1.02126  -1.01960  -0.99584  -0.99430  -0.99102
 Alpha  occ. eigenvalues --   -0.98724  -0.98187  -0.97495  -0.97111  -0.96987
 Alpha  occ. eigenvalues --   -0.87223  -0.87144  -0.84016  -0.83817  -0.83720
 Alpha  occ. eigenvalues --   -0.83315  -0.82671  -0.82661  -0.82440  -0.82215
 Alpha  occ. eigenvalues --   -0.82080  -0.81524  -0.80922  -0.79742  -0.78993
 Alpha  occ. eigenvalues --   -0.78414  -0.78263  -0.77826  -0.77209  -0.76808
 Alpha  occ. eigenvalues --   -0.76536  -0.75963  -0.75671  -0.75525  -0.74659
 Alpha  occ. eigenvalues --   -0.74545  -0.73020  -0.72836  -0.71804  -0.71695
 Alpha  occ. eigenvalues --   -0.71243  -0.71102  -0.70636  -0.69923  -0.69701
 Alpha  occ. eigenvalues --   -0.69290  -0.67830  -0.67585  -0.66421  -0.65797
 Alpha  occ. eigenvalues --   -0.63963  -0.63452  -0.63260  -0.63226  -0.62742
 Alpha  occ. eigenvalues --   -0.62045  -0.61769  -0.61365  -0.60405  -0.60135
 Alpha  occ. eigenvalues --   -0.59788  -0.59699  -0.59543  -0.59352  -0.59098
 Alpha  occ. eigenvalues --   -0.59074  -0.57821  -0.57081  -0.55391  -0.55188
 Alpha  occ. eigenvalues --   -0.54570  -0.54171  -0.53692  -0.53572  -0.53201
 Alpha  occ. eigenvalues --   -0.53153  -0.52653  -0.52335  -0.51872  -0.51680
 Alpha  occ. eigenvalues --   -0.51152  -0.51008  -0.50247  -0.50196  -0.49970
 Alpha  occ. eigenvalues --   -0.49848  -0.49275  -0.49012  -0.48951  -0.48431
 Alpha  occ. eigenvalues --   -0.48407  -0.48035  -0.48023  -0.47757  -0.47481
 Alpha  occ. eigenvalues --   -0.47424  -0.47194  -0.47108  -0.47064  -0.46719
 Alpha  occ. eigenvalues --   -0.46719  -0.46390  -0.46089  -0.45948  -0.45703
 Alpha  occ. eigenvalues --   -0.45538  -0.45495  -0.45296  -0.45247  -0.45103
 Alpha  occ. eigenvalues --   -0.44863  -0.44834  -0.44547  -0.44495  -0.44230
 Alpha  occ. eigenvalues --   -0.44175  -0.43864  -0.43805  -0.43654  -0.43417
 Alpha  occ. eigenvalues --   -0.43280  -0.43265  -0.43036  -0.43004  -0.42846
 Alpha  occ. eigenvalues --   -0.42565  -0.42378  -0.42334  -0.42172  -0.42092
 Alpha  occ. eigenvalues --   -0.41889  -0.41874  -0.41540  -0.41512  -0.41361
 Alpha  occ. eigenvalues --   -0.41319  -0.41034  -0.40991  -0.40781  -0.40663
 Alpha  occ. eigenvalues --   -0.40482  -0.40057  -0.40042  -0.39878  -0.39823
 Alpha  occ. eigenvalues --   -0.39574  -0.39507  -0.39312  -0.39282  -0.39272
 Alpha  occ. eigenvalues --   -0.39138  -0.39049  -0.38550  -0.38532  -0.38487
 Alpha  occ. eigenvalues --   -0.38181  -0.37881  -0.37598  -0.37540  -0.37464
 Alpha  occ. eigenvalues --   -0.37416  -0.37240  -0.37182  -0.36838  -0.36766
 Alpha  occ. eigenvalues --   -0.36733  -0.36476  -0.36345  -0.35973  -0.35814
 Alpha  occ. eigenvalues --   -0.35695  -0.35642  -0.35560  -0.35357  -0.34989
 Alpha  occ. eigenvalues --   -0.34981  -0.34737  -0.34641  -0.34008  -0.33699
 Alpha  occ. eigenvalues --   -0.33582  -0.33273  -0.33028  -0.32873  -0.32633
 Alpha  occ. eigenvalues --   -0.32396  -0.31934  -0.31828  -0.31567  -0.31477
 Alpha  occ. eigenvalues --   -0.31321  -0.31291  -0.29770  -0.29620  -0.29455
 Alpha  occ. eigenvalues --   -0.29282  -0.29004  -0.28146  -0.27182  -0.27136
 Alpha  occ. eigenvalues --   -0.26447  -0.26375  -0.26368  -0.25846  -0.25283
 Alpha  occ. eigenvalues --   -0.25041  -0.24828  -0.24595  -0.21794  -0.20997
 Alpha  occ. eigenvalues --   -0.19309  -0.18663
 Alpha virt. eigenvalues --   -0.11928  -0.11045  -0.05420  -0.05303  -0.04181
 Alpha virt. eigenvalues --   -0.03520  -0.02353  -0.02030  -0.01602   0.00495
 Alpha virt. eigenvalues --    0.00567   0.00851   0.01431   0.01462   0.01776

 Mulliken charges:
               1
     1  Mg  12.000000
     2  C    6.000000
     3  C    6.000000
     4  C    6.000000
     5  C    6.000000
     6  N    7.000000
     7  C    6.000000
     8  C    6.000000
     9  C    6.000000
    10  C    6.000000
    11  C    6.000000
    12  C    6.000000
    13  C    6.000000
    14  H    1.000000
    15  N    7.000000
    16  C    6.000000
    17  C    6.000000
    18  C    6.000000
    19  C    6.000000
    20  C    6.000000
    21  C    6.000000
    22  O    8.000000
    23  C    6.000000
    24  N    7.000000
    25  C    6.000000
    26  C    6.000000
    27  C    6.000000
    28  C    6.000000
    29  C    6.000000
    30  C    6.000000
    31  C    6.000000
    32  N    7.000000
    33  C    6.000000
    34  C    6.000000
    35  C    6.000000
    36  C    6.000000
    37  C    6.000000
    38  C    6.000000
    39  O    8.000000
    40  C    6.000000
    41  C    6.000000
    42  O    8.000000
    43  O    8.000000
    44  C    6.000000
    45  H    1.000000
    46  H    1.000000
    47  H    1.000000
    48  H    1.000000
    49  H    1.000000
    50  H    1.000000
    51  H    1.000000
    52  H    1.000000
    53  H    1.000000
    54  H    1.000000
    55  H    1.000000
    56  H    1.000000
    57  H    1.000000
    58  H    1.000000
    59  H    1.000000
    60  H    1.000000
    61  H    1.000000
    62  H    1.000000
    63  H    1.000000
    64  H    1.000000
    65  H    1.000000
    66  H    1.000000
    67  H    1.000000
    68  H    1.000000
    69  H    1.000000
    70  H    1.000000
    71  H    1.000000
    72  H    1.000000
    73  H    1.000000
    74  H    1.000000
    75  H    1.000000
    76  H    1.000000
    77  H    1.000000
    78  H    1.000000
    79  H    1.000000
    80  Mg  12.000000
    81  C    6.000000
    82  C    6.000000
    83  C    6.000000
    84  C    6.000000
    85  N    7.000000
    86  C    6.000000
    87  C    6.000000
    88  C    6.000000
    89  C    6.000000
    90  C    6.000000
    91  C    6.000000
    92  C    6.000000
    93  H    1.000000
    94  N    7.000000
    95  C    6.000000
    96  C    6.000000
    97  C    6.000000
    98  C    6.000000
    99  C    6.000000
   100  C    6.000000
   101  O    8.000000
   102  C    6.000000
   103  N    7.000000
   104  C    6.000000
   105  C    6.000000
   106  C    6.000000
   107  C    6.000000
   108  C    6.000000
   109  C    6.000000
   110  C    6.000000
   111  N    7.000000
   112  C    6.000000
   113  C    6.000000
   114  C    6.000000
   115  C    6.000000
   116  C    6.000000
   117  C    6.000000
   118  O    8.000000
   119  C    6.000000
   120  C    6.000000
   121  O    8.000000
   122  O    8.000000
   123  C    6.000000
   124  H    1.000000
   125  H    1.000000
   126  H    1.000000
   127  H    1.000000
   128  H    1.000000
   129  H    1.000000
   130  H    1.000000
   131  H    1.000000
   132  H    1.000000
   133  H    1.000000
   134  H    1.000000
   135  H    1.000000
   136  H    1.000000
   137  H    1.000000
   138  H    1.000000
   139  H    1.000000
   140  H    1.000000
   141  H    1.000000
   142  H    1.000000
   143  H    1.000000
   144  H    1.000000
   145  H    1.000000
   146  H    1.000000
   147  H    1.000000
   148  H    1.000000
   149  H    1.000000
   150  H    1.000000
   151  H    1.000000
   152  H    1.000000
   153  H    1.000000
   154  H    1.000000
   155  H    1.000000
   156  H    1.000000
   157  H    1.000000
   158  H    1.000000
 Sum of Mulliken charges = 624.00000

 Dipole moment (field-independent basis, Debye):
    X=             -0.0000    Y=             -0.0000    Z=             -0.0000  Tot=              0.0000
 Quadrupole moment (field-independent basis, Debye-Ang):
   XX=              0.0000   YY=              0.0000   ZZ=             -0.0000
   XY=              0.0000   XZ=              0.0000   YZ=              0.0000

 Normal termination of Gaussian 16 at Thu Oct 14 06:26:16 2021.
