 Gaussian 16, Revision A.03,
 Gaussian 16:  ES64L-G16RevA.03 25-Dec-2016

 --------------------------------------------------------
 #p PBE1PBE/Def2SVP td=(nstates=5) density=(transition=1)
 --------------------------------------------------------

 --------------------------------
 TDDFT excited states in gaussian
 --------------------------------
 Symbolic Z-matrix:
 Charge =  0 Multiplicity = 1

                         Standard orientation:
 ---------------------------------------------------------------------
 Center     Atomic      Atomic             Coordinates (Angstroms)
 Number     Number       Type             X           Y           Z
 ---------------------------------------------------------------------
      1         12           0       18.352247   -0.730093   -0.007502
      2          6           0       15.691654    1.657689    0.262139
      3          6           0       20.169116    1.228809    2.172687
      4          6           0       20.947947   -2.566540   -0.759175
      5          6           0       16.401631   -2.395140   -2.338413
      6          7           0       18.059477    1.430135    0.905179
      7          6           0       16.850456    2.070971    0.931922
      8          6           0       16.883632    3.194180    2.002762
      9          6           0       18.354719    3.105481    2.588719
     10          6           0       18.961606    1.855924    1.852335
     11          6           0       19.303600    4.363631    2.404663
     12          6           0       15.816362    3.070620    3.122796
     13          6           0       15.076352    4.299809    3.514633
     14          1           0       15.581899    5.758702    3.196442
     15          7           0       20.360083   -0.696463    0.611342
     16          6           0       20.913470    0.092024    1.619830
     17          6           0       22.347677   -0.231707    1.743703
     18          6           0       22.541835   -1.431352    0.956829
     19          6           0       21.270009   -1.610276    0.218643
     20          6           0       23.347340    0.498791    2.588251
     21          6           0       23.768523   -2.362243    0.810129
     22          8           0       23.735198   -3.523748    0.351774
     23          6           0       25.039807   -1.911053    1.408744
     24          7           0       18.614802   -2.171638   -1.364032
     25          6           0       19.858397   -2.744327   -1.516515
     26          6           0       19.789987   -3.999134   -2.430414
     27          6           0       18.215774   -4.135394   -2.630869
     28          6           0       17.689141   -2.827855   -2.065248
     29          6           0       20.601935   -3.980299   -3.789331
     30          6           0       17.535636   -5.326780   -1.975234
     31          6           0       16.920891   -6.360050   -2.942452
     32          7           0       16.376311   -0.574567   -0.742582
     33          6           0       15.739192   -1.312292   -1.712107
     34          6           0       14.411219   -0.745875   -1.982168
     35          6           0       14.356933    0.378158   -1.177199
     36          6           0       15.563677    0.447688   -0.445877
     37          6           0       13.372166   -1.200839   -2.953089
     38          6           0       13.484875    1.437040   -0.815276
     39          8           0       12.278948    1.679571   -1.105864
     40          6           0       14.272500    2.285685    0.090383
     41          6           0       14.258383    3.711318   -0.391046
     42          8           0       14.816222    4.115512   -1.353374
     43          8           0       13.579855    4.473257    0.466578
     44          6           0       13.172737    5.778945    0.071687
     45          1           0       20.817130    1.794444    2.845675
     46          1           0       21.709169   -3.283741   -1.076002
     47          1           0       15.827926   -2.881022   -3.129367
     48          1           0       16.722194    4.126138    1.459748
     49          1           0       18.316325    2.880542    3.654143
     50          1           0       18.819882    5.260559    2.018847
     51          1           0       20.036032    4.093351    1.642615
     52          1           0       19.833846    4.579764    3.332644
     53          1           0       16.232814    2.720165    4.067897
     54          1           0       15.016669    2.375738    2.868035
     55          1           0       15.002272    4.352948    4.601236
     56          1           0       14.071083    4.215229    3.102788
     57          1           0       24.189864    0.804168    1.968149
     58          1           0       23.699792   -0.217098    3.330807
     59          1           0       22.872877    1.271931    3.193486
     60          1           0       25.341871   -1.001960    0.888643
     61          1           0       25.766965   -2.681238    1.152674
     62          1           0       24.991011   -1.874999    2.496715
     63          1           0       20.129254   -4.827604   -1.807794
     64          1           0       18.042494   -4.203682   -3.704793
     65          1           0       21.135399   -3.036219   -3.893975
     66          1           0       19.991400   -4.233509   -4.656915
     67          1           0       21.314705   -4.804018   -3.746895
     68          1           0       16.827126   -5.106669   -1.176569
     69          1           0       18.314388   -5.877866   -1.449077
     70          1           0       15.929384   -6.739271   -2.695860
     71          1           0       17.492223   -7.280084   -2.816189
     72          1           0       16.860113   -6.048976   -3.984477
     73          1           0       13.528494   -2.227933   -3.284088
     74          1           0       13.472262   -0.653410   -3.890208
     75          1           0       12.407835   -0.947770   -2.512668
     76          1           0       13.781508    2.218606    1.060867
     77          1           0       12.344610    5.640486   -0.624824
     78          1           0       13.948234    6.267681   -0.518282
     79          1           0       12.795525    6.348186    0.921676
     80         12           0      -18.544195   -0.233829    0.499850
     81          6           0      -15.799992    1.714393   -0.533214
     82          6           0      -19.854656    0.266191   -2.682363
     83          6           0      -20.966577   -2.410965    1.195339
     84          6           0      -16.627156   -1.310005    3.185032
     85          7           0      -17.757422    0.757739   -1.428136
     86          6           0      -16.682959    1.605427   -1.614806
     87          6           0      -16.744862    2.468606   -2.857434
     88          6           0      -18.060932    2.018926   -3.535653
     89          6           0      -18.610021    0.947776   -2.537221
     90          6           0      -19.090143    3.190657   -3.804588
     91          6           0      -15.516672    2.352550   -3.866504
     92          6           0      -14.795013    0.999083   -3.971094
     93          1           0      -15.070420    0.109471   -5.219421
     94          7           0      -20.150153   -0.943581   -0.570126
     95          6           0      -20.553548   -0.580333   -1.823543
     96          6           0      -21.836109   -1.223003   -2.142904
     97          6           0      -22.185034   -2.016820   -1.007643
     98          6           0      -21.051475   -1.810750   -0.054678
     99          6           0      -22.587029   -1.004893   -3.451077
    100          6           0      -23.471628   -2.921673   -1.071194
    101          8           0      -24.110060   -2.936911   -2.114374
    102          6           0      -23.858444   -3.848912    0.156668
    103          7           0      -18.692574   -1.714293    1.884261
    104          6           0      -19.883538   -2.405219    2.095607
    105          6           0      -19.790112   -3.312724    3.448432
    106          6           0      -18.270553   -2.983832    3.916403
    107          6           0      -17.854468   -1.936537    2.934272
    108          6           0      -20.874045   -2.935066    4.500582
    109          6           0      -17.275096   -4.222077    3.908976
    110          6           0      -16.452150   -4.523117    5.171172
    111          7           0      -16.637987    0.195052    1.300809
    112          6           0      -15.961331   -0.306819    2.382898
    113          6           0      -14.624157    0.321226    2.432652
    114          6           0      -14.595637    1.223023    1.335212
    115          6           0      -15.840388    1.050267    0.667835
    116          6           0      -13.518291    0.053996    3.415748
    117          6           0      -13.705907    2.159551    0.623079
    118          8           0      -12.590692    2.630304    0.890561
    119          6           0      -14.571049    2.658105   -0.524866
    120          6           0      -14.865810    4.048470   -0.434286
    121          8           0      -15.757494    4.492633    0.334430
    122          8           0      -14.072029    4.803809   -1.320133
    123          6           0      -14.363468    6.226159   -1.467635
    124          1           0      -20.395982    0.524440   -3.594546
    125          1           0      -21.818250   -3.008847    1.525195
    126          1           0      -16.114604   -1.654416    4.085163
    127          1           0      -16.791208    3.474725   -2.442411
    128          1           0      -17.755811    1.439505   -4.406266
    129          1           0      -19.167539    3.365786   -4.877604
    130          1           0      -18.688657    4.064334   -3.290470
    131          1           0      -20.084908    2.939804   -3.434828
    132          1           0      -14.815762    3.061595   -3.424135
    133          1           0      -15.824229    2.721217   -4.845340
    134          1           0      -14.997241    0.387348   -3.091270
    135          1           0      -13.723360    1.182602   -3.905984
    136          1           0      -22.507855   -1.824315   -4.165520
    137          1           0      -22.395007   -0.009605   -3.852057
    138          1           0      -23.654552   -0.884594   -3.267461
    139          1           0      -23.795921   -3.228417    1.050958
    140          1           0      -23.140097   -4.667840    0.183646
    141          1           0      -24.776495   -4.418062    0.010552
    142          1           0      -20.043719   -4.327352    3.142773
    143          1           0      -18.336995   -2.519266    4.900465
    144          1           0      -20.422411   -2.224030    5.192044
    145          1           0      -21.312678   -3.805926    4.987858
    146          1           0      -21.768411   -2.480112    4.075193
    147          1           0      -16.625841   -4.091911    3.042572
    148          1           0      -17.966596   -5.049385    3.749366
    149          1           0      -15.581407   -5.142565    4.954497
    150          1           0      -17.171079   -5.057625    5.791685
    151          1           0      -16.166250   -3.538646    5.542145
    152          1           0      -13.705130   -0.965954    3.750660
    153          1           0      -13.764471    0.735784    4.229767
    154          1           0      -12.512852    0.280418    3.059669
    155          1           0      -13.935077    2.437477   -1.381882
    156          1           0      -14.209131    6.862747   -0.596368
    157          1           0      -15.393866    6.362185   -1.797392
    158          1           0      -13.820328    6.559214   -2.352193
 ---------------------------------------------------------------------

 SCF Done:  E(RPBE1PBE) =  -4067.36475351     A.U. after   16 cycles

 Excitation energies and oscillator strengths:

 Excited State   1:      Singlet-A      1.8373 eV  674.83 nm  f=0.0000  <S**2>=0.000
     312 -> 313        0.70710
 This state for optimization and/or second-order correction.
 Total Energy, E(TD-HF/TD-DFT) =  -4067.29723494
 Copying the excited state density for this state as the 1-particle RhoCI density.

 Excited State   2:      Singlet-A      1.8639 eV  665.19 nm  f=0.5328  <S**2>=0.000
     310 -> 316       -0.17066
     311 -> 313        0.68346
     312 -> 314        0.12055
     311 <- 313       -0.10940

 Excited State   3:      Singlet-A      1.8698 eV  663.07 nm  f=0.2438  <S**2>=0.000
     309 -> 315       -0.17258
     311 -> 313       -0.12076
     312 -> 314        0.68153
     312 <- 314       -0.10235

 Excited State   4:      Singlet-A      2.1263 eV  583.11 nm  f=0.0000  <S**2>=0.000
     311 -> 314        0.70710

 Excited State   5:      Singlet-A      2.2041 eV  562.51 nm  f=0.1215  <S**2>=0.000
     310 -> 313        0.66065
     311 -> 316        0.24064

 The electronic state is 1-A.
 Alpha  occ. eigenvalues --  -46.92334 -46.92280 -19.26390 -19.25499 -19.20411
 Alpha  occ. eigenvalues --  -19.19780 -19.19700 -19.19447 -19.18996 -19.18967
 Alpha  occ. eigenvalues --  -14.42041 -14.41707 -14.41507 -14.41133 -14.39512
 Alpha  occ. eigenvalues --  -14.39316 -14.39194 -14.38999 -10.36951 -10.35878
 Alpha  occ. eigenvalues --  -10.33628 -10.32515 -10.32276 -10.31548 -10.29541
 Alpha  occ. eigenvalues --  -10.29288 -10.29234 -10.29061 -10.28856 -10.28600
 Alpha  occ. eigenvalues --  -10.28522 -10.28442 -10.28422 -10.28420 -10.28231
 Alpha  occ. eigenvalues --  -10.27948 -10.27932 -10.27557 -10.27452 -10.27430
 Alpha  occ. eigenvalues --  -10.27137 -10.26718 -10.26693 -10.26469 -10.26224
 Alpha  occ. eigenvalues --  -10.26199 -10.26109 -10.26099 -10.26079 -10.26064
 Alpha  occ. eigenvalues --  -10.26051 -10.25916 -10.25887 -10.25833 -10.25777
 Alpha  occ. eigenvalues --  -10.25628 -10.25462 -10.25398 -10.25355 -10.25264
 Alpha  occ. eigenvalues --  -10.25158 -10.25087 -10.24997 -10.24972 -10.24639
 Alpha  occ. eigenvalues --  -10.24582 -10.24464 -10.24412 -10.24401 -10.24269
 Alpha  occ. eigenvalues --  -10.24266 -10.24250 -10.24239 -10.24049 -10.23787
 Alpha  occ. eigenvalues --  -10.23659 -10.23519 -10.23420 -10.23415 -10.23371
 Alpha  occ. eigenvalues --  -10.23007 -10.22992 -10.22897 -10.22843 -10.22826
 Alpha  occ. eigenvalues --  -10.22568  -3.14535  -3.14437  -1.87332  -1.87260
 Alpha  occ. eigenvalues --   -1.86926  -1.86825  -1.86761  -1.86658  -1.13276
 Alpha  occ. eigenvalues --   -1.09656  -1.05100  -1.04394  -1.03796  -1.03199
 Alpha  occ. eigenvalues --   -1.02512  -1.01754  -0.99317  -0.98842  -0.98339
 Alpha  occ. eigenvalues --   -0.98163  -0.97215  -0.97205  -0.96511  -0.96472
 Alpha  occ. eigenvalues --   -0.87754  -0.87505  -0.83471  -0.83449  -0.83074
 Alpha  occ. eigenvalues --   -0.82709  -0.82672  -0.82323  -0.81870  -0.81270
 Alpha  occ. eigenvalues --   -0.81114  -0.80604  -0.80434  -0.79796  -0.78814
 Alpha  occ. eigenvalues --   -0.78808  -0.78157  -0.77777  -0.77041  -0.76845
 Alpha  occ. eigenvalues --   -0.76326  -0.76004  -0.75845  -0.75221  -0.74829
 Alpha  occ. eigenvalues --   -0.74406  -0.72658  -0.72506  -0.71974  -0.71488
 Alpha  occ. eigenvalues --   -0.71430  -0.70992  -0.70821  -0.70580  -0.69587
 Alpha  occ. eigenvalues --   -0.69258  -0.67520  -0.66796  -0.66174  -0.65946
 Alpha  occ. eigenvalues --   -0.63707  -0.63629  -0.63369  -0.63322  -0.62821
 Alpha  occ. eigenvalues --   -0.61842  -0.61220  -0.60740  -0.60339  -0.60187
 Alpha  occ. eigenvalues --   -0.59665  -0.59419  -0.59219  -0.59093  -0.58940
 Alpha  occ. eigenvalues --   -0.58722  -0.57485  -0.57015  -0.54770  -0.54712
 Alpha  occ. eigenvalues --   -0.54456  -0.54121  -0.53886  -0.53599  -0.53461
 Alpha  occ. eigenvalues --   -0.53208  -0.52774  -0.52344  -0.52329  -0.51759
 Alpha  occ. eigenvalues --   -0.50849  -0.50714  -0.50650  -0.50055  -0.49620
 Alpha  occ. eigenvalues --   -0.49485  -0.49473  -0.48965  -0.48780  -0.48374
 Alpha  occ. eigenvalues --   -0.48302  -0.47955  -0.47728  -0.47612  -0.47591
 Alpha  occ. eigenvalues --   -0.47291  -0.47167  -0.46942  -0.46934  -0.46662
 Alpha  occ. eigenvalues --   -0.46182  -0.46148  -0.46105  -0.45910  -0.45799
 Alpha  occ. eigenvalues --   -0.45786  -0.45462  -0.45164  -0.44929  -0.44730
 Alpha  occ. eigenvalues --   -0.44588  -0.44540  -0.44350  -0.43930  -0.43909
 Alpha  occ. eigenvalues --   -0.43856  -0.43826  -0.43685  -0.43530  -0.43380
 Alpha  occ. eigenvalues --   -0.43236  -0.43206  -0.42955  -0.42914  -0.42909
 Alpha  occ. eigenvalues --   -0.42828  -0.42382  -0.42084  -0.42079  -0.41775
 Alpha  occ. eigenvalues --   -0.41524  -0.41476  -0.41335  -0.41123  -0.40971
 Alpha  occ. eigenvalues --   -0.40926  -0.40907  -0.40871  -0.40591  -0.40546
 Alpha  occ. eigenvalues --   -0.40422  -0.40067  -0.40040  -0.39741  -0.39517
 Alpha  occ. eigenvalues --   -0.39517  -0.39423  -0.39283  -0.39248  -0.39067
 Alpha  occ. eigenvalues --   -0.38917  -0.38687  -0.38436  -0.38293  -0.38021
 Alpha  occ. eigenvalues --   -0.37986  -0.37798  -0.37751  -0.37584  -0.37440
 Alpha  occ. eigenvalues --   -0.37399  -0.37241  -0.37054  -0.36886  -0.36821
 Alpha  occ. eigenvalues --   -0.36571  -0.36492  -0.36483  -0.36274  -0.36103
 Alpha  occ. eigenvalues --   -0.35954  -0.35800  -0.35516  -0.35226  -0.35170
 Alpha  occ. eigenvalues --   -0.34932  -0.34779  -0.34641  -0.34614  -0.33909
 Alpha  occ. eigenvalues --   -0.33838  -0.33177  -0.32844  -0.32591  -0.32504
 Alpha  occ. eigenvalues --   -0.32071  -0.32042  -0.31967  -0.31585  -0.31341
 Alpha  occ. eigenvalues --   -0.31214  -0.30874  -0.29971  -0.29457  -0.29225
 Alpha  occ. eigenvalues --   -0.29053  -0.28844  -0.28469  -0.27068  -0.26885
 Alpha  occ. eigenvalues --   -0.26194  -0.26098  -0.25998  -0.25962  -0.25656
 Alpha  occ. eigenvalues --   -0.25604  -0.25310  -0.25298  -0.21024  -0.20983
 Alpha  occ. eigenvalues --   -0.18906  -0.18472
 Alpha virt. eigenvalues --   -0.11350  -0.10730  -0.05263  -0.05021  -0.04331
 Alpha virt. eigenvalues --   -0.03961  -0.02380  -0.02364  -0.01154  -0.01014
 Alpha virt. eigenvalues --   -0.00487   0.00830   0.01126   0.01209   0.01685

 Mulliken charges:
               1
     1  Mg  12.000000
     2  C    6.000000
     3  C    6.000000
     4  C    6.000000
     5  C    6.000000
     6  N    7.000000
     7  C    6.000000
     8  C    6.000000
     9  C    6.000000
    10  C    6.000000
    11  C    6.000000
    12  C    6.000000
    13  C    6.000000
    14  H    1.000000
    15  N    7.000000
    16  C    6.000000
    17  C    6.000000
    18  C    6.000000
    19  C    6.000000
    20  C    6.000000
    21  C    6.000000
    22  O    8.000000
    23  C    6.000000
    24  N    7.000000
    25  C    6.000000
    26  C    6.000000
    27  C    6.000000
    28  C    6.000000
    29  C    6.000000
    30  C    6.000000
    31  C    6.000000
    32  N    7.000000
    33  C    6.000000
    34  C    6.000000
    35  C    6.000000
    36  C    6.000000
    37  C    6.000000
    38  C    6.000000
    39  O    8.000000
    40  C    6.000000
    41  C    6.000000
    42  O    8.000000
    43  O    8.000000
    44  C    6.000000
    45  H    1.000000
    46  H    1.000000
    47  H    1.000000
    48  H    1.000000
    49  H    1.000000
    50  H    1.000000
    51  H    1.000000
    52  H    1.000000
    53  H    1.000000
    54  H    1.000000
    55  H    1.000000
    56  H    1.000000
    57  H    1.000000
    58  H    1.000000
    59  H    1.000000
    60  H    1.000000
    61  H    1.000000
    62  H    1.000000
    63  H    1.000000
    64  H    1.000000
    65  H    1.000000
    66  H    1.000000
    67  H    1.000000
    68  H    1.000000
    69  H    1.000000
    70  H    1.000000
    71  H    1.000000
    72  H    1.000000
    73  H    1.000000
    74  H    1.000000
    75  H    1.000000
    76  H    1.000000
    77  H    1.000000
    78  H    1.000000
    79  H    1.000000
    80  Mg  12.000000
    81  C    6.000000
    82  C    6.000000
    83  C    6.000000
    84  C    6.000000
    85  N    7.000000
    86  C    6.000000
    87  C    6.000000
    88  C    6.000000
    89  C    6.000000
    90  C    6.000000
    91  C    6.000000
    92  C    6.000000
    93  H    1.000000
    94  N    7.000000
    95  C    6.000000
    96  C    6.000000
    97  C    6.000000
    98  C    6.000000
    99  C    6.000000
   100  C    6.000000
   101  O    8.000000
   102  C    6.000000
   103  N    7.000000
   104  C    6.000000
   105  C    6.000000
   106  C    6.000000
   107  C    6.000000
   108  C    6.000000
   109  C    6.000000
   110  C    6.000000
   111  N    7.000000
   112  C    6.000000
   113  C    6.000000
   114  C    6.000000
   115  C    6.000000
   116  C    6.000000
   117  C    6.000000
   118  O    8.000000
   119  C    6.000000
   120  C    6.000000
   121  O    8.000000
   122  O    8.000000
   123  C    6.000000
   124  H    1.000000
   125  H    1.000000
   126  H    1.000000
   127  H    1.000000
   128  H    1.000000
   129  H    1.000000
   130  H    1.000000
   131  H    1.000000
   132  H    1.000000
   133  H    1.000000
   134  H    1.000000
   135  H    1.000000
   136  H    1.000000
   137  H    1.000000
   138  H    1.000000
   139  H    1.000000
   140  H    1.000000
   141  H    1.000000
   142  H    1.000000
   143  H    1.000000
   144  H    1.000000
   145  H    1.000000
   146  H    1.000000
   147  H    1.000000
   148  H    1.000000
   149  H    1.000000
   150  H    1.000000
   151  H    1.000000
   152  H    1.000000
   153  H    1.000000
   154  H    1.000000
   155  H    1.000000
   156  H    1.000000
   157  H    1.000000
   158  H    1.000000
 Sum of Mulliken charges = 624.00000

 Dipole moment (field-independent basis, Debye):
    X=             -0.0000    Y=              0.0000    Z=             -0.0000  Tot=              0.0000
 Quadrupole moment (field-independent basis, Debye-Ang):
   XX=             -0.0000   YY=              0.0000   ZZ=              0.0000
   XY=             -0.0000   XZ=             -0.0000   YZ=              0.0000

 Normal termination of Gaussian 16 at Fri Oct 15 11:09:25 2021.
