 Gaussian 16, Revision A.03,
 Gaussian 16:  ES64L-G16RevA.03 25-Dec-2016

 ---------------------------------------------------------
 #p PBE1PBE/Def2SVP td=(nstates=5, root=1) density=current
 ---------------------------------------------------------

 --------------------------------
 TDDFT excited states in gaussian
 --------------------------------
 Symbolic Z-matrix:
 Charge =  0 Multiplicity = 1

                         Standard orientation:
 ---------------------------------------------------------------------
 Center     Atomic      Atomic             Coordinates (Angstroms)
 Number     Number       Type             X           Y           Z
 ---------------------------------------------------------------------
      1         12           0       -0.637433   -0.050895   -0.303206
      2          6           0        2.839932    0.025801    0.267002
      3          6           0       -0.493463   -3.364991    0.187388
      4          6           0       -3.902867    0.075189   -0.343941
      5          6           0       -0.529135    3.512791   -0.060548
      6          7           0        1.002057   -1.478942    0.218334
      7          6           0        2.337344   -1.282642    0.328856
      8          6           0        3.122554   -2.557316    0.562631
      9          6           0        2.005104   -3.630629    0.246031
     10          6           0        0.726362   -2.819249    0.219413
     11          6           0        2.218568   -4.439433   -1.099558
     12          6           0        3.851261   -2.852125    1.945729
     13          6           0        3.519128   -2.041905    3.226879
     14          1           0        3.594555   -2.787585    4.611451
     15          7           0       -1.996196   -1.538820   -0.230571
     16          6           0       -1.776789   -2.809421    0.079993
     17          6           0       -3.085006   -3.508132    0.204636
     18          6           0       -4.110379   -2.479514   -0.129594
     19          6           0       -3.336248   -1.242277   -0.233966
     20          6           0       -3.232150   -4.992196    0.406619
     21          6           0       -5.598712   -2.705172   -0.184215
     22          8           0       -6.028608   -3.843763   -0.016554
     23          6           0       -6.685315   -1.584136   -0.378393
     24          7           0       -2.092567    1.618439   -0.100661
     25          6           0       -3.320592    1.302648   -0.327276
     26          6           0       -4.149923    2.659285   -0.431581
     27          6           0       -3.065642    3.683200   -0.089375
     28          6           0       -1.774349    2.888537   -0.057756
     29          6           0       -4.909686    2.974917   -1.730776
     30          6           0       -3.212228    4.312051    1.391763
     31          6           0       -3.555950    5.810849    1.469957
     32          7           0        0.773780    1.488360    0.088533
     33          6           0        0.710019    2.855656    0.034108
     34          6           0        2.074706    3.443161    0.011299
     35          6           0        2.974807    2.362531    0.232111
     36          6           0        2.095548    1.197329    0.153777
     37          6           0        2.444889    4.943111   -0.003915
     38          6           0        4.320330    1.941612    0.438555
     39          8           0        5.389571    2.533151    0.665981
     40          6           0        4.310160    0.392352    0.394776
     41          6           0        5.238452   -0.024215   -0.749803
     42          8           0        6.341119   -0.502987   -0.772862
     43          8           0        4.503318    0.045011   -1.938207
     44          6           0        5.166205   -0.429268   -3.192596
     45          1           0       -0.417910   -4.440872    0.359447
     46          1           0       -4.994328    0.061497   -0.394256
     47          1           0       -0.495477    4.587125   -0.251357
     48          1           0        3.844905   -2.586256   -0.252934
     49          1           0        1.989838   -4.377289    1.040121
     50          1           0        3.096474   -4.079560   -1.635048
     51          1           0        1.370911   -4.097217   -1.692237
     52          1           0        2.239030   -5.508243   -0.885869
     53          1           0        4.921891   -2.771032    1.757458
     54          1           0        3.712107   -3.903890    2.198071
     55          1           0        2.499771   -1.681599    3.088158
     56          1           0        4.240097   -1.256070    3.450090
     57          1           0       -4.239632   -5.356106    0.206094
     58          1           0       -2.832209   -5.206241    1.398455
     59          1           0       -2.484196   -5.416642   -0.263901
     60          1           0       -6.627244   -0.880972   -1.210085
     61          1           0       -6.642916   -0.922826    0.487046
     62          1           0       -7.688758   -1.998452   -0.471760
     63          1           0       -4.964270    2.684157    0.291732
     64          1           0       -2.955170    4.564776   -0.721778
     65          1           0       -4.807090    2.175999   -2.465324
     66          1           0       -4.610647    3.936468   -2.149368
     67          1           0       -5.988760    3.048814   -1.595692
     68          1           0       -2.290841    4.214411    1.964250
     69          1           0       -3.986541    3.721188    1.881546
     70          1           0       -3.133850    6.345992    2.320939
     71          1           0       -4.637719    5.847271    1.598303
     72          1           0       -3.167449    6.204314    0.530542
     73          1           0        1.622421    5.623917    0.213063
     74          1           0        2.786251    5.118208   -1.023872
     75          1           0        3.309152    5.085259    0.644418
     76          1           0        4.694957    0.002682    1.336634
     77          1           0        6.247951   -0.330323   -3.280092
     78          1           0        4.756227    0.234554   -3.953520
     79          1           0        4.933335   -1.429671   -3.557944
 ---------------------------------------------------------------------

 SCF Done:  E(RPBE1PBE) =  -2033.67251540     A.U. after   16 cycles

 Excitation energies and oscillator strengths:

 Excited State   1:      Singlet-A      1.9112 eV  648.73 nm  f=0.3968  <S**2>=0.000
     155 ->158         0.17695
     156 ->157         0.69115
     156 <-157        -0.10569
 This state for optimization and/or second-order correction.
 Total Energy, E(TD-HF/TD-DFT) =  -2033.60228117
 Copying the excited state density for this state as the 1-particle RhoCI density.

 Excited State   2:      Singlet-A      2.2680 eV  546.66 nm  f=0.0972  <S**2>=0.000
     155 ->157         0.65265
     156 ->158        -0.25851

 Excited State   3:      Singlet-A      2.9787 eV  416.24 nm  f=0.0002  <S**2>=0.000
     152 ->157         0.50285
     152 ->159        -0.16844
     154 ->157        -0.42634

 Excited State   4:      Singlet-A      2.9851 eV  415.35 nm  f=0.0046  <S**2>=0.000
     152 ->157         0.39985
     152 ->159        -0.12857
     153 ->157        -0.11501
     154 ->157         0.53550

 Excited State   5:      Singlet-A      3.1370 eV  395.24 nm  f=0.0001  <S**2>=0.000
     153 ->157         0.65393
     153 ->159         0.13399
     153 ->160         0.12429
     154 ->157         0.11265

 The electronic state is 1-A.
 Alpha  occ. eigenvalues --  -46.93462 -19.25216 -19.20581 -19.19527 -19.18974
 Alpha  occ. eigenvalues --  -14.41833 -14.41307 -14.40014 -14.39887 -10.36858
 Alpha  occ. eigenvalues --  -10.32921 -10.32668 -10.29113 -10.29067 -10.28734
 Alpha  occ. eigenvalues --  -10.28682 -10.28554 -10.28509 -10.27944 -10.27803
 Alpha  occ. eigenvalues --  -10.27636 -10.27632 -10.26862 -10.26746 -10.26599
 Alpha  occ. eigenvalues --  -10.26489 -10.25896 -10.25756 -10.25592 -10.25473
 Alpha  occ. eigenvalues --  -10.25228 -10.25148 -10.24944 -10.24781 -10.24462
 Alpha  occ. eigenvalues --  -10.24386 -10.24147 -10.24040 -10.24038 -10.23999
 Alpha  occ. eigenvalues --  -10.23679 -10.23215 -10.23018  -3.15522  -1.88350
 Alpha  occ. eigenvalues --   -1.87894  -1.87748  -1.10758  -1.04456  -1.03890
 Alpha  occ. eigenvalues --   -1.02066  -1.01404  -0.99433  -0.98708  -0.98034
 Alpha  occ. eigenvalues --   -0.87851  -0.84176  -0.83186  -0.82878  -0.82633
 Alpha  occ. eigenvalues --   -0.81111  -0.79897  -0.79196  -0.78197  -0.77177
 Alpha  occ. eigenvalues --   -0.76030  -0.75119  -0.74789  -0.72840  -0.71989
 Alpha  occ. eigenvalues --   -0.71339  -0.70948  -0.69793  -0.67745  -0.66891
 Alpha  occ. eigenvalues --   -0.64016  -0.63588  -0.63069  -0.62075  -0.61316
 Alpha  occ. eigenvalues --   -0.60170  -0.60001  -0.59417  -0.57666  -0.55134
 Alpha  occ. eigenvalues --   -0.54896  -0.54050  -0.53185  -0.52746  -0.51674
 Alpha  occ. eigenvalues --   -0.51026  -0.50417  -0.50146  -0.49611  -0.49066
 Alpha  occ. eigenvalues --   -0.48515  -0.48279  -0.47537  -0.47374  -0.46621
 Alpha  occ. eigenvalues --   -0.46306  -0.46100  -0.45753  -0.45640  -0.45214
 Alpha  occ. eigenvalues --   -0.44662  -0.44423  -0.44079  -0.43715  -0.43486
 Alpha  occ. eigenvalues --   -0.43226  -0.43149  -0.42911  -0.42609  -0.42326
 Alpha  occ. eigenvalues --   -0.42181  -0.41893  -0.41696  -0.41354  -0.41099
 Alpha  occ. eigenvalues --   -0.40778  -0.40590  -0.40236  -0.40125  -0.39667
 Alpha  occ. eigenvalues --   -0.39023  -0.38812  -0.38401  -0.38145  -0.37920
 Alpha  occ. eigenvalues --   -0.37694  -0.37052  -0.36971  -0.36854  -0.36310
 Alpha  occ. eigenvalues --   -0.36147  -0.35816  -0.35600  -0.34904  -0.34114
 Alpha  occ. eigenvalues --   -0.33824  -0.33271  -0.32701  -0.31977  -0.31542
 Alpha  occ. eigenvalues --   -0.31319  -0.30061  -0.29421  -0.29097  -0.27440
 Alpha  occ. eigenvalues --   -0.26587  -0.26155  -0.25900  -0.25071  -0.21421
 Alpha  occ. eigenvalues --   -0.19190
 Alpha virt. eigenvalues --   -0.11434  -0.05535  -0.04783  -0.02659  -0.01458
 Alpha virt. eigenvalues --    0.00171   0.00516   0.01250   0.02859   0.03608
 Alpha virt. eigenvalues --    0.04597   0.05086   0.05465   0.06294   0.06834

 Mulliken charges:
               1
     1  Mg   0.952928
     2  C   -0.043608
     3  C   -0.080735
     4  C   -0.036300
     5  C   -0.089173
     6  N   -0.387543
     7  C    0.012898
     8  C   -0.017340
     9  C   -0.187867
    10  C    0.079253
    11  C    0.023618
    12  C   -0.008071
    13  C   -0.168356
    14  H    0.033727
    15  N   -0.513628
    16  C    0.183912
    17  C   -0.180648
    18  C   -0.082774
    19  C    0.183890
    20  C    0.071940
    21  C    0.058186
    22  O   -0.247060
    23  C   -0.042051
    24  N   -0.325687
    25  C    0.079861
    26  C   -0.083757
    27  C   -0.157217
    28  C    0.099907
    29  C    0.005030
    30  C   -0.052725
    31  C   -0.058588
    32  N   -0.438968
    33  C    0.135472
    34  C   -0.191334
    35  C   -0.002702
    36  C    0.177507
    37  C    0.064028
    38  C    0.096388
    39  O   -0.237464
    40  C   -0.126007
    41  C    0.302812
    42  O   -0.216868
    43  O   -0.397704
    44  C    0.119018
    45  H   -0.005198
    46  H   -0.039221
    47  H    0.006470
    48  H    0.058517
    49  H    0.050095
    50  H    0.042984
    51  H    0.047872
    52  H    0.060397
    53  H    0.053141
    54  H    0.052310
    55  H    0.082077
    56  H    0.081440
    57  H    0.081760
    58  H    0.047533
    59  H    0.044288
    60  H    0.060353
    61  H    0.062230
    62  H    0.053099
    63  H    0.050128
    64  H    0.040782
    65  H    0.042029
    66  H    0.043386
    67  H    0.034234
    68  H    0.056025
    69  H    0.035156
    70  H    0.050402
    71  H    0.044667
    72  H    0.037492
    73  H    0.043978
    74  H    0.058558
    75  H    0.072118
    76  H    0.077249
    77  H    0.069298
    78  H    0.048734
    79  H    0.049417
 Sum of Mulliken charges =  -0.00000

 Dipole moment (field-independent basis, Debye):
    X=             -3.5665    Y=              1.5015    Z=             -2.5569  Tot=              4.6381
 Quadrupole moment (field-independent basis, Debye-Ang):
   XX=           -299.8809   YY=           -244.9651   ZZ=           -248.6116
   XY=            -45.5617   XZ=             -7.2454   YZ=             -2.2025

 Normal termination of Gaussian 16 at Wed Oct 13 14:32:11 2021.
