 Gaussian 16, Revision A.03,
 Gaussian 16:  ES64L-G16RevA.03 25-Dec-2016

 --------------------------------------------------------
 #p PBE1PBE/Def2SVP td=(nstates=5) density=(transition=1)
 --------------------------------------------------------

 --------------------------------
 TDDFT excited states in gaussian
 --------------------------------
 Symbolic Z-matrix:
 Charge =  0 Multiplicity = 1

                         Standard orientation:
 ---------------------------------------------------------------------
 Center     Atomic      Atomic             Coordinates (Angstroms)
 Number     Number       Type             X           Y           Z
 ---------------------------------------------------------------------
      1         12           0       21.854717   -0.525771    0.208465
      2          6           0       18.450040   -1.567220    0.182103
      3          6           0       22.131506   -1.432709   -3.082978
      4          6           0       24.748253    1.427428   -0.035498
      5          6           0       21.321506    0.907225    3.372430
      6          7           0       20.242732   -1.197793   -1.341299
      7          6           0       19.053067   -1.765662   -1.084457
      8          6           0       18.669729   -2.673121   -2.239071
      9          6           0       19.825824   -2.588454   -3.347769
     10          6           0       20.875857   -1.777302   -2.432329
     11          6           0       20.282941   -4.021755   -3.700570
     12          6           0       17.309787   -2.290224   -2.800349
     13          6           0       16.982536   -0.779591   -2.868781
     14          1           0       16.987571   -0.124400   -4.276965
     15          7           0       23.329427   -0.123252   -1.346224
     16          6           0       23.194291   -0.610339   -2.628087
     17          6           0       24.417437   -0.290756   -3.294986
     18          6           0       25.195521    0.629583   -2.494239
     19          6           0       24.476535    0.663707   -1.195520
     20          6           0       24.680475   -0.662516   -4.735928
     21          6           0       26.385574    1.483692   -2.934315
     22          8           0       26.758323    1.457738   -4.091421
     23          6           0       27.103869    2.351952   -2.050255
     24          7           0       22.843640    1.034990    1.434441
     25          6           0       24.044516    1.529688    1.172961
     26          6           0       24.539583    2.502231    2.231068
     27          6           0       23.238162    2.590703    3.138859
     28          6           0       22.435903    1.422459    2.691335
     29          6           0       25.836205    1.990211    3.029111
     30          6           0       22.544722    4.021950    2.984308
     31          6           0       22.535973    4.993263    4.130602
     32          7           0       20.388144   -0.553323    1.582444
     33          6           0       20.356804   -0.028331    2.890456
     34          6           0       19.119141   -0.432163    3.583382
     35          6           0       18.406833   -1.038539    2.548838
     36          6           0       19.122195   -1.003919    1.301101
     37          6           0       18.743003   -0.325299    5.101626
     38          6           0       17.118027   -1.679236    2.268011
     39          8           0       16.131087   -1.947063    2.973080
     40          6           0       17.087135   -2.063466    0.751890
     41          6           0       15.950242   -1.212802    0.301029
     42          8           0       15.894214   -0.014212    0.404159
     43          8           0       14.945881   -1.978076   -0.116501
     44          6           0       13.718976   -1.332017   -0.700661
     45          1           0       22.324449   -1.977325   -4.009436
     46          1           0       25.656538    2.026671    0.053927
     47          1           0       21.217804    1.484370    4.294204
     48          1           0       18.613768   -3.611776   -1.687754
     49          1           0       19.515136   -2.036348   -4.235160
     50          1           0       20.112046   -4.179167   -4.765331
     51          1           0       19.733179   -4.811490   -3.187885
     52          1           0       21.354335   -4.047736   -3.503539
     53          1           0       16.525583   -2.755930   -2.203426
     54          1           0       17.214419   -2.625689   -3.833459
     55          1           0       17.681616   -0.087386   -2.399687
     56          1           0       15.995410   -0.696809   -2.413850
     57          1           0       23.821207   -1.155739   -5.191059
     58          1           0       25.607707   -1.235896   -4.763372
     59          1           0       24.951455    0.252962   -5.260660
     60          1           0       26.529939    3.184938   -1.643683
     61          1           0       27.951292    2.784754   -2.581568
     62          1           0       27.381259    1.684225   -1.233879
     63          1           0       24.698818    3.515580    1.863334
     64          1           0       23.680410    2.611473    4.135057
     65          1           0       26.172077    1.042702    2.606771
     66          1           0       25.526419    1.802559    4.057353
     67          1           0       26.666680    2.694739    3.095694
     68          1           0       21.469520    3.925131    2.833309
     69          1           0       22.958780    4.566967    2.137117
     70          1           0       21.589528    5.031262    4.670011
     71          1           0       22.695561    5.920489    3.579268
     72          1           0       23.421802    4.962041    4.765194
     73          1           0       18.488743    0.714414    5.305839
     74          1           0       19.592404   -0.706937    5.668406
     75          1           0       17.832964   -0.900768    5.270256
     76          1           0       16.933029   -3.142678    0.720218
     77          1           0       12.998022   -1.029417    0.059127
     78          1           0       13.209564   -2.006085   -1.390507
     79          1           0       14.097878   -0.475770   -1.258643
     80         12           0      -20.652572    0.741759   -0.515257
     81          6           0      -21.574845   -2.687538   -0.026448
     82          6           0      -17.687854    0.071871    0.727031
     83          6           0      -20.291896    4.028650   -0.290104
     84          6           0      -24.153665    1.276388   -1.507857
     85          7           0      -19.734841   -1.118364    0.215494
     86          6           0      -20.276025   -2.410337    0.368696
     87          6           0      -19.266176   -3.454535    0.978609
     88          6           0      -17.965083   -2.452429    1.135355
     89          6           0      -18.441112   -1.082009    0.663817
     90          6           0      -17.437382   -2.378932    2.632214
     91          6           0      -19.029653   -4.752460    0.130432
     92          6           0      -17.783590   -5.556171    0.482610
     93          1           0      -18.063551   -6.946070    1.082931
     94          7           0      -19.141179    1.888122    0.042397
     95          6           0      -17.920877    1.483246    0.530100
     96          6           0      -17.032017    2.596756    0.786743
     97          6           0      -17.833322    3.761849    0.461025
     98          6           0      -19.151535    3.221710   -0.028429
     99          6           0      -15.638157    2.524237    1.201803
    100          6           0      -17.476403    5.237293    0.511537
    101          8           0      -18.185004    6.114601    0.104188
    102          6           0      -16.176102    5.546814    1.204619
    103          7           0      -22.052932    2.424793   -0.791873
    104          6           0      -21.599904    3.696984   -0.659968
    105          6           0      -22.702105    4.721569   -1.040084
    106          6           0      -23.860796    3.794507   -1.547554
    107          6           0      -23.317910    2.396639   -1.321216
    108          6           0      -23.181613    5.733036    0.056093
    109          6           0      -24.290015    3.980826   -3.045646
    110          6           0      -25.173576    5.226287   -3.278779
    111          7           0      -22.499570   -0.374993   -0.720763
    112          6           0      -23.755258   -0.059046   -1.185985
    113          6           0      -24.522099   -1.237782   -1.271530
    114          6           0      -23.788946   -2.261381   -0.800070
    115          6           0      -22.523081   -1.712189   -0.432955
    116          6           0      -25.914829   -1.230150   -1.888117
    117          6           0      -23.706555   -3.679780   -0.437258
    118          8           0      -24.529133   -4.555866   -0.511096
    119          6           0      -22.231208   -3.984093    0.110152
    120          6           0      -22.353528   -4.282163    1.570479
    121          8           0      -22.363423   -3.561521    2.542905
    122          8           0      -22.414951   -5.659783    1.641320
    123          6           0      -22.520744   -6.260568    2.992286
    124          1           0      -16.698474   -0.040920    1.174942
    125          1           0      -20.159700    5.086870   -0.052210
    126          1           0      -25.116289    1.586313   -1.921124
    127          1           0      -19.597183   -3.680048    1.992489
    128          1           0      -17.152675   -2.864205    0.536122
    129          1           0      -16.349316   -2.441923    2.634524
    130          1           0      -17.829793   -3.080916    3.367483
    131          1           0      -17.609974   -1.385029    3.043950
    132          1           0      -19.038026   -4.321396   -0.871522
    133          1           0      -19.838130   -5.480382    0.059179
    134          1           0      -17.190914   -4.994390    1.204029
    135          1           0      -17.260009   -5.806902   -0.439526
    136          1           0      -15.168291    2.940447    0.310710
    137          1           0      -15.350745    1.499648    1.438337
    138          1           0      -15.323943    3.132910    2.049433
    139          1           0      -15.378561    5.605162    0.464048
    140          1           0      -16.059560    5.039965    2.162984
    141          1           0      -16.390038    6.489367    1.707744
    142          1           0      -22.359703    5.167364   -1.974439
    143          1           0      -24.695078    3.856860   -0.848498
    144          1           0      -24.242007    5.705397    0.308566
    145          1           0      -23.075823    6.716925   -0.400388
    146          1           0      -22.653481    5.676079    1.007892
    147          1           0      -24.872603    3.116597   -3.362733
    148          1           0      -23.353027    3.998505   -3.604017
    149          1           0      -25.650527    5.534159   -2.348075
    150          1           0      -25.883425    4.944484   -4.056380
    151          1           0      -24.622426    6.112141   -3.595781
    152          1           0      -26.166950   -2.205441   -2.304608
    153          1           0      -25.959620   -0.443934   -2.641816
    154          1           0      -26.652799   -0.906542   -1.153767
    155          1           0      -21.756487   -4.797139   -0.439630
    156          1           0      -23.222848   -7.087666    2.887868
    157          1           0      -22.873249   -5.574736    3.762517
    158          1           0      -21.487179   -6.583765    3.120149
 ---------------------------------------------------------------------

 SCF Done:  E(RPBE1PBE) =  -4067.34644582     A.U. after   16 cycles

 Excitation energies and oscillator strengths:

 Excited State   1:      Singlet-A      1.8532 eV  669.04 nm  f=0.3718  <S**2>=0.000
     309 -> 315        0.19347
     311 -> 313        0.68533
 This state for optimization and/or second-order correction.
 Total Energy, E(TD-HF/TD-DFT) =  -4067.27834281
 Copying the excited state density for this state as the 1-particle RhoCI density.

 Excited State   2:      Singlet-A      1.8602 eV  666.52 nm  f=0.3596  <S**2>=0.000
     310 -> 316        0.16791
     312 -> 314        0.69145
     312 <- 314       -0.10801

 Excited State   3:      Singlet-A      1.8968 eV  653.64 nm  f=0.0000  <S**2>=0.000
     312 -> 313        0.70710

 Excited State   4:      Singlet-A      2.1074 eV  588.34 nm  f=0.0000  <S**2>=0.000
     311 -> 314        0.70711

 Excited State   5:      Singlet-A      2.2158 eV  559.54 nm  f=0.0718  <S**2>=0.000
     309 -> 313        0.63256
     311 -> 315       -0.30036

 The electronic state is 1-A.
 Alpha  occ. eigenvalues --  -46.93615 -46.91978 -19.25742 -19.24480 -19.20067
 Alpha  occ. eigenvalues --  -19.19278 -19.19166 -19.19161 -19.19113 -19.18286
 Alpha  occ. eigenvalues --  -14.41959 -14.41691 -14.41492 -14.40859 -14.39876
 Alpha  occ. eigenvalues --  -14.39263 -14.39226 -14.38505 -10.35922 -10.35771
 Alpha  occ. eigenvalues --  -10.32397 -10.32220 -10.31884 -10.31438 -10.29804
 Alpha  occ. eigenvalues --  -10.29709 -10.29174 -10.28830 -10.28662 -10.28594
 Alpha  occ. eigenvalues --  -10.28583 -10.28537 -10.28397 -10.28386 -10.28102
 Alpha  occ. eigenvalues --  -10.27948 -10.27847 -10.27810 -10.27743 -10.27504
 Alpha  occ. eigenvalues --  -10.26857 -10.26782 -10.26746 -10.26726 -10.26674
 Alpha  occ. eigenvalues --  -10.26605 -10.26572 -10.26431 -10.26181 -10.26069
 Alpha  occ. eigenvalues --  -10.26047 -10.25922 -10.25790 -10.25714 -10.25692
 Alpha  occ. eigenvalues --  -10.25585 -10.25496 -10.25331 -10.25119 -10.24756
 Alpha  occ. eigenvalues --  -10.24747 -10.24697 -10.24685 -10.24594 -10.24577
 Alpha  occ. eigenvalues --  -10.24472 -10.24423 -10.24418 -10.24415 -10.24382
 Alpha  occ. eigenvalues --  -10.24368 -10.24343 -10.24202 -10.24122 -10.23687
 Alpha  occ. eigenvalues --  -10.23643 -10.23591 -10.23376 -10.23250 -10.23010
 Alpha  occ. eigenvalues --  -10.23005 -10.23000 -10.22999 -10.22952 -10.22498
 Alpha  occ. eigenvalues --  -10.22381  -3.15509  -3.14099  -1.88310  -1.87913
 Alpha  occ. eigenvalues --   -1.87708  -1.86936  -1.86454  -1.86346  -1.11864
 Alpha  occ. eigenvalues --   -1.10393  -1.06120  -1.05512  -1.04958  -1.03608
 Alpha  occ. eigenvalues --   -1.02555  -1.02238  -0.99246  -0.98457  -0.98308
 Alpha  occ. eigenvalues --   -0.97980  -0.97118  -0.97117  -0.96256  -0.96190
 Alpha  occ. eigenvalues --   -0.87336  -0.86339  -0.83283  -0.83212  -0.83085
 Alpha  occ. eigenvalues --   -0.82592  -0.82525  -0.82293  -0.81473  -0.81436
 Alpha  occ. eigenvalues --   -0.81179  -0.80513  -0.80363  -0.79643  -0.78944
 Alpha  occ. eigenvalues --   -0.78366  -0.78181  -0.77452  -0.77115  -0.76867
 Alpha  occ. eigenvalues --   -0.76432  -0.76215  -0.75465  -0.75032  -0.74636
 Alpha  occ. eigenvalues --   -0.74415  -0.72419  -0.72273  -0.71672  -0.71281
 Alpha  occ. eigenvalues --   -0.70913  -0.70727  -0.70593  -0.69832  -0.69333
 Alpha  occ. eigenvalues --   -0.69190  -0.67337  -0.67195  -0.66216  -0.65723
 Alpha  occ. eigenvalues --   -0.63949  -0.63262  -0.63113  -0.62961  -0.62570
 Alpha  occ. eigenvalues --   -0.62180  -0.61427  -0.61170  -0.60042  -0.59654
 Alpha  occ. eigenvalues --   -0.59515  -0.59371  -0.59127  -0.58802  -0.58603
 Alpha  occ. eigenvalues --   -0.58447  -0.57044  -0.56002  -0.54881  -0.54621
 Alpha  occ. eigenvalues --   -0.54059  -0.53886  -0.53627  -0.53344  -0.53116
 Alpha  occ. eigenvalues --   -0.52655  -0.52482  -0.52433  -0.51869  -0.51516
 Alpha  occ. eigenvalues --   -0.50782  -0.50691  -0.50394  -0.50150  -0.49633
 Alpha  occ. eigenvalues --   -0.49581  -0.49517  -0.49144  -0.49004  -0.48809
 Alpha  occ. eigenvalues --   -0.48511  -0.48492  -0.48254  -0.48115  -0.47724
 Alpha  occ. eigenvalues --   -0.47291  -0.47240  -0.46958  -0.46940  -0.46697
 Alpha  occ. eigenvalues --   -0.46514  -0.46447  -0.46231  -0.46115  -0.45910
 Alpha  occ. eigenvalues --   -0.45460  -0.45250  -0.45117  -0.44839  -0.44817
 Alpha  occ. eigenvalues --   -0.44414  -0.44396  -0.44316  -0.44228  -0.44071
 Alpha  occ. eigenvalues --   -0.44047  -0.43843  -0.43748  -0.43555  -0.43394
 Alpha  occ. eigenvalues --   -0.43155  -0.43066  -0.42954  -0.42642  -0.42481
 Alpha  occ. eigenvalues --   -0.42471  -0.42402  -0.41992  -0.41755  -0.41670
 Alpha  occ. eigenvalues --   -0.41642  -0.41414  -0.41363  -0.41068  -0.41006
 Alpha  occ. eigenvalues --   -0.40574  -0.40566  -0.40395  -0.40322  -0.40214
 Alpha  occ. eigenvalues --   -0.40121  -0.39981  -0.39959  -0.39909  -0.39849
 Alpha  occ. eigenvalues --   -0.39762  -0.39619  -0.39600  -0.39478  -0.39172
 Alpha  occ. eigenvalues --   -0.38795  -0.38721  -0.38634  -0.38607  -0.38382
 Alpha  occ. eigenvalues --   -0.38270  -0.38020  -0.37999  -0.37783  -0.37620
 Alpha  occ. eigenvalues --   -0.37416  -0.37290  -0.36914  -0.36913  -0.36716
 Alpha  occ. eigenvalues --   -0.36432  -0.36373  -0.36250  -0.36154  -0.35926
 Alpha  occ. eigenvalues --   -0.35774  -0.35752  -0.35608  -0.35355  -0.35041
 Alpha  occ. eigenvalues --   -0.34995  -0.34764  -0.34339  -0.33776  -0.33685
 Alpha  occ. eigenvalues --   -0.33089  -0.32966  -0.32763  -0.32442  -0.32134
 Alpha  occ. eigenvalues --   -0.32067  -0.31810  -0.31484  -0.31450  -0.31416
 Alpha  occ. eigenvalues --   -0.30749  -0.30647  -0.29391  -0.29312  -0.29165
 Alpha  occ. eigenvalues --   -0.29114  -0.28870  -0.28246  -0.27052  -0.26856
 Alpha  occ. eigenvalues --   -0.26055  -0.25764  -0.25743  -0.25568  -0.25471
 Alpha  occ. eigenvalues --   -0.25401  -0.25342  -0.24520  -0.21261  -0.20557
 Alpha  occ. eigenvalues --   -0.19021  -0.18585
 Alpha virt. eigenvalues --   -0.11303  -0.10964  -0.05964  -0.04708  -0.04003
 Alpha virt. eigenvalues --   -0.03298  -0.02102  -0.01762  -0.01701  -0.00223
 Alpha virt. eigenvalues --    0.00379   0.00831   0.00924   0.01418   0.02083

 Mulliken charges:
               1
     1  Mg  12.005401
     2  C    6.011396
     3  C    5.976188
     4  C    5.987108
     5  C    6.018308
     6  N    7.006152
     7  C    5.973253
     8  C    6.001053
     9  C    5.986474
    10  C    6.040232
    11  C    5.999148
    12  C    6.002669
    13  C    6.007068
    14  H    0.987102
    15  N    6.991858
    16  C    6.040819
    17  C    6.017923
    18  C    6.010498
    19  C    6.034918
    20  C    5.996998
    21  C    6.011523
    22  O    8.017007
    23  C    5.996317
    24  N    7.003598
    25  C    6.026120
    26  C    5.987832
    27  C    6.014209
    28  C    5.963239
    29  C    5.997421
    30  C    6.000676
    31  C    6.001609
    32  N    7.003141
    33  C    5.960487
    34  C    5.973707
    35  C    5.998418
    36  C    5.970305
    37  C    5.995828
    38  C    5.983979
    39  O    7.968061
    40  C    6.000151
    41  C    5.993627
    42  O    7.997519
    43  O    7.998674
    44  C    6.001626
    45  H    1.006469
    46  H    1.009515
    47  H    0.991167
    48  H    1.005505
    49  H    1.005397
    50  H    1.004073
    51  H    1.010040
    52  H    0.996037
    53  H    1.004865
    54  H    0.992736
    55  H    1.000043
    56  H    1.003831
    57  H    1.017734
    58  H    1.017960
    59  H    1.015454
    60  H    1.010504
    61  H    1.011569
    62  H    1.006378
    63  H    1.001571
    64  H    0.995655
    65  H    0.996760
    66  H    1.011503
    67  H    1.001391
    68  H    1.003471
    69  H    0.987514
    70  H    1.002429
    71  H    0.995194
    72  H    0.995624
    73  H    0.984538
    74  H    0.986099
    75  H    0.990235
    76  H    0.990659
    77  H    0.998204
    78  H    0.994417
    79  H    0.995820
    80  Mg  11.999916
    81  C    6.001766
    82  C    5.999662
    83  C    5.998680
    84  C    6.000589
    85  N    7.000736
    86  C    5.997741
    87  C    6.001157
    88  C    5.999021
    89  C    6.001977
    90  C    5.999942
    91  C    6.000196
    92  C    5.999872
    93  H    1.000032
    94  N    6.999717
    95  C    6.002830
    96  C    6.001238
    97  C    6.001360
    98  C    6.002061
    99  C    5.999658
   100  C    6.001129
   101  O    8.002146
   102  C    5.999372
   103  N    6.999805
   104  C    6.002454
   105  C    5.999148
   106  C    6.000708
   107  C    5.997767
   108  C    5.999956
   109  C    6.000501
   110  C    5.999850
   111  N    7.000044
   112  C    5.997625
   113  C    5.997954
   114  C    6.000007
   115  C    5.997093
   116  C    6.000045
   117  C    5.998535
   118  O    7.997805
   119  C    5.999646
   120  C    5.999966
   121  O    7.999405
   122  O    7.999933
   123  C    6.000132
   124  H    1.000815
   125  H    1.000334
   126  H    0.999119
   127  H    0.999666
   128  H    1.000367
   129  H    1.000102
   130  H    1.000867
   131  H    0.999594
   132  H    0.999852
   133  H    1.000338
   134  H    0.999541
   135  H    0.999849
   136  H    1.001280
   137  H    1.001332
   138  H    1.001464
   139  H    1.000823
   140  H    1.000540
   141  H    1.001070
   142  H    0.999972
   143  H    1.000008
   144  H    1.000603
   145  H    1.000019
   146  H    0.999677
   147  H    1.000371
   148  H    0.999351
   149  H    0.999784
   150  H    0.999955
   151  H    0.999480
   152  H    0.998932
   153  H    0.998749
   154  H    0.998476
   155  H    0.999370
   156  H    0.999778
   157  H    0.999761
   158  H    0.999582
 Sum of Mulliken charges = 624.00000

 Dipole moment (field-independent basis, Debye):
    X=              7.8627    Y=              1.0407    Z=             -6.5504  Tot=             10.2865
 Quadrupole moment (field-independent basis, Debye-Ang):
   XX=            284.3467   YY=              0.2471   ZZ=             -1.5305
   XY=              2.3738   XZ=           -149.9368   YZ=              2.4166

 Normal termination of Gaussian 16 at Wed Oct 13 23:40:27 2021.
