 Gaussian 16, Revision A.03,
 Gaussian 16:  ES64L-G16RevA.03 25-Dec-2016

 --------------------------------------------------------
 #p PBE1PBE/Def2SVP td=(nstates=5) density=(transition=1)
 --------------------------------------------------------

 --------------------------------
 TDDFT excited states in gaussian
 --------------------------------
 Symbolic Z-matrix:
 Charge =  0 Multiplicity = 1

                         Standard orientation:
 ---------------------------------------------------------------------
 Center     Atomic      Atomic             Coordinates (Angstroms)
 Number     Number       Type             X           Y           Z
 ---------------------------------------------------------------------
      1         12           0       29.039434    0.419683   -0.052343
      2          6           0       26.135314   -1.477527   -0.593605
      3          6           0       27.397141    3.121004   -1.296557
      4          6           0       31.647010    2.142684    0.911090
      5          6           0       30.139109   -2.365612    1.947471
      6          7           0       27.048498    0.727477   -0.897218
      7          6           0       26.020521   -0.166063   -1.005307
      8          6           0       24.740444    0.613538   -1.341421
      9          6           0       25.299162    1.838294   -2.057311
     10          6           0       26.632294    1.947069   -1.292546
     11          6           0       25.523430    1.601884   -3.568751
     12          6           0       23.940457    0.992992   -0.040687
     13          6           0       22.502184    0.316045    0.196605
     14          1           0       22.285777   -0.562226    1.440742
     15          7           0       29.443957    2.371699   -0.121519
     16          6           0       28.649594    3.336569   -0.697130
     17          6           0       29.381764    4.564203   -0.713898
     18          6           0       30.696834    4.335483   -0.189435
     19          6           0       30.664224    2.908476    0.243771
     20          6           0       28.798114    5.906706   -1.273312
     21          6           0       31.847603    5.405385   -0.149092
     22          8           0       31.690635    6.471432   -0.659977
     23          6           0       33.177197    4.973806    0.264704
     24          7           0       30.514897    0.057907    1.508818
     25          6           0       31.631975    0.809404    1.362612
     26          6           0       32.897399    0.093980    1.805100
     27          6           0       32.367873   -1.168536    2.467877
     28          6           0       30.886875   -1.177276    1.952114
     29          6           0       33.871597   -0.224999    0.611342
     30          6           0       32.459898   -1.324130    4.058624
     31          6           0       33.427369   -2.273961    4.712376
     32          7           0       28.435856   -1.571609    0.401925
     33          6           0       28.970065   -2.578896    1.215716
     34          6           0       28.103290   -3.736135    1.271563
     35          6           0       26.999804   -3.348690    0.551853
     36          6           0       27.197172   -2.021549    0.046338
     37          6           0       28.373104   -4.971822    2.024684
     38          6           0       25.688437   -3.785498    0.097748
     39          8           0       25.139828   -4.888018    0.216976
     40          6           0       25.131366   -2.653766   -0.739908
     41          6           0       24.942662   -3.189095   -2.155132
     42          8           0       25.891649   -3.646151   -2.788144
     43          8           0       23.589428   -3.200800   -2.527380
     44          6           0       23.334930   -3.727069   -3.841757
     45          1           0       26.898559    3.924273   -1.842451
     46          1           0       32.607540    2.660154    0.920312
     47          1           0       30.530833   -3.244898    2.463489
     48          1           0       24.091020   -0.072111   -1.886272
     49          1           0       24.612938    2.667829   -1.891428
     50          1           0       25.015344    2.487945   -3.947732
     51          1           0       25.002139    0.668128   -3.781460
     52          1           0       26.556863    1.536770   -3.909368
     53          1           0       23.744162    2.064187   -0.084955
     54          1           0       24.605595    0.845990    0.809873
     55          1           0       22.367690   -0.368772   -0.641017
     56          1           0       21.661421    1.007249    0.151529
     57          1           0       28.879799    6.798208   -0.652267
     58          1           0       27.739925    5.712785   -1.451611
     59          1           0       29.231436    6.185594   -2.233977
     60          1           0       33.220241    4.546420    1.266732
     61          1           0       33.846144    5.833133    0.218904
     62          1           0       33.627083    4.352400   -0.508392
     63          1           0       33.508240    0.699095    2.475866
     64          1           0       32.832851   -2.050070    2.026491
     65          1           0       34.684297    0.494572    0.513645
     66          1           0       33.292578   -0.386241   -0.297952
     67          1           0       34.341486   -1.184374    0.832629
     68          1           0       31.529550   -1.381282    4.622652
     69          1           0       32.832588   -0.314874    4.235585
     70          1           0       34.208993   -1.773794    5.283340
     71          1           0       33.922398   -2.873471    3.948034
     72          1           0       32.802106   -2.895502    5.352929
     73          1           0       29.046571   -4.719877    2.844321
     74          1           0       28.914986   -5.619731    1.335130
     75          1           0       27.449992   -5.464125    2.327192
     76          1           0       24.160931   -2.477148   -0.278030
     77          1           0       23.570863   -3.043764   -4.657995
     78          1           0       22.289660   -4.009216   -3.964691
     79          1           0       23.872096   -4.647435   -4.069230
     80         12           0      -28.843655    0.434758    0.372963
     81          6           0      -27.259876   -2.496087   -0.777692
     82          6           0      -28.260933    1.772750   -2.759901
     83          6           0      -30.245195    3.378708    1.384610
     84          6           0      -29.037922   -0.862798    3.462927
     85          7           0      -27.889044   -0.305909   -1.583817
     86          6           0      -27.426979   -1.582705   -1.879602
     87          6           0      -27.192165   -1.728461   -3.369697
     88          6           0      -27.179255   -0.244334   -3.887721
     89          6           0      -27.820335    0.427093   -2.694013
     90          6           0      -25.768124    0.320020   -4.316053
     91          6           0      -28.299497   -2.518759   -4.082719
     92          6           0      -27.829257   -3.425314   -5.225262
     93          1           0      -27.302114   -2.762513   -6.528291
     94          7           0      -29.286588    2.275865   -0.567130
     95          6           0      -28.908828    2.578681   -1.830496
     96          6           0      -29.237735    3.942918   -2.088524
     97          6           0      -29.964925    4.463194   -0.962673
     98          6           0      -29.805321    3.397399    0.010819
     99          6           0      -28.890435    4.617994   -3.386308
    100          6           0      -30.609284    5.825467   -0.705316
    101          8           0      -31.347198    6.027586    0.284220
    102          6           0      -30.336646    7.041563   -1.583293
    103          7           0      -29.613626    1.109199    2.123759
    104          6           0      -30.087986    2.395423    2.362949
    105          6           0      -30.435353    2.524325    3.810548
    106          6           0      -30.138213    1.165634    4.541252
    107          6           0      -29.603760    0.379524    3.333121
    108          6           0      -29.863988    3.796096    4.506716
    109          6           0      -31.358188    0.477695    5.191294
    110          6           0      -31.502676    0.775793    6.696191
    111          7           0      -28.259206   -1.250431    1.227076
    112          6           0      -28.443664   -1.735321    2.521129
    113          6           0      -27.944555   -3.150464    2.688591
    114          6           0      -27.455951   -3.414889    1.398830
    115          6           0      -27.708703   -2.289396    0.550405
    116          6           0      -27.992442   -3.990288    3.951997
    117          6           0      -26.807063   -4.464053    0.627100
    118          8           0      -26.406565   -5.580711    0.958351
    119          6           0      -26.777995   -3.915352   -0.862358
    120          6           0      -25.315907   -4.074695   -1.323548
    121          8           0      -24.322552   -3.861047   -0.659635
    122          8           0      -25.311003   -4.669578   -2.583755
    123          6           0      -23.962706   -4.873023   -3.113993
    124          1           0      -28.133134    2.135516   -3.781734
    125          1           0      -30.713756    4.267490    1.811832
    126          1           0      -29.026780   -1.159705    4.513395
    127          1           0      -26.236605   -2.179029   -3.636890
    128          1           0      -27.780897   -0.068368   -4.779481
    129          1           0      -24.952443   -0.403578   -4.315806
    130          1           0      -25.359231    1.125225   -3.706152
    131          1           0      -25.791204    0.672270   -5.347322
    132          1           0      -29.062219   -1.854508   -4.488424
    133          1           0      -28.789280   -3.205005   -3.391575
    134          1           0      -28.585135   -4.161810   -5.497533
    135          1           0      -27.024514   -4.084580   -4.900565
    136          1           0      -27.837887    4.356482   -3.496208
    137          1           0      -28.938444    5.706284   -3.421140
    138          1           0      -29.426861    4.240369   -4.256495
    139          1           0      -29.265558    7.183934   -1.727775
    140          1           0      -30.797782    7.842716   -1.005888
    141          1           0      -30.777383    6.918682   -2.572604
    142          1           0      -31.489157    2.801436    3.852146
    143          1           0      -29.329578    1.199644    5.272495
    144          1           0      -29.247087    4.322809    3.778306
    145          1           0      -29.229622    3.486475    5.336836
    146          1           0      -30.752195    4.367604    4.778169
    147          1           0      -31.313224   -0.578129    4.925170
    148          1           0      -32.289090    0.890529    4.801976
    149          1           0      -31.001374    1.713688    6.936054
    150          1           0      -31.028151    0.072982    7.381267
    151          1           0      -32.563098    0.912929    6.909920
    152          1           0      -29.032520   -4.277610    4.107224
    153          1           0      -27.674645   -3.487064    4.864948
    154          1           0      -27.374446   -4.864202    3.746560
    155          1           0      -27.428523   -4.431231   -1.568352
    156          1           0      -23.569946   -4.039992   -3.697780
    157          1           0      -24.055402   -5.779347   -3.712233
    158          1           0      -23.137848   -5.037992   -2.420835
 ---------------------------------------------------------------------

 SCF Done:  E(RPBE1PBE) =  -4067.41246757     A.U. after   16 cycles

 Excitation energies and oscillator strengths:

 Excited State   1:      Singlet-A      1.8492 eV  670.48 nm  f=0.3619  <S**2>=0.000
     310 -> 316        0.18098
     311 -> 313        0.69138
     311 <- 313       -0.10447
 This state for optimization and/or second-order correction.
 Total Energy, E(TD-HF/TD-DFT) =  -4067.34451111
 Copying the excited state density for this state as the 1-particle RhoCI density.

 Excited State   2:      Singlet-A      1.8785 eV  660.00 nm  f=0.3573  <S**2>=0.000
     309 -> 315        0.18342
     312 -> 314        0.69003
     312 <- 314       -0.10095

 Excited State   3:      Singlet-A      2.0062 eV  618.00 nm  f=0.0000  <S**2>=0.000
     312 -> 313        0.70711

 Excited State   4:      Singlet-A      2.0669 eV  599.87 nm  f=0.0000  <S**2>=0.000
     311 -> 314        0.70711

 Excited State   5:      Singlet-A      2.2265 eV  556.85 nm  f=0.0981  <S**2>=0.000
     310 -> 313        0.64901
     311 -> 316       -0.27348

 The electronic state is 1-A.
 Alpha  occ. eigenvalues --  -46.92074 -46.91075 -19.26659 -19.26408 -19.20769
 Alpha  occ. eigenvalues --  -19.20617 -19.19369 -19.19336 -19.19309 -19.18917
 Alpha  occ. eigenvalues --  -14.42034 -14.41637 -14.41589 -14.40967 -14.39596
 Alpha  occ. eigenvalues --  -14.39073 -14.39069 -14.38993 -10.37256 -10.36708
 Alpha  occ. eigenvalues --  -10.32898 -10.32277 -10.32214 -10.31642 -10.29301
 Alpha  occ. eigenvalues --  -10.28874 -10.28862 -10.28709 -10.28708 -10.28527
 Alpha  occ. eigenvalues --  -10.28461 -10.28395 -10.28369 -10.28334 -10.28227
 Alpha  occ. eigenvalues --  -10.28196 -10.28163 -10.27434 -10.27284 -10.27079
 Alpha  occ. eigenvalues --  -10.27075 -10.26807 -10.26628 -10.26602 -10.26462
 Alpha  occ. eigenvalues --  -10.26399 -10.26224 -10.26180 -10.26155 -10.26136
 Alpha  occ. eigenvalues --  -10.25985 -10.25977 -10.25934 -10.25761 -10.25711
 Alpha  occ. eigenvalues --  -10.25683 -10.25593 -10.25376 -10.25281 -10.25117
 Alpha  occ. eigenvalues --  -10.25041 -10.24980 -10.24879 -10.24745 -10.24548
 Alpha  occ. eigenvalues --  -10.24516 -10.24504 -10.24503 -10.24375 -10.24316
 Alpha  occ. eigenvalues --  -10.24077 -10.24048 -10.24024 -10.23937 -10.23784
 Alpha  occ. eigenvalues --  -10.23741 -10.23735 -10.23610 -10.23607 -10.23507
 Alpha  occ. eigenvalues --  -10.23348 -10.23169 -10.23116 -10.23034 -10.23000
 Alpha  occ. eigenvalues --  -10.22770  -3.14263  -3.13431  -1.87077  -1.86652
 Alpha  occ. eigenvalues --   -1.86486  -1.86272  -1.85782  -1.85699  -1.11050
 Alpha  occ. eigenvalues --   -1.10700  -1.06701  -1.04004  -1.03777  -1.03543
 Alpha  occ. eigenvalues --   -1.02998  -1.02991  -0.99373  -0.99259  -0.98886
 Alpha  occ. eigenvalues --   -0.98243  -0.97812  -0.97486  -0.96777  -0.96099
 Alpha  occ. eigenvalues --   -0.87370  -0.86938  -0.83679  -0.83445  -0.83320
 Alpha  occ. eigenvalues --   -0.83262  -0.82857  -0.82587  -0.81914  -0.81823
 Alpha  occ. eigenvalues --   -0.81447  -0.81221  -0.80501  -0.79322  -0.78848
 Alpha  occ. eigenvalues --   -0.78644  -0.78513  -0.77895  -0.76812  -0.76755
 Alpha  occ. eigenvalues --   -0.76580  -0.75845  -0.75373  -0.75258  -0.75178
 Alpha  occ. eigenvalues --   -0.74392  -0.72701  -0.72339  -0.71794  -0.71567
 Alpha  occ. eigenvalues --   -0.71524  -0.70703  -0.70580  -0.70464  -0.69447
 Alpha  occ. eigenvalues --   -0.69411  -0.67307  -0.67161  -0.66592  -0.66077
 Alpha  occ. eigenvalues --   -0.63712  -0.63403  -0.63263  -0.63023  -0.62646
 Alpha  occ. eigenvalues --   -0.62489  -0.61675  -0.61225  -0.60256  -0.60181
 Alpha  occ. eigenvalues --   -0.60079  -0.59927  -0.59402  -0.59023  -0.59008
 Alpha  occ. eigenvalues --   -0.58775  -0.57270  -0.57151  -0.54899  -0.54751
 Alpha  occ. eigenvalues --   -0.54628  -0.54608  -0.53732  -0.53515  -0.53477
 Alpha  occ. eigenvalues --   -0.53164  -0.52954  -0.52283  -0.52281  -0.52037
 Alpha  occ. eigenvalues --   -0.50844  -0.50670  -0.50626  -0.50014  -0.49795
 Alpha  occ. eigenvalues --   -0.49731  -0.49387  -0.49060  -0.48573  -0.48383
 Alpha  occ. eigenvalues --   -0.48133  -0.48092  -0.47699  -0.47686  -0.47606
 Alpha  occ. eigenvalues --   -0.47489  -0.47436  -0.47164  -0.47155  -0.46743
 Alpha  occ. eigenvalues --   -0.46696  -0.46426  -0.46311  -0.46206  -0.45810
 Alpha  occ. eigenvalues --   -0.45605  -0.45487  -0.45132  -0.45119  -0.44743
 Alpha  occ. eigenvalues --   -0.44632  -0.44576  -0.44455  -0.44403  -0.44148
 Alpha  occ. eigenvalues --   -0.44002  -0.43895  -0.43695  -0.43666  -0.43517
 Alpha  occ. eigenvalues --   -0.43296  -0.43150  -0.43000  -0.42797  -0.42738
 Alpha  occ. eigenvalues --   -0.42714  -0.42235  -0.42196  -0.42108  -0.41837
 Alpha  occ. eigenvalues --   -0.41498  -0.41384  -0.41297  -0.41247  -0.41022
 Alpha  occ. eigenvalues --   -0.40997  -0.40988  -0.40851  -0.40706  -0.40634
 Alpha  occ. eigenvalues --   -0.40254  -0.40124  -0.40002  -0.39734  -0.39410
 Alpha  occ. eigenvalues --   -0.39298  -0.39212  -0.39192  -0.39067  -0.39029
 Alpha  occ. eigenvalues --   -0.38993  -0.38636  -0.38403  -0.38376  -0.38307
 Alpha  occ. eigenvalues --   -0.38133  -0.37963  -0.37930  -0.37894  -0.37478
 Alpha  occ. eigenvalues --   -0.37388  -0.37232  -0.37165  -0.37023  -0.36827
 Alpha  occ. eigenvalues --   -0.36763  -0.36560  -0.36549  -0.36444  -0.36411
 Alpha  occ. eigenvalues --   -0.36075  -0.36006  -0.35891  -0.35800  -0.35588
 Alpha  occ. eigenvalues --   -0.35454  -0.35275  -0.35181  -0.34930  -0.34666
 Alpha  occ. eigenvalues --   -0.33890  -0.33703  -0.33330  -0.32977  -0.32938
 Alpha  occ. eigenvalues --   -0.32465  -0.32229  -0.32060  -0.31862  -0.31710
 Alpha  occ. eigenvalues --   -0.31674  -0.31592  -0.30353  -0.29907  -0.29861
 Alpha  occ. eigenvalues --   -0.29699  -0.29006  -0.28442  -0.26953  -0.26705
 Alpha  occ. eigenvalues --   -0.26322  -0.26112  -0.26064  -0.25847  -0.25794
 Alpha  occ. eigenvalues --   -0.25575  -0.25533  -0.25260  -0.21281  -0.20860
 Alpha  occ. eigenvalues --   -0.18702  -0.18666
 Alpha virt. eigenvalues --   -0.11064  -0.10876  -0.05639  -0.05249  -0.04231
 Alpha virt. eigenvalues --   -0.03700  -0.02636  -0.01874  -0.00871  -0.00348
 Alpha virt. eigenvalues --    0.00300   0.00514   0.00759   0.01330   0.01650

 Mulliken charges:
               1
     1  Mg  11.999994
     2  C    5.999913
     3  C    6.000038
     4  C    6.000068
     5  C    5.999971
     6  N    6.999983
     7  C    6.000151
     8  C    5.999997
     9  C    6.000042
    10  C    5.999862
    11  C    6.000013
    12  C    6.000004
    13  C    5.999989
    14  H    0.999999
    15  N    7.000009
    16  C    5.999805
    17  C    5.999888
    18  C    5.999935
    19  C    5.999806
    20  C    6.000037
    21  C    5.999909
    22  O    7.999881
    23  C    6.000054
    24  N    6.999972
    25  C    5.999852
    26  C    6.000066
    27  C    5.999968
    28  C    6.000137
    29  C    6.000018
    30  C    5.999956
    31  C    6.000003
    32  N    7.000026
    33  C    6.000178
    34  C    6.000163
    35  C    5.999977
    36  C    6.000176
    37  C    5.999964
    38  C    6.000176
    39  O    8.000195
    40  C    5.999940
    41  C    6.000044
    42  O    8.000009
    43  O    8.000014
    44  C    5.999982
    45  H    0.999925
    46  H    0.999950
    47  H    1.000058
    48  H    0.999976
    49  H    0.999980
    50  H    0.999980
    51  H    0.999916
    52  H    1.000000
    53  H    1.000062
    54  H    0.999997
    55  H    0.999991
    56  H    1.000022
    57  H    0.999884
    58  H    0.999911
    59  H    0.999877
    60  H    0.999946
    61  H    0.999910
    62  H    0.999943
    63  H    0.999995
    64  H    0.999997
    65  H    1.000007
    66  H    0.999982
    67  H    0.999937
    68  H    1.000003
    69  H    1.000069
    70  H    1.000028
    71  H    1.000009
    72  H    1.000004
    73  H    1.000100
    74  H    1.000120
    75  H    1.000102
    76  H    1.000074
    77  H    1.000027
    78  H    1.000043
    79  H    1.000015
    80  Mg  12.000469
    81  C    6.017308
    82  C    5.989574
    83  C    5.982493
    84  C    6.009065
    85  N    7.006120
    86  C    5.968100
    87  C    6.009380
    88  C    5.989649
    89  C    6.032050
    90  C    5.996971
    91  C    6.003133
    92  C    6.001320
    93  H    0.990733
    94  N    6.996431
    95  C    6.034739
    96  C    6.024454
    97  C    6.013085
    98  C    6.028776
    99  C    5.997759
   100  C    6.010968
   101  O    8.026659
   102  C    5.996716
   103  N    6.993950
   104  C    6.032412
   105  C    5.991223
   106  C    6.011185
   107  C    5.969461
   108  C    5.998088
   109  C    6.003726
   110  C    6.000024
   111  N    6.999596
   112  C    5.965999
   113  C    5.967805
   114  C    6.000897
   115  C    5.970819
   116  C    5.999424
   117  C    5.983463
   118  O    7.970898
   119  C    5.999995
   120  C    5.993802
   121  O    7.997577
   122  O    7.997871
   123  C    6.002327
   124  H    1.009574
   125  H    1.006178
   126  H    0.990674
   127  H    0.999633
   128  H    1.000815
   129  H    1.013117
   130  H    0.998992
   131  H    1.002207
   132  H    0.988516
   133  H    1.006515
   134  H    0.999540
   135  H    1.003861
   136  H    1.015425
   137  H    1.014910
   138  H    1.020647
   139  H    1.006525
   140  H    1.012603
   141  H    1.007428
   142  H    1.000905
   143  H    0.998729
   144  H    0.995085
   145  H    1.010237
   146  H    1.001356
   147  H    1.005663
   148  H    0.990113
   149  H    0.994079
   150  H    1.001654
   151  H    0.995864
   152  H    0.982113
   153  H    0.982259
   154  H    0.988488
   155  H    0.992134
   156  H    0.992960
   157  H    0.996437
   158  H    0.998273
 Sum of Mulliken charges = 624.00000

 Dipole moment (field-independent basis, Debye):
    X=             -2.0821    Y=              8.9613    Z=             -4.3095  Tot=             10.1593
 Quadrupole moment (field-independent basis, Debye-Ang):
   XX=            116.3929   YY=              8.8629   ZZ=             -4.3030
   XY=           -260.5817   XZ=            124.4638   YZ=             -1.0909

 Normal termination of Gaussian 16 at Fri Oct 15 16:50:29 2021.
