 Gaussian 16, Revision A.03,
 Gaussian 16:  ES64L-G16RevA.03 25-Dec-2016

 --------------------------------------------------------
 #p PBE1PBE/Def2SVP td=(nstates=5) density=(transition=1)
 --------------------------------------------------------

 --------------------------------
 TDDFT excited states in gaussian
 --------------------------------
 Symbolic Z-matrix:
 Charge =  0 Multiplicity = 1

                         Standard orientation:
 ---------------------------------------------------------------------
 Center     Atomic      Atomic             Coordinates (Angstroms)
 Number     Number       Type             X           Y           Z
 ---------------------------------------------------------------------
      1         12           0       17.865463    0.018141    0.333699
      2          6           0       15.116360   -1.094188   -1.525449
      3          6           0       18.418821    2.249419   -2.250071
      4          6           0       20.289435    1.382865    2.178663
      5          6           0       16.637379   -1.685675    3.128195
      6          7           0       16.653488    0.636269   -1.675518
      7          6           0       15.650224   -0.060596   -2.242718
      8          6           0       15.211603    0.490407   -3.578245
      9          6           0       16.504926    1.348669   -3.852533
     10          6           0       17.248593    1.494016   -2.528837
     11          6           0       17.429077    0.608083   -4.855665
     12          6           0       13.839673    1.169351   -3.479151
     13          6           0       13.494992    2.026740   -2.243611
     14          1           0       12.908217    3.403794   -2.530491
     15          7           0       19.165111    1.566033    0.017943
     16          6           0       19.296393    2.261620   -1.154679
     17          6           0       20.614805    2.908419   -1.178397
     18          6           0       21.144157    2.815805    0.170702
     19          6           0       20.188178    1.877961    0.834768
     20          6           0       21.087752    3.839913   -2.359220
     21          6           0       22.384323    3.523388    0.722411
     22          8           0       23.113257    4.135817   -0.007207
     23          6           0       22.724093    3.415692    2.180983
     24          7           0       18.231179   -0.000090    2.476471
     25          6           0       19.397205    0.567489    3.022898
     26          6           0       19.575795    0.249080    4.567570
     27          6           0       18.392952   -0.805455    4.807219
     28          6           0       17.717909   -0.878259    3.361555
     29          6           0       21.000488   -0.236209    5.139020
     30          6           0       17.355242   -0.494258    5.979950
     31          6           0       16.846075   -1.858993    6.661313
     32          7           0       16.240234   -1.219093    0.775666
     33          6           0       15.930010   -1.906300    1.931564
     34          6           0       14.778422   -2.764875    1.682631
     35          6           0       14.416667   -2.570773    0.324540
     36          6           0       15.301453   -1.546103   -0.170784
     37          6           0       14.209125   -3.797145    2.620288
     38          6           0       13.462186   -2.861789   -0.794432
     39          8           0       12.446707   -3.521180   -0.804796
     40          6           0       13.948591   -1.951537   -2.000978
     41          6           0       14.329683   -2.885762   -3.116350
     42          8           0       13.500294   -3.470078   -3.857624
     43          8           0       15.707077   -2.875138   -3.281997
     44          6           0       16.189556   -3.535491   -4.448685
     45          1           0       18.650367    2.890740   -3.103136
     46          1           0       21.151812    1.600452    2.812597
     47          1           0       16.387293   -2.361315    3.948973
     48          1           0       15.208292   -0.278372   -4.350718
     49          1           0       16.374948    2.354646   -4.249247
     50          1           0       18.448123    0.864789   -4.565255
     51          1           0       17.153537    0.850821   -5.880976
     52          1           0       17.499243   -0.479189   -4.810894
     53          1           0       13.114878    0.356979   -3.435847
     54          1           0       13.688049    1.757453   -4.384354
     55          1           0       14.408205    2.213982   -1.679276
     56          1           0       12.739224    1.496194   -1.665158
     57          1           0       20.651050    4.838970   -2.363131
     58          1           0       20.875374    3.355260   -3.312226
     59          1           0       22.163485    3.983014   -2.454609
     60          1           0       23.535732    4.087727    2.461656
     61          1           0       23.001719    2.405849    2.483702
     62          1           0       21.830872    3.832845    2.646759
     63          1           0       19.322662    1.225696    4.978465
     64          1           0       18.790947   -1.801619    4.998339
     65          1           0       21.549171    0.658842    5.429838
     66          1           0       21.556539   -0.806262    4.395257
     67          1           0       20.823242   -0.896004    5.988593
     68          1           0       16.432584   -0.070140    5.583970
     69          1           0       17.777004    0.204416    6.702917
     70          1           0       15.768432   -1.975106    6.545259
     71          1           0       17.078671   -1.840290    7.725641
     72          1           0       17.180609   -2.811598    6.251990
     73          1           0       13.902146   -3.295184    3.537215
     74          1           0       14.977293   -4.530718    2.865946
     75          1           0       13.322141   -4.282944    2.213974
     76          1           0       13.038926   -1.450455   -2.331179
     77          1           0       17.265586   -3.382336   -4.527924
     78          1           0       15.614918   -3.250704   -5.330211
     79          1           0       16.135045   -4.620223   -4.356948
     80         12           0      -17.768249    0.516414    0.358342
     81          6           0      -14.697404   -0.622699   -0.679036
     82          6           0      -18.764024   -2.873215    0.780805
     83          6           0      -20.978597    1.440525    0.877338
     84          6           0      -16.934314    3.685116   -0.358959
     85          7           0      -16.823831   -1.519014    0.073286
     86          6           0      -15.543940   -1.694730   -0.379885
     87          6           0      -15.151719   -3.173823   -0.360264
     88          6           0      -16.569451   -3.853143   -0.072304
     89          6           0      -17.448862   -2.689589    0.281165
     90          6           0      -17.096681   -4.764275   -1.240878
     91          6           0      -14.066419   -3.534704    0.754037
     92          6           0      -12.893176   -4.445490    0.483183
     93          1           0      -13.142884   -5.730037   -0.224027
     94          7           0      -19.644637   -0.548010    0.829667
     95          6           0      -19.790383   -1.858069    1.126648
     96          6           0      -21.092486   -2.135869    1.633407
     97          6           0      -21.765912   -0.875788    1.706457
     98          6           0      -20.798788    0.055590    1.052589
     99          6           0      -21.462765   -3.556036    1.916320
    100          6           0      -23.202171   -0.586527    2.108225
    101          8           0      -23.752203    0.492380    1.866347
    102          6           0      -24.026820   -1.646977    2.816483
    103          7           0      -18.877508    2.319439    0.124613
    104          6           0      -20.166388    2.463819    0.530771
    105          6           0      -20.573443    3.936322    0.522399
    106          6           0      -19.193091    4.660508    0.290105
    107          6           0      -18.267532    3.493628    0.007455
    108          6           0      -21.735102    4.448299   -0.379610
    109          6           0      -18.701176    5.642956    1.433444
    110          6           0      -17.792883    5.142349    2.536505
    111          7           0      -16.217824    1.376855   -0.453058
    112          6           0      -15.893979    2.703664   -0.581824
    113          6           0      -14.615171    2.918637   -1.154242
    114          6           0      -14.074766    1.636598   -1.168697
    115          6           0      -15.077643    0.742729   -0.712818
    116          6           0      -13.852708    4.172177   -1.563176
    117          6           0      -12.959336    0.860558   -1.493831
    118          8           0      -11.908819    1.223445   -1.990294
    119          6           0      -13.281459   -0.714024   -1.218766
    120          6           0      -13.152612   -1.423989   -2.485336
    121          8           0      -13.873527   -1.264358   -3.490216
    122          8           0      -12.102667   -2.286794   -2.517475
    123          6           0      -11.665958   -2.823596   -3.811262
    124          1           0      -18.925712   -3.938772    0.954467
    125          1           0      -21.914829    1.798670    1.310053
    126          1           0      -16.514669    4.686802   -0.251658
    127          1           0      -14.680552   -3.416469   -1.313605
    128          1           0      -16.515384   -4.544412    0.768892
    129          1           0      -17.227983   -5.769480   -0.841818
    130          1           0      -16.358403   -4.645323   -2.034097
    131          1           0      -18.102003   -4.533672   -1.594674
    132          1           0      -14.696124   -3.988679    1.519404
    133          1           0      -13.742731   -2.641414    1.287183
    134          1           0      -12.323457   -4.601166    1.399281
    135          1           0      -12.270743   -3.907973   -0.231274
    136          1           0      -21.956307   -3.525503    2.887018
    137          1           0      -20.571274   -4.170451    2.044594
    138          1           0      -22.106311   -4.042895    1.182778
    139          1           0      -23.482987   -2.188375    3.591150
    140          1           0      -24.566725   -2.243472    2.079816
    141          1           0      -24.785410   -1.076497    3.353241
    142          1           0      -20.996323    4.077353    1.517308
    143          1           0      -19.226623    5.379769   -0.527348
    144          1           0      -21.341048    5.057399   -1.193005
    145          1           0      -22.360792    5.073265    0.257377
    146          1           0      -22.249034    3.554762   -0.732259
    147          1           0      -19.599558    6.039751    1.904310
    148          1           0      -18.162327    6.481209    0.991193
    149          1           0      -18.185005    5.382175    3.525131
    150          1           0      -16.774913    5.529147    2.473310
    151          1           0      -17.759487    4.061656    2.398228
    152          1           0      -14.452320    5.049414   -1.317225
    153          1           0      -13.636943    4.126848   -2.630944
    154          1           0      -12.911781    4.197879   -1.014262
    155          1           0      -12.438338   -0.970618   -0.576700
    156          1           0      -10.627170   -3.153663   -3.827553
    157          1           0      -11.902049   -2.208871   -4.679349
    158          1           0      -12.179060   -3.781130   -3.901791
 ---------------------------------------------------------------------

 SCF Done:  E(RPBE1PBE) =  -4067.39415473     A.U. after   16 cycles

 Excitation energies and oscillator strengths:

 Excited State   1:      Singlet-A      1.8775 eV  660.36 nm  f=0.4142  <S**2>=0.000
     310 -> 316        0.17145
     311 -> 313        0.69312
     311 <- 313       -0.11022
 This state for optimization and/or second-order correction.
 Total Energy, E(TD-HF/TD-DFT) =  -4067.32515651
 Copying the excited state density for this state as the 1-particle RhoCI density.

 Excited State   2:      Singlet-A      1.8968 eV  653.64 nm  f=0.3299  <S**2>=0.000
     309 -> 315        0.18762
     312 -> 314        0.68708

 Excited State   3:      Singlet-A      1.9652 eV  630.90 nm  f=0.0000  <S**2>=0.000
     312 -> 313        0.70710

 Excited State   4:      Singlet-A      2.0423 eV  607.09 nm  f=0.0000  <S**2>=0.000
     311 -> 314        0.70710

 Excited State   5:      Singlet-A      2.2058 eV  562.09 nm  f=0.1679  <S**2>=0.000
     310 -> 313        0.67014
     311 -> 316       -0.21430

 The electronic state is 1-A.
 Alpha  occ. eigenvalues --  -46.93777 -46.92459 -19.26681 -19.25631 -19.20267
 Alpha  occ. eigenvalues --  -19.19869 -19.19100 -19.19009 -19.18869 -19.18688
 Alpha  occ. eigenvalues --  -14.41850 -14.41578 -14.41184 -14.41000 -14.40047
 Alpha  occ. eigenvalues --  -14.39212 -14.39132 -14.39108 -10.37009 -10.35858
 Alpha  occ. eigenvalues --  -10.33066 -10.32404 -10.32312 -10.31680 -10.30475
 Alpha  occ. eigenvalues --  -10.29290 -10.29172 -10.28783 -10.28776 -10.28723
 Alpha  occ. eigenvalues --  -10.28481 -10.28434 -10.28347 -10.28156 -10.28046
 Alpha  occ. eigenvalues --  -10.27744 -10.27698 -10.27646 -10.27645 -10.27636
 Alpha  occ. eigenvalues --  -10.27493 -10.27178 -10.27038 -10.26860 -10.26694
 Alpha  occ. eigenvalues --  -10.26242 -10.26223 -10.26210 -10.26130 -10.26005
 Alpha  occ. eigenvalues --  -10.25999 -10.25997 -10.25887 -10.25857 -10.25770
 Alpha  occ. eigenvalues --  -10.25746 -10.25703 -10.25686 -10.25569 -10.25495
 Alpha  occ. eigenvalues --  -10.25450 -10.25328 -10.25310 -10.25268 -10.25199
 Alpha  occ. eigenvalues --  -10.25102 -10.25097 -10.24465 -10.24429 -10.24248
 Alpha  occ. eigenvalues --  -10.24233 -10.23928 -10.23869 -10.23847 -10.23841
 Alpha  occ. eigenvalues --  -10.23803 -10.23793 -10.23592 -10.23512 -10.23502
 Alpha  occ. eigenvalues --  -10.23448 -10.23368 -10.23165 -10.22785 -10.22414
 Alpha  occ. eigenvalues --  -10.22369  -3.15724  -3.14648  -1.88524  -1.88116
 Alpha  occ. eigenvalues --   -1.87935  -1.87472  -1.86983  -1.86920  -1.11214
 Alpha  occ. eigenvalues --   -1.10552  -1.06133  -1.05513  -1.04661  -1.04093
 Alpha  occ. eigenvalues --   -1.01847  -1.00561  -1.00047  -0.99325  -0.99281
 Alpha  occ. eigenvalues --   -0.98736  -0.98425  -0.98085  -0.97673  -0.96621
 Alpha  occ. eigenvalues --   -0.86944  -0.86875  -0.83277  -0.83258  -0.82581
 Alpha  occ. eigenvalues --   -0.82494  -0.82408  -0.82126  -0.81996  -0.81688
 Alpha  occ. eigenvalues --   -0.81651  -0.80692  -0.80478  -0.79801  -0.79090
 Alpha  occ. eigenvalues --   -0.78533  -0.77995  -0.77654  -0.76889  -0.76857
 Alpha  occ. eigenvalues --   -0.76062  -0.75965  -0.75447  -0.75135  -0.74724
 Alpha  occ. eigenvalues --   -0.74563  -0.72625  -0.71831  -0.71757  -0.71590
 Alpha  occ. eigenvalues --   -0.71356  -0.70913  -0.70702  -0.70499  -0.69806
 Alpha  occ. eigenvalues --   -0.69644  -0.67969  -0.67297  -0.66458  -0.65947
 Alpha  occ. eigenvalues --   -0.64238  -0.63980  -0.63761  -0.63606  -0.62743
 Alpha  occ. eigenvalues --   -0.62513  -0.61532  -0.61492  -0.60333  -0.59989
 Alpha  occ. eigenvalues --   -0.59639  -0.59417  -0.59307  -0.59195  -0.59151
 Alpha  occ. eigenvalues --   -0.58722  -0.58287  -0.56790  -0.54683  -0.54554
 Alpha  occ. eigenvalues --   -0.54363  -0.53866  -0.53607  -0.53450  -0.52823
 Alpha  occ. eigenvalues --   -0.52809  -0.52391  -0.52289  -0.51898  -0.51845
 Alpha  occ. eigenvalues --   -0.50807  -0.50760  -0.50608  -0.50054  -0.49814
 Alpha  occ. eigenvalues --   -0.49617  -0.49546  -0.49290  -0.48824  -0.48555
 Alpha  occ. eigenvalues --   -0.48336  -0.47810  -0.47783  -0.47720  -0.47486
 Alpha  occ. eigenvalues --   -0.47303  -0.47191  -0.47084  -0.46709  -0.46578
 Alpha  occ. eigenvalues --   -0.46523  -0.46162  -0.46013  -0.45940  -0.45734
 Alpha  occ. eigenvalues --   -0.45341  -0.45327  -0.45154  -0.45023  -0.44773
 Alpha  occ. eigenvalues --   -0.44612  -0.44532  -0.44425  -0.44314  -0.44112
 Alpha  occ. eigenvalues --   -0.44108  -0.43825  -0.43628  -0.43586  -0.43376
 Alpha  occ. eigenvalues --   -0.43354  -0.43325  -0.43118  -0.43047  -0.42771
 Alpha  occ. eigenvalues --   -0.42481  -0.42207  -0.42094  -0.41952  -0.41894
 Alpha  occ. eigenvalues --   -0.41774  -0.41577  -0.41557  -0.41334  -0.41160
 Alpha  occ. eigenvalues --   -0.41066  -0.40888  -0.40773  -0.40681  -0.40568
 Alpha  occ. eigenvalues --   -0.40482  -0.40246  -0.40105  -0.40053  -0.39940
 Alpha  occ. eigenvalues --   -0.39710  -0.39604  -0.39182  -0.39017  -0.38793
 Alpha  occ. eigenvalues --   -0.38793  -0.38735  -0.38658  -0.38423  -0.38356
 Alpha  occ. eigenvalues --   -0.38161  -0.38154  -0.37979  -0.37927  -0.37785
 Alpha  occ. eigenvalues --   -0.37691  -0.37622  -0.37181  -0.37073  -0.37027
 Alpha  occ. eigenvalues --   -0.36841  -0.36734  -0.36616  -0.36535  -0.36315
 Alpha  occ. eigenvalues --   -0.36136  -0.36134  -0.35954  -0.35423  -0.35255
 Alpha  occ. eigenvalues --   -0.34922  -0.34825  -0.34709  -0.34427  -0.34180
 Alpha  occ. eigenvalues --   -0.33875  -0.33395  -0.33167  -0.33133  -0.32275
 Alpha  occ. eigenvalues --   -0.32240  -0.32191  -0.31711  -0.31624  -0.31359
 Alpha  occ. eigenvalues --   -0.31069  -0.30519  -0.29781  -0.29701  -0.29437
 Alpha  occ. eigenvalues --   -0.28688  -0.28597  -0.27945  -0.26940  -0.26911
 Alpha  occ. eigenvalues --   -0.26492  -0.26171  -0.26083  -0.26054  -0.25751
 Alpha  occ. eigenvalues --   -0.25512  -0.25434  -0.25345  -0.20968  -0.20782
 Alpha  occ. eigenvalues --   -0.19028  -0.19019
 Alpha virt. eigenvalues --   -0.11421  -0.11148  -0.05526  -0.04739  -0.04117
 Alpha virt. eigenvalues --   -0.03894  -0.02387  -0.01971  -0.01884  -0.00929
 Alpha virt. eigenvalues --   -0.00112   0.00214   0.01156   0.01861   0.01999

 Mulliken charges:
               1
     1  Mg  12.000040
     2  C    6.000402
     3  C    5.999759
     4  C    5.999414
     5  C    6.000174
     6  N    7.000264
     7  C    5.999230
     8  C    6.000226
     9  C    5.999938
    10  C    6.000589
    11  C    5.999921
    12  C    6.000109
    13  C    6.000290
    14  H    0.999523
    15  N    6.999915
    16  C    6.001008
    17  C    6.000673
    18  C    6.000336
    19  C    6.000903
    20  C    5.999921
    21  C    6.000381
    22  O    8.000546
    23  C    5.999946
    24  N    6.999707
    25  C    6.001041
    26  C    5.999731
    27  C    6.000212
    28  C    5.999325
    29  C    6.000002
    30  C    6.000047
    31  C    6.000014
    32  N    7.000195
    33  C    5.998948
    34  C    5.999104
    35  C    5.999918
    36  C    5.999110
    37  C    6.000016
    38  C    5.999399
    39  O    7.999213
    40  C    5.999953
    41  C    6.000039
    42  O    7.999759
    43  O    7.999999
    44  C    6.000101
    45  H    1.000170
    46  H    1.000281
    47  H    0.999906
    48  H    0.999954
    49  H    0.999902
    50  H    0.999824
    51  H    1.000171
    52  H    1.000361
    53  H    1.000079
    54  H    0.999715
    55  H    0.999891
    56  H    1.000088
    57  H    1.000455
    58  H    1.000385
    59  H    1.000432
    60  H    1.000394
    61  H    1.000294
    62  H    1.000152
    63  H    1.000019
    64  H    1.000086
    65  H    0.999932
    66  H    1.000024
    67  H    1.000331
    68  H    0.999930
    69  H    0.999782
    70  H    1.000039
    71  H    0.999920
    72  H    1.000116
    73  H    0.999525
    74  H    0.999622
    75  H    0.999578
    76  H    0.999670
    77  H    0.999834
    78  H    0.999804
    79  H    0.999996
    80  Mg  12.001582
    81  C    5.979628
    82  C    6.004597
    83  C    6.025544
    84  C    6.005886
    85  N    6.992462
    86  C    6.028706
    87  C    5.990292
    88  C    6.012442
    89  C    5.969313
    90  C    6.003752
    91  C    5.995605
    92  C    5.999720
    93  H    1.006422
    94  N    7.003086
    95  C    5.963952
    96  C    5.980735
    97  C    5.982117
    98  C    5.967401
    99  C    6.004097
   100  C    5.987738
   101  O    7.968702
   102  C    6.006524
   103  N    7.014716
   104  C    5.963874
   105  C    6.009136
   106  C    5.990378
   107  C    6.020961
   108  C    5.999783
   109  C    5.997369
   110  C    5.995509
   111  N    6.999923
   112  C    6.026988
   113  C    6.029634
   114  C    6.000628
   115  C    6.026530
   116  C    5.999075
   117  C    6.015455
   118  O    8.029676
   119  C    6.008014
   120  C    6.003238
   121  O    8.005570
   122  O    8.002310
   123  C    5.996922
   124  H    0.986925
   125  H    0.998428
   126  H    1.012773
   127  H    0.997737
   128  H    0.997727
   129  H    0.996621
   130  H    0.986006
   131  H    1.002275
   132  H    1.011060
   133  H    0.995465
   134  H    1.001473
   135  H    0.994477
   136  H    0.984237
   137  H    0.984918
   138  H    0.979225
   139  H    0.993189
   140  H    0.990342
   141  H    0.985926
   142  H    1.003217
   143  H    1.002810
   144  H    0.991171
   145  H    0.998353
   146  H    1.005592
   147  H    1.011137
   148  H    0.999259
   149  H    1.009310
   150  H    0.997207
   151  H    1.001073
   152  H    1.015511
   153  H    1.016900
   154  H    1.016048
   155  H    1.005763
   156  H    1.003976
   157  H    1.000929
   158  H    1.006948
 Sum of Mulliken charges = 624.00000

 Dipole moment (field-independent basis, Debye):
    X=              8.7203    Y=              5.4509    Z=             -3.2544  Tot=             10.7865
 Quadrupole moment (field-independent basis, Debye-Ang):
   XX=           -296.7487   YY=              5.1084   ZZ=             -0.6742
   XY=            -89.9463   XZ=             58.6353   YZ=              1.4428

 Normal termination of Gaussian 16 at Fri Oct 15 00:50:11 2021.
