 Gaussian 16, Revision A.03,
 Gaussian 16:  ES64L-G16RevA.03 25-Dec-2016

 --------------------------------------------------------
 #p PBE1PBE/Def2SVP td=(nstates=5) density=(transition=1)
 --------------------------------------------------------

 --------------------------------
 TDDFT excited states in gaussian
 --------------------------------
 Symbolic Z-matrix:
 Charge =  0 Multiplicity = 1

                         Standard orientation:
 ---------------------------------------------------------------------
 Center     Atomic      Atomic             Coordinates (Angstroms)
 Number     Number       Type             X           Y           Z
 ---------------------------------------------------------------------
      1         12           0       10.956030   -0.025474   -0.277732
      2          6           0        8.006316    0.664347    1.563480
      3          6           0       10.269548   -3.329913    0.092460
      4          6           0       13.269057   -0.628417   -2.695530
      5          6           0       11.185459    3.360756   -0.980265
      6          7           0        9.177677   -1.091869    0.620503
      7          6           0        8.140652   -0.662373    1.405483
      8          6           0        7.357284   -1.793076    1.961176
      9          6           0        8.323527   -3.049405    1.736030
     10          6           0        9.300162   -2.487170    0.760383
     11          6           0        8.948166   -3.524726    3.037907
     12          6           0        6.000544   -1.806580    1.239583
     13          6           0        4.691537   -1.777826    2.136013
     14          1           0        3.585858   -2.866382    1.990336
     15          7           0       11.740315   -1.705119   -1.180084
     16          6           0       11.366039   -3.002276   -0.802832
     17          6           0       12.263864   -3.916708   -1.442108
     18          6           0       13.147751   -3.179339   -2.300392
     19          6           0       12.784364   -1.764050   -2.022095
     20          6           0       12.191597   -5.410841   -1.154462
     21          6           0       14.222672   -3.697495   -3.229540
     22          8           0       14.412791   -4.944550   -3.133694
     23          6           0       15.015452   -2.929331   -4.324636
     24          7           0       12.107031    1.195480   -1.671465
     25          6           0       13.016832    0.705899   -2.542375
     26          6           0       13.677015    1.803640   -3.418068
     27          6           0       13.077529    3.102578   -2.776935
     28          6           0       11.997087    2.500535   -1.760527
     29          6           0       15.188112    1.697761   -3.316481
     30          6           0       12.431372    4.053946   -3.737221
     31          6           0       13.170906    5.354677   -3.895694
     32          7           0       10.012621    1.682352    0.274720
     33          6           0       10.207349    3.037593   -0.020523
     34          6           0        9.445546    3.854076    0.778905
     35          6           0        8.582766    2.965859    1.452924
     36          6           0        8.916533    1.674018    1.052705
     37          6           0        9.677930    5.343286    0.922438
     38          6           0        7.519797    2.898076    2.490730
     39          8           0        7.018694    3.779917    3.116616
     40          6           0        7.107372    1.377560    2.476100
     41          6           0        6.875832    0.969790    3.914764
     42          8           0        5.767985    0.812226    4.427885
     43          8           0        8.112206    0.745353    4.567648
     44          6           0        7.940305    0.227437    5.924647
     45          1           0       10.191062   -4.379529    0.384190
     46          1           0       14.086351   -0.770607   -3.406488
     47          1           0       11.055583    4.390001   -1.319328
     48          1           0        7.185972   -1.627078    3.024829
     49          1           0        7.727648   -3.866187    1.329601
     50          1           0        9.205681   -2.710361    3.713713
     51          1           0        9.902794   -3.997932    2.805578
     52          1           0        8.358760   -4.279237    3.558830
     53          1           0        5.977607   -2.704161    0.621753
     54          1           0        5.898220   -1.032608    0.478924
     55          1           0        4.273503   -0.820920    1.822403
     56          1           0        4.942230   -1.581197    3.177745
     57          1           0       11.173282   -5.783040   -1.266838
     58          1           0       12.479604   -5.530464   -0.110097
     59          1           0       12.743591   -6.078974   -1.816949
     60          1           0       15.658717   -2.267816   -3.745246
     61          1           0       14.308825   -2.360559   -4.929128
     62          1           0       15.569709   -3.595925   -4.985893
     63          1           0       13.434224    1.732772   -4.478017
     64          1           0       13.816928    3.570866   -2.127754
     65          1           0       15.460725    0.662018   -3.519714
     66          1           0       15.478670    1.965134   -2.300008
     67          1           0       15.812351    2.378293   -3.894296
     68          1           0       11.427721    4.359490   -3.441529
     69          1           0       12.264540    3.690147   -4.750893
     70          1           0       13.364708    5.501193   -4.957558
     71          1           0       14.159136    5.337660   -3.436115
     72          1           0       12.665554    6.213595   -3.452843
     73          1           0        9.168991    5.638534    1.840560
     74          1           0        9.272352    5.908282    0.083499
     75          1           0       10.761378    5.449401    0.972284
     76          1           0        6.098104    1.425301    2.065566
     77          1           0        8.807208   -0.363499    6.220546
     78          1           0        7.140335   -0.510167    5.970239
     79          1           0        7.723535    1.006836    6.655678
     80         12           0      -10.769757    0.059427   -0.521714
     81          6           0       -7.981551   -0.739837    1.405621
     82          6           0      -10.234489    3.394430    0.131046
     83          6           0      -13.648214    0.645526   -2.187042
     84          6           0      -11.446073   -3.438917   -0.793545
     85          7           0       -9.345760    1.137717    0.719666
     86          6           0       -8.277315    0.634845    1.395662
     87          6           0       -7.411556    1.754491    1.987726
     88          6           0       -8.287547    3.042479    1.655968
     89          6           0       -9.375003    2.462147    0.745729
     90          6           0       -8.881286    3.670785    2.910986
     91          6           0       -6.005156    1.960777    1.320543
     92          6           0       -4.909564    2.537222    2.179210
     93          1           0       -5.249352    3.186685    3.445493
     94          7           0      -11.724354    1.759529   -1.029368
     95          6           0      -11.336425    3.059284   -0.647103
     96          6           0      -12.197877    3.962844   -1.363708
     97          6           0      -13.166176    3.222199   -2.087673
     98          6           0      -12.877876    1.798505   -1.785564
     99          6           0      -12.190356    5.460959   -1.146941
    100          6           0      -14.237048    3.653900   -2.999457
    101          8           0      -15.114871    2.915554   -3.392697
    102          6           0      -14.388644    5.169470   -3.387500
    103          7           0      -12.299442   -1.214069   -1.553700
    104          6           0      -13.359044   -0.716229   -2.117708
    105          6           0      -14.296935   -1.837237   -2.658302
    106          6           0      -13.589219   -3.130761   -2.297878
    107          6           0      -12.375036   -2.622936   -1.439801
    108          6           0      -15.786059   -1.634968   -2.106201
    109          6           0      -13.207873   -3.977178   -3.530777
    110          6           0      -14.197775   -5.128322   -3.947739
    111          7           0       -9.837566   -1.689944   -0.106334
    112          6           0      -10.219858   -3.045026   -0.266310
    113          6           0       -9.228232   -3.919504    0.232970
    114          6           0       -8.364086   -3.011438    0.980530
    115          6           0       -8.799904   -1.689388    0.679388
    116          6           0       -9.334166   -5.430993    0.321314
    117          6           0       -7.260318   -3.044766    1.867538
    118          8           0       -6.582557   -3.966785    2.303648
    119          6           0       -6.895554   -1.438105    2.125504
    120          6           0       -6.857431   -1.280812    3.617272
    121          8           0       -7.805939   -1.523635    4.370809
    122          8           0       -5.558039   -0.946856    4.101952
    123          6           0       -5.438865   -0.784605    5.584765
    124          1           0      -10.005604    4.433138    0.381237
    125          1           0      -14.645193    0.911008   -2.543814
    126          1           0      -11.576819   -4.518403   -0.890302
    127          1           0       -7.359100    1.561619    3.059474
    128          1           0       -7.715440    3.830493    1.166419
    129          1           0       -8.394325    3.293181    3.809681
    130          1           0       -9.966512    3.576086    2.957455
    131          1           0       -8.641012    4.727302    3.030127
    132          1           0       -6.150371    2.585614    0.439988
    133          1           0       -5.723713    0.998746    0.891750
    134          1           0       -4.452289    3.343946    1.606747
    135          1           0       -4.187246    1.753280    2.406929
    136          1           0      -13.100402    5.831012   -0.674858
    137          1           0      -12.013969    5.939214   -2.111313
    138          1           0      -11.417399    5.845778   -0.481890
    139          1           0      -14.920527    5.635073   -2.557388
    140          1           0      -15.079493    5.274770   -4.224116
    141          1           0      -13.413778    5.644625   -3.489885
    142          1           0      -14.302916   -1.650445   -3.732323
    143          1           0      -14.155059   -3.713079   -1.572301
    144          1           0      -16.124322   -2.527311   -1.579692
    145          1           0      -16.532134   -1.528475   -2.893934
    146          1           0      -15.706924   -0.793532   -1.416619
    147          1           0      -12.242292   -4.427264   -3.297501
    148          1           0      -13.055772   -3.277084   -4.352395
    149          1           0      -13.941190   -6.011289   -3.361326
    150          1           0      -14.299294   -5.381159   -5.003311
    151          1           0      -15.126659   -4.749440   -3.522786
    152          1           0       -9.004930   -5.758991   -0.664301
    153          1           0      -10.363292   -5.749316    0.483400
    154          1           0       -8.883372   -5.899105    1.197333
    155          1           0       -5.945492   -1.212573    1.639549
    156          1           0       -5.652853   -1.715398    6.108823
    157          1           0       -6.037779   -0.015034    6.072486
    158          1           0       -4.368305   -0.589238    5.646656
 ---------------------------------------------------------------------

 SCF Done:  E(RPBE1PBE) =  -4067.40498828     A.U. after   16 cycles

 Excitation energies and oscillator strengths:

 Excited State   1:      Singlet-A      1.8216 eV  680.64 nm  f=0.0000  <S**2>=0.000
     312 -> 313        0.70709
 This state for optimization and/or second-order correction.
 Total Energy, E(TD-HF/TD-DFT) =  -4067.33804634
 Copying the excited state density for this state as the 1-particle RhoCI density.

 Excited State   2:      Singlet-A      1.8450 eV  672.01 nm  f=0.1272  <S**2>=0.000
     310 -> 316        0.15972
     311 -> 313       -0.27718
     312 -> 314        0.63480

 Excited State   3:      Singlet-A      1.8490 eV  670.56 nm  f=0.5677  <S**2>=0.000
     309 -> 315       -0.15261
     311 -> 313        0.63652
     312 -> 314        0.27625
     311 <- 313       -0.10332

 Excited State   4:      Singlet-A      1.9630 eV  631.61 nm  f=0.0000  <S**2>=0.000
     311 -> 314        0.70709

 Excited State   5:      Singlet-A      2.2111 eV  560.75 nm  f=0.1505  <S**2>=0.000
     310 -> 314        0.65846
     312 -> 316       -0.23816

 The electronic state is 1-A.
 Alpha  occ. eigenvalues --  -46.92404 -46.91301 -19.26276 -19.24747 -19.21252
 Alpha  occ. eigenvalues --  -19.20102 -19.19629 -19.19089 -19.18769 -19.18510
 Alpha  occ. eigenvalues --  -14.42031 -14.41913 -14.41676 -14.41109 -14.39696
 Alpha  occ. eigenvalues --  -14.39636 -14.39111 -14.38722 -10.37407 -10.36049
 Alpha  occ. eigenvalues --  -10.32824 -10.32679 -10.32207 -10.31699 -10.29669
 Alpha  occ. eigenvalues --  -10.28992 -10.28904 -10.28893 -10.28885 -10.28712
 Alpha  occ. eigenvalues --  -10.28659 -10.28530 -10.28304 -10.28291 -10.28289
 Alpha  occ. eigenvalues --  -10.28275 -10.28264 -10.28228 -10.27015 -10.26797
 Alpha  occ. eigenvalues --  -10.26783 -10.26750 -10.26644 -10.26290 -10.26187
 Alpha  occ. eigenvalues --  -10.26174 -10.26039 -10.26002 -10.25988 -10.25960
 Alpha  occ. eigenvalues --  -10.25899 -10.25821 -10.25746 -10.25726 -10.25641
 Alpha  occ. eigenvalues --  -10.25533 -10.25424 -10.25365 -10.25351 -10.25330
 Alpha  occ. eigenvalues --  -10.25289 -10.25150 -10.25045 -10.25036 -10.24797
 Alpha  occ. eigenvalues --  -10.24664 -10.24636 -10.24563 -10.24514 -10.24341
 Alpha  occ. eigenvalues --  -10.24327 -10.24031 -10.24016 -10.23961 -10.23834
 Alpha  occ. eigenvalues --  -10.23784 -10.23577 -10.23511 -10.23394 -10.23304
 Alpha  occ. eigenvalues --  -10.23245 -10.23098 -10.22897 -10.22783 -10.22669
 Alpha  occ. eigenvalues --  -10.22635  -3.14546  -3.13573  -1.87367  -1.86926
 Alpha  occ. eigenvalues --   -1.86775  -1.86428  -1.85940  -1.85817  -1.10332
 Alpha  occ. eigenvalues --   -1.08117  -1.06860  -1.05481  -1.03634  -1.02790
 Alpha  occ. eigenvalues --   -1.02302  -1.00593  -0.99875  -0.99690  -0.98942
 Alpha  occ. eigenvalues --   -0.98640  -0.98069  -0.97982  -0.97394  -0.96752
 Alpha  occ. eigenvalues --   -0.87687  -0.86506  -0.84205  -0.83629  -0.83475
 Alpha  occ. eigenvalues --   -0.83331  -0.83110  -0.82548  -0.82174  -0.81935
 Alpha  occ. eigenvalues --   -0.81651  -0.81415  -0.80650  -0.80227  -0.79093
 Alpha  occ. eigenvalues --   -0.78613  -0.78418  -0.77292  -0.76919  -0.76357
 Alpha  occ. eigenvalues --   -0.76085  -0.75628  -0.75006  -0.74824  -0.74488
 Alpha  occ. eigenvalues --   -0.74190  -0.72756  -0.72140  -0.71747  -0.71561
 Alpha  occ. eigenvalues --   -0.71154  -0.71067  -0.70791  -0.70071  -0.69859
 Alpha  occ. eigenvalues --   -0.69317  -0.67984  -0.67553  -0.66661  -0.65952
 Alpha  occ. eigenvalues --   -0.63767  -0.63741  -0.63380  -0.63285  -0.62468
 Alpha  occ. eigenvalues --   -0.62091  -0.61664  -0.61543  -0.60697  -0.60132
 Alpha  occ. eigenvalues --   -0.60050  -0.59935  -0.59646  -0.59493  -0.59377
 Alpha  occ. eigenvalues --   -0.59134  -0.57677  -0.55935  -0.55074  -0.54701
 Alpha  occ. eigenvalues --   -0.54607  -0.54204  -0.54166  -0.53837  -0.53639
 Alpha  occ. eigenvalues --   -0.53127  -0.52714  -0.52316  -0.51763  -0.51376
 Alpha  occ. eigenvalues --   -0.50827  -0.50730  -0.50335  -0.50201  -0.49435
 Alpha  occ. eigenvalues --   -0.49427  -0.49105  -0.48968  -0.48499  -0.48441
 Alpha  occ. eigenvalues --   -0.48228  -0.47805  -0.47739  -0.47619  -0.47383
 Alpha  occ. eigenvalues --   -0.47266  -0.46928  -0.46834  -0.46698  -0.46665
 Alpha  occ. eigenvalues --   -0.46573  -0.46511  -0.46189  -0.46098  -0.45723
 Alpha  occ. eigenvalues --   -0.45663  -0.45495  -0.45178  -0.45152  -0.44824
 Alpha  occ. eigenvalues --   -0.44670  -0.44582  -0.44494  -0.44362  -0.44263
 Alpha  occ. eigenvalues --   -0.44086  -0.43785  -0.43754  -0.43586  -0.43500
 Alpha  occ. eigenvalues --   -0.43294  -0.43063  -0.42988  -0.42911  -0.42761
 Alpha  occ. eigenvalues --   -0.42625  -0.42420  -0.42274  -0.42156  -0.41880
 Alpha  occ. eigenvalues --   -0.41771  -0.41681  -0.41629  -0.41558  -0.41460
 Alpha  occ. eigenvalues --   -0.41323  -0.41159  -0.40809  -0.40639  -0.40473
 Alpha  occ. eigenvalues --   -0.40409  -0.40197  -0.40069  -0.39934  -0.39866
 Alpha  occ. eigenvalues --   -0.39744  -0.39644  -0.39391  -0.39176  -0.38944
 Alpha  occ. eigenvalues --   -0.38799  -0.38728  -0.38666  -0.38631  -0.38478
 Alpha  occ. eigenvalues --   -0.38170  -0.38132  -0.37839  -0.37640  -0.37551
 Alpha  occ. eigenvalues --   -0.37474  -0.37317  -0.37257  -0.37199  -0.36942
 Alpha  occ. eigenvalues --   -0.36904  -0.36708  -0.36618  -0.36543  -0.36398
 Alpha  occ. eigenvalues --   -0.36390  -0.36198  -0.36110  -0.35977  -0.35632
 Alpha  occ. eigenvalues --   -0.35048  -0.34966  -0.34565  -0.34347  -0.34020
 Alpha  occ. eigenvalues --   -0.33741  -0.33521  -0.33190  -0.32736  -0.32708
 Alpha  occ. eigenvalues --   -0.32376  -0.32188  -0.32179  -0.31917  -0.31411
 Alpha  occ. eigenvalues --   -0.31127  -0.30633  -0.30289  -0.29849  -0.29621
 Alpha  occ. eigenvalues --   -0.29095  -0.28846  -0.28447  -0.27410  -0.26907
 Alpha  occ. eigenvalues --   -0.26163  -0.25945  -0.25663  -0.25634  -0.25482
 Alpha  occ. eigenvalues --   -0.25404  -0.25089  -0.24982  -0.21368  -0.21015
 Alpha  occ. eigenvalues --   -0.19267  -0.19049
 Alpha virt. eigenvalues --   -0.11736  -0.11447  -0.05359  -0.05145  -0.03971
 Alpha virt. eigenvalues --   -0.03887  -0.02108  -0.01949  -0.00943  -0.00458
 Alpha virt. eigenvalues --    0.00131   0.00767   0.01237   0.01415   0.01471

 Mulliken charges:
               1
     1  Mg  12.000000
     2  C    6.000000
     3  C    6.000000
     4  C    6.000000
     5  C    6.000000
     6  N    7.000000
     7  C    6.000000
     8  C    6.000000
     9  C    6.000000
    10  C    6.000000
    11  C    6.000000
    12  C    6.000000
    13  C    6.000000
    14  H    1.000000
    15  N    7.000000
    16  C    6.000000
    17  C    6.000000
    18  C    6.000000
    19  C    6.000000
    20  C    6.000000
    21  C    6.000000
    22  O    8.000000
    23  C    6.000000
    24  N    7.000000
    25  C    6.000000
    26  C    6.000000
    27  C    6.000000
    28  C    6.000000
    29  C    6.000000
    30  C    6.000000
    31  C    6.000000
    32  N    7.000000
    33  C    6.000000
    34  C    6.000000
    35  C    6.000000
    36  C    6.000000
    37  C    6.000000
    38  C    6.000000
    39  O    8.000000
    40  C    6.000000
    41  C    6.000000
    42  O    8.000000
    43  O    8.000000
    44  C    6.000000
    45  H    1.000000
    46  H    1.000000
    47  H    1.000000
    48  H    1.000000
    49  H    1.000000
    50  H    1.000000
    51  H    1.000000
    52  H    1.000000
    53  H    1.000000
    54  H    1.000000
    55  H    1.000000
    56  H    1.000000
    57  H    1.000000
    58  H    1.000000
    59  H    1.000000
    60  H    1.000000
    61  H    1.000000
    62  H    1.000000
    63  H    1.000000
    64  H    1.000000
    65  H    1.000000
    66  H    1.000000
    67  H    1.000000
    68  H    1.000000
    69  H    1.000000
    70  H    1.000000
    71  H    1.000000
    72  H    1.000000
    73  H    1.000000
    74  H    1.000000
    75  H    1.000000
    76  H    1.000000
    77  H    1.000000
    78  H    1.000000
    79  H    1.000000
    80  Mg  12.000000
    81  C    6.000000
    82  C    6.000000
    83  C    6.000000
    84  C    6.000000
    85  N    7.000000
    86  C    6.000000
    87  C    6.000000
    88  C    6.000000
    89  C    6.000000
    90  C    6.000000
    91  C    6.000000
    92  C    6.000000
    93  H    1.000000
    94  N    7.000000
    95  C    6.000000
    96  C    6.000000
    97  C    6.000000
    98  C    6.000000
    99  C    6.000000
   100  C    6.000000
   101  O    8.000000
   102  C    6.000000
   103  N    7.000000
   104  C    6.000000
   105  C    6.000000
   106  C    6.000000
   107  C    6.000000
   108  C    6.000000
   109  C    6.000000
   110  C    6.000000
   111  N    7.000000
   112  C    6.000000
   113  C    6.000000
   114  C    6.000000
   115  C    6.000000
   116  C    6.000000
   117  C    6.000000
   118  O    8.000000
   119  C    6.000000
   120  C    6.000000
   121  O    8.000000
   122  O    8.000000
   123  C    6.000000
   124  H    1.000000
   125  H    1.000000
   126  H    1.000000
   127  H    1.000000
   128  H    1.000000
   129  H    1.000000
   130  H    1.000000
   131  H    1.000000
   132  H    1.000000
   133  H    1.000000
   134  H    1.000000
   135  H    1.000000
   136  H    1.000000
   137  H    1.000000
   138  H    1.000000
   139  H    1.000000
   140  H    1.000000
   141  H    1.000000
   142  H    1.000000
   143  H    1.000000
   144  H    1.000000
   145  H    1.000000
   146  H    1.000000
   147  H    1.000000
   148  H    1.000000
   149  H    1.000000
   150  H    1.000000
   151  H    1.000000
   152  H    1.000000
   153  H    1.000000
   154  H    1.000000
   155  H    1.000000
   156  H    1.000000
   157  H    1.000000
   158  H    1.000000
 Sum of Mulliken charges = 624.00000

 Dipole moment (field-independent basis, Debye):
    X=              0.0000    Y=             -0.0000    Z=             -0.0000  Tot=              0.0000
 Quadrupole moment (field-independent basis, Debye-Ang):
   XX=             -0.0000   YY=             -0.0000   ZZ=              0.0000
   XY=             -0.0000   XZ=              0.0000   YZ=             -0.0000

 Normal termination of Gaussian 16 at Fri Oct 15 00:18:24 2021.
