 Gaussian 16, Revision A.03,
 Gaussian 16:  ES64L-G16RevA.03 25-Dec-2016

 --------------------------------------------------------
 #p PBE1PBE/Def2SVP td=(nstates=5) density=(transition=1)
 --------------------------------------------------------

 --------------------------------
 TDDFT excited states in gaussian
 --------------------------------
 Symbolic Z-matrix:
 Charge =  0 Multiplicity = 1

                         Standard orientation:
 ---------------------------------------------------------------------
 Center     Atomic      Atomic             Coordinates (Angstroms)
 Number     Number       Type             X           Y           Z
 ---------------------------------------------------------------------
      1         12           0        9.291039    0.302662   -0.381749
      2          6           0        7.267974   -2.102262    1.231765
      3          6           0       11.139983   -2.093186   -1.691621
      4          6           0       11.631162    2.685281   -1.102707
      5          6           0        7.815236    2.756011    1.958823
      6          7           0        9.206743   -1.862475   -0.168535
      7          6           0        8.191798   -2.607595    0.315167
      8          6           0        8.357421   -4.061474   -0.168960
      9          6           0        9.535610   -4.049782   -1.089328
     10          6           0       10.050406   -2.583277   -0.970987
     11          6           0       10.548859   -5.234156   -0.810289
     12          6           0        7.109583   -4.797883   -0.761380
     13          6           0        7.221975   -5.840842   -1.954532
     14          1           0        6.439660   -7.158325   -1.851377
     15          7           0       11.012060    0.303102   -1.494916
     16          6           0       11.626627   -0.834783   -1.966705
     17          6           0       12.770257   -0.426495   -2.731888
     18          6           0       12.997848    0.995090   -2.565210
     19          6           0       11.895248    1.374447   -1.654453
     20          6           0       13.577414   -1.473745   -3.385731
     21          6           0       14.050072    1.933755   -3.205656
     22          8           0       14.094085    3.079337   -2.898728
     23          6           0       14.847115    1.481502   -4.385633
     24          7           0        9.674584    2.414948    0.397893
     25          6           0       10.638604    3.139191   -0.213625
     26          6           0       10.671993    4.617056    0.291628
     27          6           0        9.436416    4.673332    1.241200
     28          6           0        8.925244    3.211311    1.239635
     29          6           0       11.941058    5.041355    0.981760
     30          6           0        8.277857    5.670988    0.889894
     31          6           0        7.311634    5.314330   -0.188664
     32          7           0        7.849811    0.443396    1.258405
     33          6           0        7.361282    1.471938    2.012010
     34          6           0        6.271249    0.991600    2.825745
     35          6           0        6.168785   -0.403545    2.583323
     36          6           0        7.187878   -0.691576    1.652889
     37          6           0        5.517361    1.735185    3.871168
     38          6           0        5.492539   -1.621047    2.929422
     39          8           0        4.549792   -1.879681    3.668750
     40          6           0        6.138226   -2.771934    2.034487
     41          6           0        6.533781   -3.998362    2.839426
     42          8           0        7.394113   -3.999810    3.681665
     43          8           0        5.786301   -5.084337    2.412343
     44          6           0        6.072162   -6.311208    3.156942
     45          1           0       11.679323   -2.801714   -2.324337
     46          1           0       12.391551    3.401287   -1.420611
     47          1           0        7.304978    3.499096    2.575043
     48          1           0        8.547291   -4.525301    0.798994
     49          1           0        9.167313   -4.263612   -2.093068
     50          1           0       10.114473   -5.916947   -0.080261
     51          1           0       11.514653   -4.790318   -0.568888
     52          1           0       10.649871   -5.881479   -1.681618
     53          1           0        6.428762   -4.020861   -1.109839
     54          1           0        6.541576   -5.318719    0.009908
     55          1           0        8.289718   -6.047722   -2.029547
     56          1           0        6.927791   -5.349736   -2.882171
     57          1           0       14.610388   -1.134951   -3.309719
     58          1           0       13.305274   -1.472766   -4.440548
     59          1           0       13.544110   -2.514586   -3.063367
     60          1           0       15.738636    1.068313   -3.915677
     61          1           0       14.972094    2.319218   -5.072398
     62          1           0       14.423379    0.640889   -4.935545
     63          1           0       10.425255    5.322943   -0.501686
     64          1           0        9.584826    4.822779    2.310199
     65          1           0       12.732368    4.301983    0.851576
     66          1           0       11.811463    5.139508    2.059893
     67          1           0       12.221953    5.986878    0.518544
     68          1           0        8.698681    6.639533    0.619624
     69          1           0        7.774700    5.930871    1.821509
     70          1           0        7.766356    4.590421   -0.865167
     71          1           0        6.949345    6.064704   -0.891717
     72          1           0        6.423430    4.963146    0.337524
     73          1           0        6.127004    2.124308    4.686146
     74          1           0        4.979423    0.971444    4.433348
     75          1           0        4.874728    2.502756    3.439052
     76          1           0        5.377832   -3.031796    1.297751
     77          1           0        6.524542   -6.749262    2.267784
     78          1           0        5.080275   -6.700601    3.385143
     79          1           0        6.729251   -6.152118    4.012214
     80         12           0       -8.658374    0.899320   -0.594477
     81          6           0      -10.874067   -1.902295   -0.896571
     82          6           0       -6.144863   -1.185932   -0.254529
     83          6           0       -6.950622    3.538136    0.456554
     84          6           0      -11.693025    2.977491   -0.623456
     85          7           0       -8.536069   -1.296197   -0.626627
     86          6           0       -9.548978   -2.270523   -0.727868
     87          6           0       -9.015257   -3.751514   -0.665086
     88          6           0       -7.407765   -3.411136   -0.517628
     89          6           0       -7.310924   -1.889378   -0.474298
     90          6           0       -6.773303   -4.051473    0.790761
     91          6           0       -9.410011   -4.672043   -1.872046
     92          6           0       -8.584237   -5.942679   -2.034017
     93          1           0       -9.363422   -7.249869   -1.800121
     94          7           0       -6.766838    1.150975   -0.076601
     95          6           0       -5.787756    0.188878    0.005149
     96          6           0       -4.499282    0.741817    0.365616
     97          6           0       -4.770039    2.154387    0.557863
     98          6           0       -6.229580    2.334158    0.231641
     99          6           0       -3.231305    0.029212    0.434941
    100          6           0       -3.830971    3.285142    0.940516
    101          8           0       -4.143826    4.442551    0.956133
    102          6           0       -2.466109    2.842518    1.396789
    103          7           0       -9.253264    2.962045   -0.083202
    104          6           0       -8.304481    3.853889    0.298278
    105          6           0       -8.910709    5.272985    0.464911
    106          6           0      -10.387531    5.065622   -0.020406
    107          6           0      -10.455765    3.579551   -0.315239
    108          6           0       -8.834010    5.949130    1.876131
    109          6           0      -10.825191    5.895557   -1.278533
    110          6           0      -11.129408    7.376066   -0.959550
    111          7           0      -10.812180    0.675216   -0.702508
    112          6           0      -11.858290    1.565488   -0.780456
    113          6           0      -13.048836    0.853095   -1.025155
    114          6           0      -12.768962   -0.461900   -1.026872
    115          6           0      -11.363389   -0.572929   -0.801403
    116          6           0      -14.359613    1.577976   -1.301465
    117          6           0      -13.251545   -1.844616   -1.100945
    118          8           0      -14.366210   -2.278536   -1.238239
    119          6           0      -11.994648   -2.832945   -0.989929
    120          6           0      -12.106283   -3.545804    0.319931
    121          8           0      -11.734919   -3.250391    1.433419
    122          8           0      -12.726833   -4.740979    0.014803
    123          6           0      -12.958117   -5.684694    1.134247
    124          1           0       -5.257361   -1.797269   -0.078956
    125          1           0       -6.372339    4.325303    0.946304
    126          1           0      -12.471683    3.737999   -0.717303
    127          1           0       -9.323462   -4.172857    0.291917
    128          1           0       -6.892529   -3.858998   -1.367685
    129          1           0       -5.813181   -4.503296    0.541998
    130          1           0       -7.358003   -4.767929    1.367135
    131          1           0       -6.483267   -3.268391    1.490632
    132          1           0       -9.323183   -3.953060   -2.687719
    133          1           0      -10.450285   -4.983641   -1.968580
    134          1           0       -7.753731   -5.918631   -1.329042
    135          1           0       -8.291146   -6.035408   -3.079404
    136          1           0       -2.707924    0.523168   -0.383674
    137          1           0       -3.375523   -1.043909    0.308651
    138          1           0       -2.623110    0.152197    1.330856
    139          1           0       -1.781419    2.855627    0.548880
    140          1           0       -2.489978    2.033374    2.127308
    141          1           0       -2.227137    3.564941    2.176728
    142          1           0       -8.494217    5.853803   -0.358602
    143          1           0      -11.058990    5.184648    0.830222
    144          1           0       -9.785197    6.225263    2.332131
    145          1           0       -8.368812    6.918912    1.700869
    146          1           0       -8.299019    5.381967    2.637839
    147          1           0      -11.737901    5.467617   -1.691660
    148          1           0      -10.015672    5.760339   -1.997164
    149          1           0      -11.355844    7.498372    0.099811
    150          1           0      -11.954807    7.656447   -1.613817
    151          1           0      -10.289515    8.050965   -1.127141
    152          1           0      -15.027220    0.967398   -1.909509
    153          1           0      -14.137761    2.533004   -1.777812
    154          1           0      -14.832571    1.876150   -0.365518
    155          1           0      -11.947547   -3.522261   -1.833310
    156          1           0      -13.945877   -6.109624    0.956171
    157          1           0      -12.928649   -5.225472    2.122238
    158          1           0      -12.144655   -6.384979    0.942042
 ---------------------------------------------------------------------

 SCF Done:  E(RPBE1PBE) =  -4067.37163037     A.U. after   17 cycles

 Excitation energies and oscillator strengths:

 Excited State   1:      Singlet-A      1.7733 eV  699.18 nm  f=0.0000  <S**2>=0.000
     312 -> 313        0.70706
 This state for optimization and/or second-order correction.
 Total Energy, E(TD-HF/TD-DFT) =  -4067.30646315
 Copying the excited state density for this state as the 1-particle RhoCI density.

 Excited State   2:      Singlet-A      1.8510 eV  669.84 nm  f=0.6502  <S**2>=0.000
     309 -> 315        0.12369
     310 -> 316       -0.11780
     311 -> 313        0.48617
     312 -> 314        0.49383

 Excited State   3:      Singlet-A      1.8695 eV  663.19 nm  f=0.1345  <S**2>=0.000
     309 -> 315        0.12971
     310 -> 316        0.12045
     311 -> 313        0.49150
     312 -> 314       -0.48673

 Excited State   4:      Singlet-A      1.9661 eV  630.62 nm  f=0.0000  <S**2>=0.000
     311 -> 314        0.70705

 Excited State   5:      Singlet-A      2.1919 eV  565.65 nm  f=0.0926  <S**2>=0.000
     309 -> 313        0.65348
     311 -> 315       -0.25386

 The electronic state is 1-A.
 Alpha  occ. eigenvalues --  -46.93531 -46.91873 -19.25636 -19.24396 -19.20431
 Alpha  occ. eigenvalues --  -19.19976 -19.19806 -19.19185 -19.19092 -19.19029
 Alpha  occ. eigenvalues --  -14.41895 -14.41587 -14.41379 -14.40758 -14.39268
 Alpha  occ. eigenvalues --  -14.39150 -14.38662 -14.38404 -10.36311 -10.35832
 Alpha  occ. eigenvalues --  -10.32886 -10.32305 -10.32157 -10.31744 -10.29430
 Alpha  occ. eigenvalues --  -10.29024 -10.28697 -10.28684 -10.28554 -10.28535
 Alpha  occ. eigenvalues --  -10.28488 -10.28323 -10.28318 -10.28004 -10.27833
 Alpha  occ. eigenvalues --  -10.27745 -10.27700 -10.27319 -10.27168 -10.26941
 Alpha  occ. eigenvalues --  -10.26783 -10.26676 -10.26617 -10.26573 -10.26497
 Alpha  occ. eigenvalues --  -10.26395 -10.26302 -10.26218 -10.26076 -10.25965
 Alpha  occ. eigenvalues --  -10.25718 -10.25673 -10.25605 -10.25443 -10.25412
 Alpha  occ. eigenvalues --  -10.25344 -10.25240 -10.25188 -10.24664 -10.24601
 Alpha  occ. eigenvalues --  -10.24595 -10.24584 -10.24519 -10.24473 -10.24449
 Alpha  occ. eigenvalues --  -10.24317 -10.24306 -10.24299 -10.24279 -10.24209
 Alpha  occ. eigenvalues --  -10.24141 -10.24110 -10.23965 -10.23889 -10.23871
 Alpha  occ. eigenvalues --  -10.23509 -10.23294 -10.23146 -10.23013 -10.22942
 Alpha  occ. eigenvalues --  -10.22923 -10.22834 -10.22821 -10.22661 -10.22473
 Alpha  occ. eigenvalues --  -10.22281  -3.15424  -3.13995  -1.88235  -1.87806
 Alpha  occ. eigenvalues --   -1.87636  -1.86832  -1.86350  -1.86242  -1.11257
 Alpha  occ. eigenvalues --   -1.10305  -1.07699  -1.05988  -1.05421  -1.04184
 Alpha  occ. eigenvalues --   -1.03574  -1.02150  -0.98971  -0.98350  -0.97921
 Alpha  occ. eigenvalues --   -0.97874  -0.97265  -0.97018  -0.96613  -0.96085
 Alpha  occ. eigenvalues --   -0.87237  -0.86141  -0.83707  -0.83263  -0.83103
 Alpha  occ. eigenvalues --   -0.82679  -0.82408  -0.82197  -0.81826  -0.81549
 Alpha  occ. eigenvalues --   -0.81358  -0.81079  -0.80600  -0.80260  -0.78386
 Alpha  occ. eigenvalues --   -0.78103  -0.78074  -0.77363  -0.76779  -0.76381
 Alpha  occ. eigenvalues --   -0.76339  -0.76062  -0.75319  -0.74932  -0.74912
 Alpha  occ. eigenvalues --   -0.74311  -0.72716  -0.72265  -0.71571  -0.71543
 Alpha  occ. eigenvalues --   -0.71194  -0.70815  -0.70355  -0.69733  -0.69155
 Alpha  occ. eigenvalues --   -0.69086  -0.67093  -0.66945  -0.66013  -0.65620
 Alpha  occ. eigenvalues --   -0.64237  -0.63851  -0.63764  -0.63032  -0.62852
 Alpha  occ. eigenvalues --   -0.62082  -0.61455  -0.61303  -0.59629  -0.59418
 Alpha  occ. eigenvalues --   -0.59032  -0.58901  -0.58783  -0.58701  -0.58662
 Alpha  occ. eigenvalues --   -0.58346  -0.56436  -0.55909  -0.54659  -0.54485
 Alpha  occ. eigenvalues --   -0.54240  -0.53954  -0.53531  -0.53238  -0.53081
 Alpha  occ. eigenvalues --   -0.52717  -0.52565  -0.52383  -0.52075  -0.51408
 Alpha  occ. eigenvalues --   -0.50763  -0.50571  -0.50557  -0.50065  -0.50054
 Alpha  occ. eigenvalues --   -0.49748  -0.49457  -0.49321  -0.48920  -0.48761
 Alpha  occ. eigenvalues --   -0.48710  -0.48350  -0.48286  -0.48165  -0.47863
 Alpha  occ. eigenvalues --   -0.47555  -0.47182  -0.47083  -0.46846  -0.46531
 Alpha  occ. eigenvalues --   -0.46382  -0.46137  -0.45872  -0.45761  -0.45639
 Alpha  occ. eigenvalues --   -0.45497  -0.45364  -0.45326  -0.45014  -0.44975
 Alpha  occ. eigenvalues --   -0.44798  -0.44728  -0.44318  -0.44292  -0.44120
 Alpha  occ. eigenvalues --   -0.43983  -0.43923  -0.43778  -0.43644  -0.43517
 Alpha  occ. eigenvalues --   -0.43388  -0.43290  -0.43060  -0.42948  -0.42515
 Alpha  occ. eigenvalues --   -0.42448  -0.42353  -0.42287  -0.42041  -0.41972
 Alpha  occ. eigenvalues --   -0.41660  -0.41619  -0.41318  -0.40924  -0.40909
 Alpha  occ. eigenvalues --   -0.40655  -0.40477  -0.40412  -0.40308  -0.40304
 Alpha  occ. eigenvalues --   -0.40111  -0.39883  -0.39813  -0.39661  -0.39522
 Alpha  occ. eigenvalues --   -0.39514  -0.39457  -0.39382  -0.39180  -0.39021
 Alpha  occ. eigenvalues --   -0.38641  -0.38627  -0.38541  -0.38513  -0.38247
 Alpha  occ. eigenvalues --   -0.38150  -0.37978  -0.37906  -0.37813  -0.37622
 Alpha  occ. eigenvalues --   -0.37523  -0.37350  -0.37314  -0.37033  -0.36878
 Alpha  occ. eigenvalues --   -0.36810  -0.36608  -0.36584  -0.36327  -0.35902
 Alpha  occ. eigenvalues --   -0.35787  -0.35672  -0.35634  -0.35495  -0.35276
 Alpha  occ. eigenvalues --   -0.35117  -0.34256  -0.34229  -0.34009  -0.33671
 Alpha  occ. eigenvalues --   -0.33201  -0.33005  -0.32988  -0.32651  -0.32522
 Alpha  occ. eigenvalues --   -0.32109  -0.31968  -0.31395  -0.31321  -0.31052
 Alpha  occ. eigenvalues --   -0.30929  -0.30562  -0.29701  -0.29299  -0.29015
 Alpha  occ. eigenvalues --   -0.28948  -0.28819  -0.28141  -0.26751  -0.26654
 Alpha  occ. eigenvalues --   -0.26587  -0.25779  -0.25633  -0.25620  -0.25530
 Alpha  occ. eigenvalues --   -0.25378  -0.25234  -0.25175  -0.20903  -0.20453
 Alpha  occ. eigenvalues --   -0.18826  -0.18479
 Alpha virt. eigenvalues --   -0.11227  -0.10854  -0.05226  -0.04603  -0.03924
 Alpha virt. eigenvalues --   -0.03187  -0.02101  -0.01801  -0.01653  -0.00140
 Alpha virt. eigenvalues --    0.00160   0.00794   0.00913   0.01506   0.01569

 Mulliken charges:
               1
     1  Mg  12.000000
     2  C    6.000000
     3  C    6.000000
     4  C    6.000000
     5  C    6.000000
     6  N    7.000000
     7  C    6.000000
     8  C    6.000000
     9  C    6.000000
    10  C    6.000000
    11  C    6.000000
    12  C    6.000000
    13  C    6.000000
    14  H    1.000000
    15  N    7.000000
    16  C    6.000000
    17  C    6.000000
    18  C    6.000000
    19  C    6.000000
    20  C    6.000000
    21  C    6.000000
    22  O    8.000000
    23  C    6.000000
    24  N    7.000000
    25  C    6.000000
    26  C    6.000000
    27  C    6.000000
    28  C    6.000000
    29  C    6.000000
    30  C    6.000000
    31  C    6.000000
    32  N    7.000000
    33  C    6.000000
    34  C    6.000000
    35  C    6.000000
    36  C    6.000000
    37  C    6.000000
    38  C    6.000000
    39  O    8.000000
    40  C    6.000000
    41  C    6.000000
    42  O    8.000000
    43  O    8.000000
    44  C    6.000000
    45  H    1.000000
    46  H    1.000000
    47  H    1.000000
    48  H    1.000000
    49  H    1.000000
    50  H    1.000000
    51  H    1.000000
    52  H    1.000000
    53  H    1.000000
    54  H    1.000000
    55  H    1.000000
    56  H    1.000000
    57  H    1.000000
    58  H    1.000000
    59  H    1.000000
    60  H    1.000000
    61  H    1.000000
    62  H    1.000000
    63  H    1.000000
    64  H    1.000000
    65  H    1.000000
    66  H    1.000000
    67  H    1.000000
    68  H    1.000000
    69  H    1.000000
    70  H    1.000000
    71  H    1.000000
    72  H    1.000000
    73  H    1.000000
    74  H    1.000000
    75  H    1.000000
    76  H    1.000000
    77  H    1.000000
    78  H    1.000000
    79  H    1.000000
    80  Mg  12.000000
    81  C    6.000000
    82  C    6.000000
    83  C    6.000000
    84  C    6.000000
    85  N    7.000000
    86  C    6.000000
    87  C    6.000000
    88  C    6.000000
    89  C    6.000000
    90  C    6.000000
    91  C    6.000000
    92  C    6.000000
    93  H    1.000000
    94  N    7.000000
    95  C    6.000000
    96  C    6.000000
    97  C    6.000000
    98  C    6.000000
    99  C    6.000000
   100  C    6.000000
   101  O    8.000000
   102  C    6.000000
   103  N    7.000000
   104  C    6.000000
   105  C    6.000000
   106  C    6.000000
   107  C    6.000000
   108  C    6.000000
   109  C    6.000000
   110  C    6.000000
   111  N    7.000000
   112  C    6.000000
   113  C    6.000000
   114  C    6.000000
   115  C    6.000000
   116  C    6.000000
   117  C    6.000000
   118  O    8.000000
   119  C    6.000000
   120  C    6.000000
   121  O    8.000000
   122  O    8.000000
   123  C    6.000000
   124  H    1.000000
   125  H    1.000000
   126  H    1.000000
   127  H    1.000000
   128  H    1.000000
   129  H    1.000000
   130  H    1.000000
   131  H    1.000000
   132  H    1.000000
   133  H    1.000000
   134  H    1.000000
   135  H    1.000000
   136  H    1.000000
   137  H    1.000000
   138  H    1.000000
   139  H    1.000000
   140  H    1.000000
   141  H    1.000000
   142  H    1.000000
   143  H    1.000000
   144  H    1.000000
   145  H    1.000000
   146  H    1.000000
   147  H    1.000000
   148  H    1.000000
   149  H    1.000000
   150  H    1.000000
   151  H    1.000000
   152  H    1.000000
   153  H    1.000000
   154  H    1.000000
   155  H    1.000000
   156  H    1.000000
   157  H    1.000000
   158  H    1.000000
 Sum of Mulliken charges = 624.00000

 Dipole moment (field-independent basis, Debye):
    X=             -0.0000    Y=              0.0000    Z=              0.0000  Tot=              0.0000
 Quadrupole moment (field-independent basis, Debye-Ang):
   XX=             -0.0000   YY=             -0.0000   ZZ=             -0.0000
   XY=             -0.0000   XZ=              0.0000   YZ=             -0.0000

 Normal termination of Gaussian 16 at Thu Oct 14 08:46:19 2021.
