 Gaussian 16, Revision A.03,
 Gaussian 16:  ES64L-G16RevA.03 25-Dec-2016

 --------------------------------------------------------
 #p PBE1PBE/Def2SVP td=(nstates=5) density=(transition=1)
 --------------------------------------------------------

 --------------------------------
 TDDFT excited states in gaussian
 --------------------------------
 Symbolic Z-matrix:
 Charge =  0 Multiplicity = 1

                         Standard orientation:
 ---------------------------------------------------------------------
 Center     Atomic      Atomic             Coordinates (Angstroms)
 Number     Number       Type             X           Y           Z
 ---------------------------------------------------------------------
      1         12           0       16.914127    0.599323   -0.240378
      2          6           0       15.746279   -2.058768    1.748001
      3          6           0       14.200867    2.457786    0.888749
      4          6           0       17.869602    2.956268   -2.375665
      5          6           0       19.096897   -1.697982   -1.928096
      6          7           0       15.184927    0.237395    1.118929
      7          6           0       15.005444   -0.904427    1.912342
      8          6           0       14.060854   -0.573836    3.053060
      9          6           0       13.362573    0.748930    2.627145
     10          6           0       14.312973    1.183550    1.470993
     11          6           0       11.844485    0.651007    2.277059
     12          6           0       14.736067   -0.520105    4.467271
     13          6           0       13.777844   -0.950162    5.663759
     14          1           0       12.327667   -1.306088    5.325656
     15          7           0       16.235120    2.434286   -0.571537
     16          6           0       15.158712    3.053723    0.039849
     17          6           0       15.062556    4.425426   -0.368700
     18          6           0       16.032012    4.571614   -1.411951
     19          6           0       16.768243    3.320700   -1.451798
     20          6           0       13.965037    5.405974    0.146256
     21          6           0       16.280911    5.746531   -2.300190
     22          8           0       17.062664    5.674830   -3.278299
     23          6           0       15.623281    7.157629   -2.270777
     24          7           0       18.081273    0.579495   -2.089538
     25          6           0       18.407737    1.722684   -2.721539
     26          6           0       19.588791    1.485383   -3.695944
     27          6           0       19.970739    0.005507   -3.578268
     28          6           0       18.991748   -0.400018   -2.389897
     29          6           0       19.303876    2.030298   -5.062272
     30          6           0       21.453526   -0.318980   -3.296511
     31          6           0       22.027322    0.285919   -1.991506
     32          7           0       17.341010   -1.495419   -0.203557
     33          6           0       18.326538   -2.193385   -0.814590
     34          6           0       18.389417   -3.495856   -0.153292
     35          6           0       17.425346   -3.531428    0.892772
     36          6           0       16.758062   -2.285998    0.797663
     37          6           0       19.417365   -4.588580   -0.434673
     38          6           0       16.862011   -4.317817    1.943336
     39          8           0       17.151589   -5.399436    2.447925
     40          6           0       15.633534   -3.365586    2.539600
     41          6           0       14.336382   -4.151950    2.513749
     42          8           0       13.658537   -4.298319    1.515596
     43          8           0       13.995429   -4.576643    3.777813
     44          6           0       13.017015   -5.649678    3.922218
     45          1           0       13.395382    2.986134    1.402682
     46          1           0       18.202661    3.799027   -2.984530
     47          1           0       19.878097   -2.297261   -2.399744
     48          1           0       13.304675   -1.354798    3.131672
     49          1           0       13.482334    1.449634    3.452943
     50          1           0       11.813186    1.056151    1.266192
     51          1           0       11.262113    1.334938    2.895632
     52          1           0       11.353343   -0.321979    2.265989
     53          1           0       15.020763    0.497200    4.734061
     54          1           0       15.645060   -1.119648    4.440215
     55          1           0       13.653230   -0.078879    6.306938
     56          1           0       14.258359   -1.782036    6.178150
     57          1           0       13.658463    6.026307   -0.696828
     58          1           0       14.334654    6.081041    0.917381
     59          1           0       13.050215    5.039452    0.611699
     60          1           0       15.743543    7.617279   -1.289370
     61          1           0       14.576394    7.136800   -2.573467
     62          1           0       16.188755    7.926961   -2.795244
     63          1           0       20.368907    2.175147   -3.376416
     64          1           0       19.516987   -0.465908   -4.450749
     65          1           0       19.801102    2.982014   -5.250562
     66          1           0       18.227157    2.109289   -5.213256
     67          1           0       19.601485    1.370140   -5.877724
     68          1           0       21.970802    0.142491   -4.137931
     69          1           0       21.612140   -1.397650   -3.313668
     70          1           0       22.351933   -0.569923   -1.400021
     71          1           0       21.212362    0.828857   -1.512721
     72          1           0       22.801948    1.037050   -2.146740
     73          1           0       19.807264   -5.041909    0.476242
     74          1           0       20.317803   -4.180764   -0.893122
     75          1           0       18.976712   -5.292533   -1.141164
     76          1           0       15.900270   -3.213312    3.585745
     77          1           0       12.243756   -5.465068    3.176039
     78          1           0       12.528146   -5.695758    4.895412
     79          1           0       13.580664   -6.574359    3.798017
     80         12           0      -16.560016    0.508752    0.508730
     81          6           0      -16.459566   -2.759970   -0.602485
     82          6           0      -13.156603    0.345506    0.999095
     83          6           0      -16.550939    3.902895    1.036857
     84          6           0      -19.943447    0.627337   -0.115386
     85          7           0      -14.975391   -0.944234    0.046759
     86          6           0      -15.211379   -2.248071   -0.342349
     87          6           0      -13.920759   -3.058408   -0.428748
     88          6           0      -12.940343   -2.155462    0.408867
     89          6           0      -13.709709   -0.843080    0.445152
     90          6           0      -12.458399   -2.713185    1.824107
     91          6           0      -13.427379   -3.428310   -1.863911
     92          6           0      -12.969719   -4.859100   -2.053520
     93          1           0      -11.467350   -4.956816   -2.268328
     94          7           0      -15.057299    1.879975    0.932516
     95          6           0      -13.757698    1.623021    1.118793
     96          6           0      -13.045706    2.825686    1.514881
     97          6           0      -13.911992    3.905490    1.554013
     98          6           0      -15.237294    3.286631    1.119358
     99          6           0      -11.461401    2.850592    1.754523
    100          6           0      -13.582352    5.365805    2.013697
    101          8           0      -12.388058    5.651633    2.311312
    102          6           0      -14.615347    6.425730    2.059534
    103          7           0      -18.038117    2.163049    0.231035
    104          6           0      -17.841531    3.385363    0.668850
    105          6           0      -19.129883    4.162479    0.841111
    106          6           0      -20.289770    3.206793    0.399633
    107          6           0      -19.423309    1.869806    0.218585
    108          6           0      -19.352931    5.032504    2.119200
    109          6           0      -21.136477    3.523178   -0.867195
    110          6           0      -22.443609    2.759067   -0.911135
    111          7           0      -17.959265   -0.816273   -0.237283
    112          6           0      -19.358994   -0.660279   -0.364104
    113          6           0      -19.909451   -1.928469   -0.757992
    114          6           0      -18.817507   -2.826521   -0.840925
    115          6           0      -17.690690   -2.061050   -0.554023
    116          6           0      -21.383906   -2.300534   -0.806782
    117          6           0      -18.514045   -4.146365   -1.095948
    118          8           0      -19.121925   -5.105862   -1.485710
    119          6           0      -16.897666   -4.156207   -1.099081
    120          6           0      -16.534267   -4.151106   -2.583152
    121          8           0      -16.523722   -3.174786   -3.307907
    122          8           0      -16.246429   -5.461979   -2.927429
    123          6           0      -15.976556   -5.705187   -4.340815
    124          1           0      -12.127773    0.301344    1.361985
    125          1           0      -16.477943    4.974885    1.230097
    126          1           0      -21.019960    0.477788   -0.221143
    127          1           0      -14.070051   -3.970109    0.148985
    128          1           0      -12.113265   -1.898947   -0.254132
    129          1           0      -12.197283   -1.791281    2.343620
    130          1           0      -11.511616   -3.253022    1.794207
    131          1           0      -13.171373   -3.318918    2.383275
    132          1           0      -12.593262   -2.744255   -2.021489
    133          1           0      -14.052886   -3.112103   -2.698435
    134          1           0      -13.510645   -5.260199   -2.910922
    135          1           0      -13.190701   -5.486287   -1.189636
    136          1           0      -10.948012    1.906560    1.567128
    137          1           0      -11.233942    3.159504    2.775333
    138          1           0      -10.932366    3.489928    1.049149
    139          1           0      -15.408688    6.130823    2.745641
    140          1           0      -14.921379    6.732227    1.059195
    141          1           0      -14.143307    7.224712    2.629943
    142          1           0      -19.315099    4.936228    0.095769
    143          1           0      -20.901182    2.876646    1.239774
    144          1           0      -18.379406    5.099999    2.606743
    145          1           0      -20.168303    4.683451    2.753831
    146          1           0      -19.634337    6.065442    1.913875
    147          1           0      -20.484192    3.331732   -1.719129
    148          1           0      -21.268671    4.604634   -0.836031
    149          1           0      -23.169445    3.382594   -1.433727
    150          1           0      -22.872522    2.511196    0.060513
    151          1           0      -22.323110    1.888046   -1.555315
    152          1           0      -21.565986   -3.367699   -0.934012
    153          1           0      -21.841820   -1.724468   -1.609829
    154          1           0      -21.897179   -2.003372    0.107808
    155          1           0      -16.503761   -4.969296   -0.488529
    156          1           0      -16.879134   -5.512652   -4.921035
    157          1           0      -15.589786   -6.709038   -4.512930
    158          1           0      -15.242950   -4.983353   -4.698704
 ---------------------------------------------------------------------

 SCF Done:  E(RPBE1PBE) =  -4067.38065777     A.U. after   18 cycles

 Excitation energies and oscillator strengths:

 Excited State   1:      Singlet-A      1.8182 eV  681.90 nm  f=0.3794  <S**2>=0.000
     309 -> 316       -0.16259
     311 -> 313        0.69661
     311 <- 313       -0.11883
 This state for optimization and/or second-order correction.
 Total Energy, E(TD-HF/TD-DFT) =  -4067.31383918
 Copying the excited state density for this state as the 1-particle RhoCI density.

 Excited State   2:      Singlet-A      1.8856 eV  657.53 nm  f=0.3643  <S**2>=0.000
     310 -> 315        0.14492
     312 -> 314        0.69232

 Excited State   3:      Singlet-A      1.8865 eV  657.23 nm  f=0.0000  <S**2>=0.000
     312 -> 313        0.70710

 Excited State   4:      Singlet-A      2.0351 eV  609.24 nm  f=0.0000  <S**2>=0.000
     311 -> 314        0.70710

 Excited State   5:      Singlet-A      2.1901 eV  566.10 nm  f=0.1408  <S**2>=0.000
     309 -> 313        0.66502
     311 -> 316        0.22002

 The electronic state is 1-A.
 Alpha  occ. eigenvalues --  -46.92802 -46.92319 -19.25321 -19.24918 -19.20275
 Alpha  occ. eigenvalues --  -19.20090 -19.19680 -19.19455 -19.18517 -19.18479
 Alpha  occ. eigenvalues --  -14.41922 -14.41729 -14.41593 -14.41074 -14.39986
 Alpha  occ. eigenvalues --  -14.39877 -14.39130 -14.38425 -10.36302 -10.36107
 Alpha  occ. eigenvalues --  -10.33845 -10.32806 -10.32544 -10.30947 -10.30231
 Alpha  occ. eigenvalues --  -10.29692 -10.29086 -10.29019 -10.28627 -10.28620
 Alpha  occ. eigenvalues --  -10.28549 -10.28532 -10.28471 -10.28382 -10.28215
 Alpha  occ. eigenvalues --  -10.28128 -10.28006 -10.27854 -10.27724 -10.26972
 Alpha  occ. eigenvalues --  -10.26921 -10.26876 -10.26848 -10.26803 -10.26375
 Alpha  occ. eigenvalues --  -10.26130 -10.26059 -10.26025 -10.25927 -10.25909
 Alpha  occ. eigenvalues --  -10.25892 -10.25874 -10.25830 -10.25557 -10.25537
 Alpha  occ. eigenvalues --  -10.25409 -10.25335 -10.25331 -10.25329 -10.25271
 Alpha  occ. eigenvalues --  -10.25141 -10.25120 -10.25097 -10.24955 -10.24685
 Alpha  occ. eigenvalues --  -10.24569 -10.24562 -10.24542 -10.24536 -10.24512
 Alpha  occ. eigenvalues --  -10.24469 -10.24406 -10.24400 -10.24297 -10.23852
 Alpha  occ. eigenvalues --  -10.23851 -10.23674 -10.23630 -10.23502 -10.23348
 Alpha  occ. eigenvalues --  -10.23150 -10.23145 -10.23124 -10.23067 -10.22377
 Alpha  occ. eigenvalues --  -10.21448  -3.14823  -3.14467  -1.87647  -1.87277
 Alpha  occ. eigenvalues --   -1.87201  -1.87050  -1.86841  -1.86704  -1.10368
 Alpha  occ. eigenvalues --   -1.10208  -1.05041  -1.04271  -1.03499  -1.03031
 Alpha  occ. eigenvalues --   -1.02891  -1.02271  -0.99172  -0.98881  -0.98386
 Alpha  occ. eigenvalues --   -0.98059  -0.97907  -0.97880  -0.97219  -0.96875
 Alpha  occ. eigenvalues --   -0.86584  -0.86240  -0.83516  -0.83482  -0.82782
 Alpha  occ. eigenvalues --   -0.82765  -0.82403  -0.82185  -0.81718  -0.81386
 Alpha  occ. eigenvalues --   -0.80993  -0.80586  -0.80369  -0.79727  -0.78658
 Alpha  occ. eigenvalues --   -0.78056  -0.77941  -0.77662  -0.77244  -0.76450
 Alpha  occ. eigenvalues --   -0.76358  -0.75334  -0.75197  -0.74969  -0.74604
 Alpha  occ. eigenvalues --   -0.74122  -0.72857  -0.71991  -0.71357  -0.71281
 Alpha  occ. eigenvalues --   -0.71055  -0.70938  -0.70147  -0.69755  -0.69491
 Alpha  occ. eigenvalues --   -0.69335  -0.67029  -0.66949  -0.66122  -0.65499
 Alpha  occ. eigenvalues --   -0.64249  -0.64095  -0.63536  -0.63490  -0.62842
 Alpha  occ. eigenvalues --   -0.62487  -0.61908  -0.61619  -0.60031  -0.59920
 Alpha  occ. eigenvalues --   -0.59757  -0.59295  -0.59226  -0.58744  -0.58716
 Alpha  occ. eigenvalues --   -0.58612  -0.56401  -0.56237  -0.55400  -0.54367
 Alpha  occ. eigenvalues --   -0.54156  -0.54060  -0.53576  -0.53374  -0.52999
 Alpha  occ. eigenvalues --   -0.52743  -0.52534  -0.52072  -0.52031  -0.51455
 Alpha  occ. eigenvalues --   -0.50844  -0.50484  -0.50286  -0.50136  -0.49700
 Alpha  occ. eigenvalues --   -0.49363  -0.49325  -0.48726  -0.48486  -0.48347
 Alpha  occ. eigenvalues --   -0.48098  -0.48041  -0.48008  -0.47770  -0.47699
 Alpha  occ. eigenvalues --   -0.47305  -0.47225  -0.47147  -0.46696  -0.46615
 Alpha  occ. eigenvalues --   -0.46501  -0.46210  -0.45907  -0.45715  -0.45648
 Alpha  occ. eigenvalues --   -0.45479  -0.45325  -0.45232  -0.44753  -0.44550
 Alpha  occ. eigenvalues --   -0.44461  -0.44279  -0.44139  -0.43986  -0.43868
 Alpha  occ. eigenvalues --   -0.43843  -0.43754  -0.43708  -0.43433  -0.43384
 Alpha  occ. eigenvalues --   -0.43262  -0.43204  -0.42878  -0.42826  -0.42470
 Alpha  occ. eigenvalues --   -0.42330  -0.42267  -0.42082  -0.42025  -0.41616
 Alpha  occ. eigenvalues --   -0.41408  -0.41268  -0.41069  -0.41045  -0.40957
 Alpha  occ. eigenvalues --   -0.40828  -0.40609  -0.40583  -0.40174  -0.40091
 Alpha  occ. eigenvalues --   -0.40032  -0.39960  -0.39935  -0.39585  -0.39447
 Alpha  occ. eigenvalues --   -0.39432  -0.39275  -0.38988  -0.38884  -0.38858
 Alpha  occ. eigenvalues --   -0.38815  -0.38800  -0.38516  -0.38258  -0.38208
 Alpha  occ. eigenvalues --   -0.37984  -0.37865  -0.37667  -0.37510  -0.37457
 Alpha  occ. eigenvalues --   -0.37392  -0.37280  -0.37191  -0.37076  -0.36870
 Alpha  occ. eigenvalues --   -0.36795  -0.36745  -0.36496  -0.36462  -0.36290
 Alpha  occ. eigenvalues --   -0.35854  -0.35569  -0.35429  -0.35372  -0.35104
 Alpha  occ. eigenvalues --   -0.35006  -0.34903  -0.34593  -0.34198  -0.34124
 Alpha  occ. eigenvalues --   -0.33956  -0.33653  -0.33041  -0.32808  -0.32630
 Alpha  occ. eigenvalues --   -0.32443  -0.31910  -0.31552  -0.31423  -0.31364
 Alpha  occ. eigenvalues --   -0.30874  -0.30485  -0.29651  -0.29262  -0.29201
 Alpha  occ. eigenvalues --   -0.28906  -0.28708  -0.28422  -0.27229  -0.27068
 Alpha  occ. eigenvalues --   -0.26783  -0.26401  -0.26287  -0.25812  -0.25313
 Alpha  occ. eigenvalues --   -0.25260  -0.24955  -0.24939  -0.21059  -0.20875
 Alpha  occ. eigenvalues --   -0.18986  -0.18953
 Alpha virt. eigenvalues --   -0.11630  -0.11102  -0.05482  -0.05021  -0.04274
 Alpha virt. eigenvalues --   -0.03922  -0.02523  -0.02315  -0.01266  -0.00939
 Alpha virt. eigenvalues --    0.00595   0.00884   0.01070   0.01259   0.01833

 Mulliken charges:
               1
     1  Mg  11.999092
     2  C    6.020104
     3  C    6.002118
     4  C    5.981620
     5  C    6.003390
     6  N    7.011972
     7  C    5.967054
     8  C    6.008642
     9  C    5.988964
    10  C    6.022732
    11  C    6.001681
    12  C    6.002650
    13  C    6.000533
    14  H    0.995144
    15  N    6.996478
    16  C    6.031796
    17  C    6.024926
    18  C    6.012044
    19  C    6.027439
    20  C    5.998064
    21  C    6.008204
    22  O    8.031971
    23  C    5.996488
    24  N    6.991519
    25  C    6.030500
    26  C    5.995946
    27  C    6.007257
    28  C    5.979523
    29  C    5.997904
    30  C    6.004120
    31  C    6.004554
    32  N    7.001541
    33  C    5.970175
    34  C    5.961282
    35  C    6.002811
    36  C    5.964826
    37  C    6.001780
    38  C    5.987164
    39  O    7.976030
    40  C    5.995017
    41  C    5.996918
    42  O    7.994480
    43  O    7.998203
    44  C    6.001560
    45  H    1.013410
    46  H    1.003808
    47  H    0.990074
    48  H    1.001244
    49  H    1.002648
    50  H    0.995551
    51  H    1.002622
    52  H    1.012312
    53  H    0.988924
    54  H    1.007292
    55  H    0.995109
    56  H    1.003084
    57  H    1.014246
    58  H    1.019109
    59  H    1.017477
    60  H    1.007776
    61  H    1.008426
    62  H    1.013098
    63  H    0.998853
    64  H    0.996139
    65  H    0.997593
    66  H    0.996198
    67  H    1.008504
    68  H    0.991219
    69  H    1.004206
    70  H    1.004805
    71  H    0.993493
    72  H    0.992467
    73  H    0.982498
    74  H    0.980945
    75  H    0.978888
    76  H    0.991803
    77  H    0.995525
    78  H    0.994509
    79  H    0.999931
    80  Mg  12.000022
    81  C    5.999979
    82  C    6.000165
    83  C    6.000015
    84  C    5.999914
    85  N    7.000003
    86  C    6.000303
    87  C    5.999889
    88  C    6.000123
    89  C    5.999557
    90  C    6.000021
    91  C    5.999943
    92  C    5.999951
    93  H    1.000166
    94  N    7.000103
    95  C    5.999592
    96  C    5.999710
    97  C    5.999860
    98  C    5.999532
    99  C    6.000013
   100  C    5.999808
   101  O    7.999554
   102  C    6.000067
   103  N    6.999953
   104  C    5.999606
   105  C    6.000203
   106  C    5.999949
   107  C    6.000398
   108  C    6.000018
   109  C    5.999925
   110  C    5.999976
   111  N    6.999974
   112  C    6.000484
   113  C    6.000361
   114  C    6.000073
   115  C    6.000237
   116  C    6.000060
   117  C    6.000276
   118  O    8.000510
   119  C    6.000033
   120  C    6.000007
   121  O    8.000071
   122  O    8.000061
   123  C    5.999967
   124  H    0.999867
   125  H    0.999850
   126  H    1.000103
   127  H    1.000056
   128  H    0.999950
   129  H    1.000026
   130  H    0.999964
   131  H    0.999936
   132  H    1.000068
   133  H    0.999947
   134  H    0.999992
   135  H    1.000070
   136  H    0.999745
   137  H    0.999746
   138  H    0.999619
   139  H    0.999945
   140  H    0.999849
   141  H    0.999745
   142  H    0.999858
   143  H    0.999999
   144  H    1.000043
   145  H    0.999920
   146  H    0.999925
   147  H    1.000011
   148  H    1.000109
   149  H    1.000071
   150  H    1.000043
   151  H    0.999934
   152  H    1.000217
   153  H    1.000234
   154  H    1.000276
   155  H    1.000226
   156  H    1.000021
   157  H    1.000155
   158  H    1.000046
 Sum of Mulliken charges = 624.00000

 Dipole moment (field-independent basis, Debye):
    X=             -3.4697    Y=              9.7991    Z=             -1.4090  Tot=             10.4903
 Quadrupole moment (field-independent basis, Debye-Ang):
   XX=           -109.9104   YY=             10.2719   ZZ=             -0.6988
   XY=            164.8698   XZ=            -19.9198   YZ=             -3.4062

 Normal termination of Gaussian 16 at Thu Oct 14 11:23:26 2021.
