 Gaussian 16, Revision A.03,
 Gaussian 16:  ES64L-G16RevA.03 25-Dec-2016

 ---------------------------------------------------------
 #p PBE1PBE/Def2SVP td=(nstates=5, root=1) density=current
 ---------------------------------------------------------

 --------------------------------
 TDDFT excited states in gaussian
 --------------------------------
 Symbolic Z-matrix:
 Charge =  0 Multiplicity = 1

                         Standard orientation:
 ---------------------------------------------------------------------
 Center     Atomic      Atomic             Coordinates (Angstroms)
 Number     Number       Type             X           Y           Z
 ---------------------------------------------------------------------
      1         12           0       -0.604360    0.118690   -0.323739
      2          6           0        2.807269   -0.186891    0.276938
      3          6           0       -0.843531   -3.332422   -0.086461
      4          6           0       -3.905098    0.292604   -0.333576
      5          6           0       -0.319550    3.556314   -0.040625
      6          7           0        0.770289   -1.544885    0.208384
      7          6           0        2.145005   -1.446914    0.275113
      8          6           0        2.821518   -2.784063    0.343428
      9          6           0        1.662870   -3.754660   -0.157342
     10          6           0        0.438566   -2.867649    0.025816
     11          6           0        1.775408   -4.577170   -1.527709
     12          6           0        3.480438   -3.147231    1.754082
     13          6           0        2.794650   -2.593216    3.038295
     14          1           0        2.730615   -3.577157    4.181694
     15          7           0       -2.179883   -1.310249   -0.106059
     16          6           0       -2.060164   -2.703740   -0.034853
     17          6           0       -3.340850   -3.335598    0.127129
     18          6           0       -4.280855   -2.278550    0.081048
     19          6           0       -3.500762   -1.017671   -0.096696
     20          6           0       -3.467672   -4.856843    0.031397
     21          6           0       -5.801988   -2.537519    0.171719
     22          8           0       -6.263802   -3.663174    0.384768
     23          6           0       -6.668432   -1.373301   -0.067039
     24          7           0       -1.874947    1.730723   -0.077996
     25          6           0       -3.207883    1.544035   -0.403435
     26          6           0       -3.987212    2.870927   -0.536524
     27          6           0       -2.803619    3.865632   -0.193226
     28          6           0       -1.612985    3.026865   -0.045340
     29          6           0       -4.670625    3.196235   -1.827091
     30          6           0       -3.049034    4.686251    1.172345
     31          6           0       -2.743052    6.149794    0.988232
     32          7           0        0.948285    1.497448   -0.148870
     33          6           0        0.906359    2.875530   -0.045753
     34          6           0        2.277130    3.410344    0.120905
     35          6           0        3.071699    2.218481    0.251000
     36          6           0        2.212119    1.126332    0.084778
     37          6           0        2.741709    4.779415    0.411871
     38          6           0        4.402122    1.642135    0.540083
     39          8           0        5.430531    2.201899    0.842448
     40          6           0        4.289610    0.083610    0.526900
     41          6           0        5.231373   -0.485597   -0.437776
     42          8           0        6.182790   -1.246914   -0.261099
     43          8           0        5.052663    0.225787   -1.653183
     44          6           0        5.879530   -0.238592   -2.787621
     45          1           0       -0.838129   -4.411280   -0.258278
     46          1           0       -4.962995    0.470100   -0.537451
     47          1           0       -0.330475    4.647710   -0.041171
     48          1           0        3.666655   -2.814619   -0.344167
     49          1           0        1.658818   -4.485229    0.651970
     50          1           0        2.730533   -4.504763   -2.047593
     51          1           0        1.069913   -4.254202   -2.293151
     52          1           0        1.747620   -5.644708   -1.307604
     53          1           0        4.540965   -2.897635    1.756811
     54          1           0        3.491362   -4.235826    1.807790
     55          1           0        1.792489   -2.227508    2.812541
     56          1           0        3.355450   -1.738609    3.415774
     57          1           0       -4.279331   -5.269597    0.631350
     58          1           0       -2.577968   -5.316651    0.460838
     59          1           0       -3.653570   -5.071397   -1.021251
     60          1           0       -6.604862   -1.105750   -1.121358
     61          1           0       -6.374521   -0.554610    0.590569
     62          1           0       -7.674699   -1.720078    0.167891
     63          1           0       -4.645578    2.948417    0.329037
     64          1           0       -2.666007    4.396220   -1.135352
     65          1           0       -4.959288    4.244800   -1.752557
     66          1           0       -5.609145    2.641987   -1.838330
     67          1           0       -4.024517    2.957494   -2.672701
     68          1           0       -2.428235    4.209973    1.931095
     69          1           0       -4.026579    4.582905    1.645026
     70          1           0       -1.843279    6.376144    1.559807
     71          1           0       -3.451690    6.791384    1.513017
     72          1           0       -2.497948    6.347295   -0.055129
     73          1           0        1.964198    5.542216    0.474525
     74          1           0        3.370844    5.064526   -0.430623
     75          1           0        3.103493    4.648150    1.431468
     76          1           0        4.535287   -0.214676    1.545832
     77          1           0        5.151857   -0.263020   -3.599600
     78          1           0        6.386222   -1.203220   -2.757017
     79          1           0        6.496792    0.623634   -3.040602
 ---------------------------------------------------------------------

 SCF Done:  E(RPBE1PBE) =  -2033.68887933     A.U. after   16 cycles

 Excitation energies and oscillator strengths:

 Excited State   1:      Singlet-A      1.8711 eV  662.63 nm  f=0.3585  <S**2>=0.000
     155 ->158         0.17704
     156 ->157         0.68994
     156 <-157        -0.10399
 This state for optimization and/or second-order correction.
 Total Energy, E(TD-HF/TD-DFT) =  -2033.62011774
 Copying the excited state density for this state as the 1-particle RhoCI density.

 Excited State   2:      Singlet-A      2.2140 eV  560.01 nm  f=0.0897  <S**2>=0.000
     155 ->157         0.64339
     156 ->158        -0.27394

 Excited State   3:      Singlet-A      3.0539 eV  405.99 nm  f=0.0017  <S**2>=0.000
     152 ->157        -0.37633
     154 ->157         0.57602

 Excited State   4:      Singlet-A      3.0764 eV  403.01 nm  f=0.0004  <S**2>=0.000
     152 ->157         0.54507
     152 ->159        -0.11445
     153 ->157        -0.20229
     154 ->157         0.36828

 Excited State   5:      Singlet-A      3.1540 eV  393.10 nm  f=0.0017  <S**2>=0.000
     151 ->157         0.52918
     151 ->158         0.10841
     151 ->159         0.12019
     152 ->157         0.10408
     153 ->157         0.36898
     154 ->157         0.10291
     156 ->158         0.13901

 The electronic state is 1-A.
 Alpha  occ. eigenvalues --  -46.92495 -19.25015 -19.20759 -19.19175 -19.19107
 Alpha  occ. eigenvalues --  -14.41751 -14.41682 -14.39244 -14.38886 -10.36738
 Alpha  occ. eigenvalues --  -10.32351 -10.32172 -10.29329 -10.28962 -10.28525
 Alpha  occ. eigenvalues --  -10.28265 -10.28251 -10.27953 -10.27901 -10.26924
 Alpha  occ. eigenvalues --  -10.26717 -10.26467 -10.26344 -10.26292 -10.26035
 Alpha  occ. eigenvalues --  -10.25983 -10.25921 -10.25876 -10.25735 -10.25569
 Alpha  occ. eigenvalues --  -10.24950 -10.24851 -10.24762 -10.24600 -10.24544
 Alpha  occ. eigenvalues --  -10.24423 -10.24361 -10.23694 -10.23622 -10.23344
 Alpha  occ. eigenvalues --  -10.23273 -10.23218 -10.23210  -3.14601  -1.87426
 Alpha  occ. eigenvalues --   -1.86991  -1.86816  -1.09540  -1.05185  -1.04027
 Alpha  occ. eigenvalues --   -1.01724  -0.99688  -0.98358  -0.97844  -0.96965
 Alpha  occ. eigenvalues --   -0.86824  -0.83956  -0.83519  -0.82281  -0.81951
 Alpha  occ. eigenvalues --   -0.81249  -0.80434  -0.79038  -0.78765  -0.76953
 Alpha  occ. eigenvalues --   -0.76578  -0.75193  -0.74499  -0.72689  -0.71781
 Alpha  occ. eigenvalues --   -0.71095  -0.70511  -0.70096  -0.67114  -0.66581
 Alpha  occ. eigenvalues --   -0.63748  -0.63665  -0.62584  -0.61247  -0.60865
 Alpha  occ. eigenvalues --   -0.59370  -0.59076  -0.58548  -0.57074  -0.54795
 Alpha  occ. eigenvalues --   -0.53981  -0.53543  -0.52894  -0.52115  -0.51774
 Alpha  occ. eigenvalues --   -0.50892  -0.50362  -0.49906  -0.49640  -0.49114
 Alpha  occ. eigenvalues --   -0.48380  -0.47608  -0.47259  -0.47027  -0.46721
 Alpha  occ. eigenvalues --   -0.46492  -0.46259  -0.45720  -0.45390  -0.45061
 Alpha  occ. eigenvalues --   -0.44786  -0.44299  -0.44209  -0.43881  -0.43488
 Alpha  occ. eigenvalues --   -0.43186  -0.42942  -0.42790  -0.42404  -0.41898
 Alpha  occ. eigenvalues --   -0.41646  -0.41245  -0.40979  -0.40926  -0.40463
 Alpha  occ. eigenvalues --   -0.40149  -0.39889  -0.39805  -0.39706  -0.39515
 Alpha  occ. eigenvalues --   -0.39410  -0.38734  -0.38276  -0.37952  -0.37835
 Alpha  occ. eigenvalues --   -0.37688  -0.37329  -0.36999  -0.36779  -0.36599
 Alpha  occ. eigenvalues --   -0.36522  -0.36095  -0.35331  -0.34868  -0.34057
 Alpha  occ. eigenvalues --   -0.33517  -0.32963  -0.32441  -0.31954  -0.31602
 Alpha  occ. eigenvalues --   -0.30564  -0.30305  -0.29710  -0.28889  -0.26915
 Alpha  occ. eigenvalues --   -0.25888  -0.25750  -0.25532  -0.25343  -0.21003
 Alpha  occ. eigenvalues --   -0.18869
 Alpha virt. eigenvalues --   -0.11163  -0.05714  -0.03533  -0.01957  -0.01110
 Alpha virt. eigenvalues --   -0.00504   0.00797   0.02017   0.02878   0.03895
 Alpha virt. eigenvalues --    0.04831   0.05426   0.06021   0.06297   0.06910

 Mulliken charges:
               1
     1  Mg   0.956122
     2  C   -0.043974
     3  C   -0.100488
     4  C   -0.101194
     5  C   -0.087145
     6  N   -0.394645
     7  C    0.047544
     8  C   -0.101918
     9  C   -0.079437
    10  C    0.049310
    11  C    0.005935
    12  C   -0.023761
    13  C   -0.154256
    14  H    0.048848
    15  N   -0.470346
    16  C    0.190124
    17  C   -0.153787
    18  C   -0.108895
    19  C    0.216095
    20  C    0.066592
    21  C    0.049884
    22  O   -0.247108
    23  C   -0.021316
    24  N   -0.413252
    25  C    0.053027
    26  C   -0.113082
    27  C   -0.152203
    28  C    0.067739
    29  C    0.042314
    30  C   -0.015600
    31  C   -0.044855
    32  N   -0.469561
    33  C    0.173846
    34  C   -0.205087
    35  C   -0.052460
    36  C    0.153133
    37  C    0.073997
    38  C    0.127085
    39  O   -0.199068
    40  C   -0.083861
    41  C    0.304856
    42  O   -0.248264
    43  O   -0.405186
    44  C    0.126157
    45  H    0.001732
    46  H   -0.008663
    47  H   -0.008945
    48  H    0.055026
    49  H    0.048397
    50  H    0.039357
    51  H    0.055358
    52  H    0.049728
    53  H    0.061369
    54  H    0.043680
    55  H    0.079460
    56  H    0.060989
    57  H    0.062550
    58  H    0.039938
    59  H    0.067247
    60  H    0.073192
    61  H    0.068435
    62  H    0.050596
    63  H    0.047381
    64  H    0.049257
    65  H    0.049879
    66  H    0.045740
    67  H    0.053958
    68  H    0.050064
    69  H    0.039978
    70  H    0.034949
    71  H    0.044260
    72  H    0.050732
    73  H    0.023992
    74  H    0.071930
    75  H    0.080037
    76  H    0.076924
    77  H    0.041192
    78  H    0.077911
    79  H    0.060513
 Sum of Mulliken charges =  -0.00000

 Dipole moment (field-independent basis, Debye):
    X=             -3.4506    Y=              2.6796    Z=             -3.6088  Tot=              5.6666
 Quadrupole moment (field-independent basis, Debye-Ang):
   XX=           -298.7732   YY=           -239.0715   ZZ=           -247.0081
   XY=            -41.6123   XZ=             -7.3547   YZ=              5.1935

 Normal termination of Gaussian 16 at Wed Oct 13 14:34:09 2021.
