 Gaussian 16, Revision A.03,
 Gaussian 16:  ES64L-G16RevA.03 25-Dec-2016

 --------------------------------------------------------
 #p PBE1PBE/Def2SVP td=(nstates=5) density=(transition=1)
 --------------------------------------------------------

 --------------------------------
 TDDFT excited states in gaussian
 --------------------------------
 Symbolic Z-matrix:
 Charge =  0 Multiplicity = 1

                         Standard orientation:
 ---------------------------------------------------------------------
 Center     Atomic      Atomic             Coordinates (Angstroms)
 Number     Number       Type             X           Y           Z
 ---------------------------------------------------------------------
      1         12           0      -11.058027   -0.507349    0.259324
      2          6           0       -9.382232    2.461835    0.045959
      3          6           0      -11.619735   -0.265466   -3.246186
      4          6           0      -12.369430   -3.615005    0.352108
      5          6           0       -9.655411   -1.038407    3.403808
      6          7           0      -10.192830    0.829403   -1.528232
      7          6           0       -9.744800    2.091960   -1.279360
      8          6           0       -9.511638    2.815059   -2.576940
      9          6           0      -10.220263    1.903137   -3.670463
     10          6           0      -10.752707    0.716798   -2.806002
     11          6           0      -10.998905    2.610790   -4.718541
     12          6           0       -8.036357    3.305084   -2.962692
     13          6           0       -6.871291    2.489252   -2.486237
     14          1           0       -5.805863    2.138021   -3.515213
     15          7           0      -12.080691   -1.640610   -1.186128
     16          6           0      -12.229358   -1.381005   -2.513253
     17          6           0      -12.949178   -2.419793   -3.188828
     18          6           0      -13.287226   -3.377842   -2.099254
     19          6           0      -12.574264   -2.893399   -0.897072
     20          6           0      -13.315397   -2.506572   -4.593225
     21          6           0      -14.169659   -4.616497   -2.157539
     22          8           0      -14.569843   -5.019757   -3.191433
     23          6           0      -14.542745   -5.503508   -1.002186
     24          7           0      -10.905673   -2.113729    1.598812
     25          6           0      -11.689914   -3.195429    1.475362
     26          6           0      -11.356370   -4.278074    2.630187
     27          6           0      -10.799278   -3.266051    3.745945
     28          6           0      -10.391621   -2.116342    2.855684
     29          6           0      -12.537051   -5.126837    3.110063
     30          6           0       -9.727038   -3.903348    4.648049
     31          6           0       -9.799778   -3.761822    6.173012
     32          7           0       -9.685248    0.446489    1.452631
     33          6           0       -9.218697    0.164517    2.730558
     34          6           0       -8.457227    1.231748    3.252829
     35          6           0       -8.512131    2.213056    2.276826
     36          6           0       -9.280143    1.695536    1.174264
     37          6           0       -7.807390    1.324624    4.598775
     38          6           0       -8.197012    3.520323    1.874790
     39          8           0       -7.545598    4.353779    2.501121
     40          6           0       -8.576219    3.695363    0.376651
     41          6           0       -9.370961    4.992926    0.371786
     42          8           0       -9.131624    5.958882   -0.383476
     43          8           0      -10.439395    4.825276    1.220861
     44          6           0      -11.560446    5.795085    1.277370
     45          1           0      -11.648283   -0.193153   -4.335354
     46          1           0      -12.611803   -4.678801    0.309609
     47          1           0       -9.278934   -1.183478    4.418182
     48          1           0      -10.003481    3.786869   -2.521119
     49          1           0       -9.414171    1.412511   -4.215228
     50          1           0      -11.994597    2.195584   -4.873986
     51          1           0      -10.435392    2.725458   -5.644515
     52          1           0      -11.207280    3.627546   -4.385409
     53          1           0       -7.781565    4.298717   -2.593897
     54          1           0       -7.907705    3.245873   -4.043905
     55          1           0       -7.135134    1.640298   -1.856430
     56          1           0       -6.271114    3.141392   -1.850872
     57          1           0      -13.459872   -1.498068   -4.979455
     58          1           0      -14.215633   -3.089699   -4.783538
     59          1           0      -12.476077   -2.978291   -5.105501
     60          1           0      -14.541499   -4.702099   -0.262989
     61          1           0      -13.780041   -6.247380   -0.774013
     62          1           0      -15.499481   -6.022696   -1.061085
     63          1           0      -10.516155   -4.861045    2.251762
     64          1           0      -11.507659   -2.806503    4.434788
     65          1           0      -12.818488   -4.748309    4.093097
     66          1           0      -12.314029   -6.187034    2.993888
     67          1           0      -13.426012   -5.013577    2.490276
     68          1           0       -8.769078   -3.494736    4.325308
     69          1           0       -9.642567   -4.954429    4.371609
     70          1           0       -9.694823   -4.657005    6.786171
     71          1           0      -10.664533   -3.186538    6.506274
     72          1           0       -9.013166   -3.032784    6.364915
     73          1           0       -7.791931    2.325990    5.029718
     74          1           0       -6.780950    0.967918    4.510341
     75          1           0       -8.314881    0.735785    5.363975
     76          1           0       -7.603813    3.773800   -0.108006
     77          1           0      -12.528697    5.309615    1.398228
     78          1           0      -11.560449    6.365950    0.348675
     79          1           0      -11.586930    6.570962    2.041471
     80         12           0       11.094987   -0.635268   -0.223807
     81          6           0        8.142979    1.318568   -0.510833
     82          6           0       11.250723    0.533535    3.111108
     83          6           0       14.001617   -2.085762    0.079352
     84          6           0       10.858250   -1.393627   -3.609873
     85          7           0        9.818110    0.803460    1.170178
     86          6           0        8.621438    1.361274    0.792141
     87          6           0        7.904870    2.067921    1.930345
     88          6           0        9.011945    1.899461    3.057399
     89          6           0       10.085567    0.991738    2.437681
     90          6           0        9.460959    3.256956    3.590133
     91          6           0        6.573883    1.358599    2.263303
     92          6           0        5.341332    2.236752    2.703969
     93          1           0        5.616210    3.662036    3.238590
     94          7           0       12.419741   -0.832682    1.397869
     95          6           0       12.332426   -0.209932    2.643287
     96          6           0       13.496439   -0.623888    3.442678
     97          6           0       14.261673   -1.479626    2.584873
     98          6           0       13.517700   -1.510462    1.311070
     99          6           0       13.757250   -0.136097    4.766508
    100          6           0       15.573561   -2.197741    2.884899
    101          8           0       16.172546   -2.831517    2.001555
    102          6           0       16.075700   -2.306528    4.271022
    103          7           0       12.318021   -1.517692   -1.603969
    104          6           0       13.432216   -2.137785   -1.206542
    105          6           0       14.183997   -2.775262   -2.419937
    106          6           0       13.086319   -2.715263   -3.529187
    107          6           0       12.034235   -1.831148   -2.936594
    108          6           0       15.554550   -2.089017   -2.765063
    109          6           0       12.570895   -4.197467   -3.679590
    110          6           0       11.319767   -4.686022   -2.871281
    111          7           0        9.754026   -0.255029   -1.747209
    112          6           0        9.813037   -0.632417   -3.101019
    113          6           0        8.657469   -0.021865   -3.804057
    114          6           0        8.046166    0.770577   -2.839503
    115          6           0        8.666684    0.612452   -1.618376
    116          6           0        8.569639   -0.073405   -5.253213
    117          6           0        7.010076    1.790929   -2.700060
    118          8           0        6.283888    2.251445   -3.573717
    119          6           0        7.035698    2.226445   -1.160095
    120          6           0        7.284730    3.681595   -1.017792
    121          8           0        8.375982    4.216659   -0.844596
    122          8           0        6.056887    4.365969   -1.093389
    123          6           0        5.991590    5.809123   -1.044749
    124          1           0       11.248010    0.639365    4.198324
    125          1           0       14.960435   -2.607740    0.117012
    126          1           0       10.869841   -1.736800   -4.646196
    127          1           0        7.705942    3.117906    1.714175
    128          1           0        8.499877    1.458332    3.912118
    129          1           0        9.368816    3.380924    4.668563
    130          1           0        8.982472    4.129846    3.145980
    131          1           0       10.536674    3.313039    3.418200
    132          1           0        6.719153    0.606225    3.038407
    133          1           0        6.388681    0.839622    1.322203
    134          1           0        4.828208    1.772581    3.545536
    135          1           0        4.609273    2.114990    1.905632
    136          1           0       13.909770   -1.017136    5.390229
    137          1           0       13.035878    0.629933    5.049336
    138          1           0       14.661542    0.444040    4.579975
    139          1           0       16.471565   -1.370327    4.665779
    140          1           0       16.905480   -3.012490    4.299665
    141          1           0       15.222784   -2.523036    4.913618
    142          1           0       14.366725   -3.757848   -1.984860
    143          1           0       13.495768   -2.401033   -4.489574
    144          1           0       16.374170   -2.640679   -2.304446
    145          1           0       15.463253   -1.044378   -2.469338
    146          1           0       15.643726   -2.134116   -3.850344
    147          1           0       13.421667   -4.878255   -3.644651
    148          1           0       12.104086   -4.191000   -4.665001
    149          1           0       11.624118   -5.668570   -2.511795
    150          1           0       10.432941   -4.814161   -3.493280
    151          1           0       11.052636   -4.095363   -1.995672
    152          1           0        9.532110    0.222466   -5.668643
    153          1           0        7.830767    0.674274   -5.543342
    154          1           0        8.131492   -1.014097   -5.585616
    155          1           0        6.023974    2.000583   -0.821773
    156          1           0        5.945486    6.273655   -2.029428
    157          1           0        6.694887    6.214760   -0.317315
    158          1           0        5.058133    5.948194   -0.498641
 ---------------------------------------------------------------------

 SCF Done:  E(RPBE1PBE) =  -4067.32570378     A.U. after   16 cycles

 Excitation energies and oscillator strengths:

 Excited State   1:      Singlet-A      1.5573 eV  796.17 nm  f=0.0000  <S**2>=0.000
     312 -> 313        0.70710
 This state for optimization and/or second-order correction.
 Total Energy, E(TD-HF/TD-DFT) =  -4067.26847559
 Copying the excited state density for this state as the 1-particle RhoCI density.

 Excited State   2:      Singlet-A      1.7941 eV  691.07 nm  f=0.3710  <S**2>=0.000
     309 -> 315       -0.16540
     311 -> 313        0.69592
     311 <- 313       -0.11772

 Excited State   3:      Singlet-A      1.8852 eV  657.67 nm  f=0.3584  <S**2>=0.000
     310 -> 316       -0.18506
     312 -> 314        0.68868
     312 <- 314       -0.10060

 Excited State   4:      Singlet-A      2.1556 eV  575.16 nm  f=0.1293  <S**2>=0.000
     308 -> 313       -0.10058
     309 -> 313        0.65391
     311 -> 315        0.23165

 Excited State   5:      Singlet-A      2.1946 eV  564.95 nm  f=0.0000  <S**2>=0.000
     310 -> 313        0.70708

 The electronic state is 1-A.
 Alpha  occ. eigenvalues --  -46.93335 -46.91847 -19.26750 -19.24532 -19.20481
 Alpha  occ. eigenvalues --  -19.19975 -19.19570 -19.18760 -19.18502 -19.17603
 Alpha  occ. eigenvalues --  -14.42101 -14.41486 -14.41370 -14.40918 -14.39814
 Alpha  occ. eigenvalues --  -14.39207 -14.39141 -14.38649 -10.37415 -10.36349
 Alpha  occ. eigenvalues --  -10.32550 -10.32203 -10.31238 -10.30899 -10.29926
 Alpha  occ. eigenvalues --  -10.29634 -10.29189 -10.28871 -10.28770 -10.28639
 Alpha  occ. eigenvalues --  -10.28624 -10.28478 -10.28261 -10.28223 -10.28161
 Alpha  occ. eigenvalues --  -10.28036 -10.27965 -10.27799 -10.27706 -10.27071
 Alpha  occ. eigenvalues --  -10.26844 -10.26765 -10.26628 -10.26445 -10.26292
 Alpha  occ. eigenvalues --  -10.26226 -10.26196 -10.26117 -10.26099 -10.25936
 Alpha  occ. eigenvalues --  -10.25878 -10.25774 -10.25762 -10.25728 -10.25423
 Alpha  occ. eigenvalues --  -10.25326 -10.25230 -10.25130 -10.25043 -10.25022
 Alpha  occ. eigenvalues --  -10.24995 -10.24958 -10.24952 -10.24911 -10.24733
 Alpha  occ. eigenvalues --  -10.24713 -10.24609 -10.24404 -10.24338 -10.24252
 Alpha  occ. eigenvalues --  -10.24192 -10.24078 -10.24053 -10.23832 -10.23659
 Alpha  occ. eigenvalues --  -10.23605 -10.23519 -10.23202 -10.23073 -10.22965
 Alpha  occ. eigenvalues --  -10.22726 -10.22685 -10.22648 -10.22629 -10.22612
 Alpha  occ. eigenvalues --  -10.22496  -3.15387  -3.13972  -1.88183  -1.87797
 Alpha  occ. eigenvalues --   -1.87584  -1.86820  -1.86359  -1.86181  -1.10307
 Alpha  occ. eigenvalues --   -1.09275  -1.06369  -1.04420  -1.03895  -1.03717
 Alpha  occ. eigenvalues --   -1.01960  -1.01943  -0.99739  -0.99213  -0.98925
 Alpha  occ. eigenvalues --   -0.98528  -0.97705  -0.97613  -0.96893  -0.96116
 Alpha  occ. eigenvalues --   -0.87918  -0.86300  -0.84108  -0.83896  -0.82977
 Alpha  occ. eigenvalues --   -0.82834  -0.82719  -0.82677  -0.82167  -0.81562
 Alpha  occ. eigenvalues --   -0.81523  -0.81055  -0.80567  -0.80341  -0.78847
 Alpha  occ. eigenvalues --   -0.78259  -0.78223  -0.77543  -0.77356  -0.76624
 Alpha  occ. eigenvalues --   -0.76411  -0.76185  -0.75301  -0.75115  -0.74861
 Alpha  occ. eigenvalues --   -0.74738  -0.73030  -0.72790  -0.72103  -0.71406
 Alpha  occ. eigenvalues --   -0.71359  -0.71112  -0.70944  -0.69996  -0.69857
 Alpha  occ. eigenvalues --   -0.69065  -0.68054  -0.66563  -0.66199  -0.65694
 Alpha  occ. eigenvalues --   -0.64376  -0.63813  -0.63598  -0.63123  -0.62684
 Alpha  occ. eigenvalues --   -0.62280  -0.61154  -0.60977  -0.60658  -0.60079
 Alpha  occ. eigenvalues --   -0.59265  -0.59218  -0.59125  -0.58940  -0.58806
 Alpha  occ. eigenvalues --   -0.58695  -0.58094  -0.56023  -0.54829  -0.54706
 Alpha  occ. eigenvalues --   -0.53994  -0.53853  -0.53510  -0.53505  -0.52612
 Alpha  occ. eigenvalues --   -0.52504  -0.52380  -0.51965  -0.51822  -0.51673
 Alpha  occ. eigenvalues --   -0.51128  -0.50763  -0.50354  -0.50005  -0.49854
 Alpha  occ. eigenvalues --   -0.49694  -0.49622  -0.48967  -0.48746  -0.48486
 Alpha  occ. eigenvalues --   -0.48333  -0.48130  -0.47940  -0.47738  -0.47727
 Alpha  occ. eigenvalues --   -0.47636  -0.47261  -0.47049  -0.46841  -0.46478
 Alpha  occ. eigenvalues --   -0.46373  -0.46365  -0.46240  -0.46085  -0.45987
 Alpha  occ. eigenvalues --   -0.45898  -0.45648  -0.45369  -0.45257  -0.45160
 Alpha  occ. eigenvalues --   -0.45099  -0.44619  -0.44380  -0.44297  -0.44251
 Alpha  occ. eigenvalues --   -0.44125  -0.44018  -0.43829  -0.43622  -0.43605
 Alpha  occ. eigenvalues --   -0.43377  -0.43038  -0.42944  -0.42915  -0.42617
 Alpha  occ. eigenvalues --   -0.42466  -0.42305  -0.42163  -0.41987  -0.41984
 Alpha  occ. eigenvalues --   -0.41915  -0.41824  -0.41652  -0.41551  -0.41215
 Alpha  occ. eigenvalues --   -0.41170  -0.40918  -0.40837  -0.40676  -0.40279
 Alpha  occ. eigenvalues --   -0.40146  -0.40140  -0.40126  -0.39727  -0.39641
 Alpha  occ. eigenvalues --   -0.39549  -0.39339  -0.38999  -0.38962  -0.38888
 Alpha  occ. eigenvalues --   -0.38791  -0.38740  -0.38682  -0.38413  -0.38312
 Alpha  occ. eigenvalues --   -0.38156  -0.38078  -0.37940  -0.37664  -0.37489
 Alpha  occ. eigenvalues --   -0.37462  -0.37432  -0.37083  -0.36883  -0.36746
 Alpha  occ. eigenvalues --   -0.36725  -0.36596  -0.36528  -0.36399  -0.36194
 Alpha  occ. eigenvalues --   -0.36000  -0.35859  -0.35465  -0.35298  -0.35138
 Alpha  occ. eigenvalues --   -0.35093  -0.34759  -0.34138  -0.33910  -0.33658
 Alpha  occ. eigenvalues --   -0.33347  -0.33035  -0.32640  -0.32351  -0.32308
 Alpha  occ. eigenvalues --   -0.32071  -0.31813  -0.31640  -0.31100  -0.30920
 Alpha  occ. eigenvalues --   -0.30667  -0.30634  -0.29793  -0.29220  -0.28992
 Alpha  occ. eigenvalues --   -0.28962  -0.28598  -0.28567  -0.27141  -0.26541
 Alpha  occ. eigenvalues --   -0.26316  -0.25768  -0.25723  -0.25610  -0.25256
 Alpha  occ. eigenvalues --   -0.25045  -0.24927  -0.23729  -0.21395  -0.20706
 Alpha  occ. eigenvalues --   -0.19340  -0.18377
 Alpha virt. eigenvalues --   -0.12039  -0.10615  -0.05466  -0.05101  -0.03911
 Alpha virt. eigenvalues --   -0.03871  -0.02122  -0.01877  -0.01776  -0.00027
 Alpha virt. eigenvalues --    0.00349   0.00619   0.00637   0.01187   0.01687

 Mulliken charges:
               1
     1  Mg  12.000000
     2  C    6.000000
     3  C    6.000000
     4  C    6.000000
     5  C    6.000000
     6  N    7.000000
     7  C    6.000000
     8  C    6.000000
     9  C    6.000000
    10  C    6.000000
    11  C    6.000000
    12  C    6.000000
    13  C    6.000000
    14  H    1.000000
    15  N    7.000000
    16  C    6.000000
    17  C    6.000000
    18  C    6.000000
    19  C    6.000000
    20  C    6.000000
    21  C    6.000000
    22  O    8.000000
    23  C    6.000000
    24  N    7.000000
    25  C    6.000000
    26  C    6.000000
    27  C    6.000000
    28  C    6.000000
    29  C    6.000000
    30  C    6.000000
    31  C    6.000000
    32  N    7.000000
    33  C    6.000000
    34  C    6.000000
    35  C    6.000000
    36  C    6.000000
    37  C    6.000000
    38  C    6.000000
    39  O    8.000000
    40  C    6.000000
    41  C    6.000000
    42  O    8.000000
    43  O    8.000000
    44  C    6.000000
    45  H    1.000000
    46  H    1.000000
    47  H    1.000000
    48  H    1.000000
    49  H    1.000000
    50  H    1.000000
    51  H    1.000000
    52  H    1.000000
    53  H    1.000000
    54  H    1.000000
    55  H    1.000000
    56  H    1.000000
    57  H    1.000000
    58  H    1.000000
    59  H    1.000000
    60  H    1.000000
    61  H    1.000000
    62  H    1.000000
    63  H    1.000000
    64  H    1.000000
    65  H    1.000000
    66  H    1.000000
    67  H    1.000000
    68  H    1.000000
    69  H    1.000000
    70  H    1.000000
    71  H    1.000000
    72  H    1.000000
    73  H    1.000000
    74  H    1.000000
    75  H    1.000000
    76  H    1.000000
    77  H    1.000000
    78  H    1.000000
    79  H    1.000000
    80  Mg  12.000000
    81  C    6.000000
    82  C    6.000000
    83  C    6.000000
    84  C    6.000000
    85  N    7.000000
    86  C    6.000000
    87  C    6.000000
    88  C    6.000000
    89  C    6.000000
    90  C    6.000000
    91  C    6.000000
    92  C    6.000000
    93  H    1.000000
    94  N    7.000000
    95  C    6.000000
    96  C    6.000000
    97  C    6.000000
    98  C    6.000000
    99  C    6.000000
   100  C    6.000000
   101  O    8.000000
   102  C    6.000000
   103  N    7.000000
   104  C    6.000000
   105  C    6.000000
   106  C    6.000000
   107  C    6.000000
   108  C    6.000000
   109  C    6.000000
   110  C    6.000000
   111  N    7.000000
   112  C    6.000000
   113  C    6.000000
   114  C    6.000000
   115  C    6.000000
   116  C    6.000000
   117  C    6.000000
   118  O    8.000000
   119  C    6.000000
   120  C    6.000000
   121  O    8.000000
   122  O    8.000000
   123  C    6.000000
   124  H    1.000000
   125  H    1.000000
   126  H    1.000000
   127  H    1.000000
   128  H    1.000000
   129  H    1.000000
   130  H    1.000000
   131  H    1.000000
   132  H    1.000000
   133  H    1.000000
   134  H    1.000000
   135  H    1.000000
   136  H    1.000000
   137  H    1.000000
   138  H    1.000000
   139  H    1.000000
   140  H    1.000000
   141  H    1.000000
   142  H    1.000000
   143  H    1.000000
   144  H    1.000000
   145  H    1.000000
   146  H    1.000000
   147  H    1.000000
   148  H    1.000000
   149  H    1.000000
   150  H    1.000000
   151  H    1.000000
   152  H    1.000000
   153  H    1.000000
   154  H    1.000000
   155  H    1.000000
   156  H    1.000000
   157  H    1.000000
   158  H    1.000000
 Sum of Mulliken charges = 624.00000

 Dipole moment (field-independent basis, Debye):
    X=             -0.0000    Y=             -0.0000    Z=             -0.0000  Tot=              0.0000
 Quadrupole moment (field-independent basis, Debye-Ang):
   XX=             -0.0000   YY=             -0.0000   ZZ=             -0.0000
   XY=              0.0000   XZ=              0.0000   YZ=             -0.0000

 Normal termination of Gaussian 16 at Thu Oct 14 05:17:46 2021.
