 Gaussian 16, Revision A.03,
 Gaussian 16:  ES64L-G16RevA.03 25-Dec-2016

 --------------------------------------------------------
 #p PBE1PBE/Def2SVP td=(nstates=5) density=(transition=1)
 --------------------------------------------------------

 --------------------------------
 TDDFT excited states in gaussian
 --------------------------------
 Symbolic Z-matrix:
 Charge =  0 Multiplicity = 1

                         Standard orientation:
 ---------------------------------------------------------------------
 Center     Atomic      Atomic             Coordinates (Angstroms)
 Number     Number       Type             X           Y           Z
 ---------------------------------------------------------------------
      1         12           0      -18.206963   -0.745524    0.113443
      2          6           0      -17.543994    2.624618   -0.651793
      3          6           0      -17.169666   -0.071118    3.363025
      4          6           0      -18.535382   -3.997300    0.701370
      5          6           0      -18.399078   -1.446309   -3.402589
      6          7           0      -17.432196    1.036672    1.205394
      7          6           0      -17.373244    2.338680    0.688891
      8          6           0      -17.312650    3.327394    1.838478
      9          6           0      -16.915012    2.478313    3.079306
     10          6           0      -17.194599    1.051588    2.517944
     11          6           0      -15.488414    2.726782    3.662247
     12          6           0      -18.610855    4.185022    2.033238
     13          6           0      -18.347513    5.642825    2.616493
     14          1           0      -16.906526    6.022817    2.967452
     15          7           0      -18.023388   -1.811189    1.777313
     16          6           0      -17.663415   -1.351828    3.032525
     17          6           0      -17.770766   -2.399064    4.006947
     18          6           0      -18.041023   -3.584341    3.250860
     19          6           0      -18.245376   -3.147117    1.881377
     20          6           0      -17.448257   -2.208077    5.520458
     21          6           0      -18.115337   -4.999338    3.723734
     22          8           0      -18.206308   -5.955895    2.917694
     23          6           0      -18.014947   -5.557533    5.173865
     24          7           0      -18.163983   -2.522894   -1.159789
     25          6           0      -18.425647   -3.745792   -0.660853
     26          6           0      -18.789826   -4.729986   -1.800765
     27          6           0      -18.726926   -3.935390   -3.110126
     28          6           0      -18.449841   -2.491108   -2.499901
     29          6           0      -18.002992   -6.002062   -1.713152
     30          6           0      -19.966618   -3.991700   -4.028456
     31          6           0      -21.286590   -3.493111   -3.390284
     32          7           0      -17.958814    0.313671   -1.727225
     33          6           0      -18.223448   -0.074034   -2.996649
     34          6           0      -18.242300    1.140578   -3.810322
     35          6           0      -18.009985    2.265048   -2.969760
     36          6           0      -17.788335    1.705318   -1.687971
     37          6           0      -18.599179    1.213835   -5.292607
     38          6           0      -17.882318    3.686544   -2.919867
     39          8           0      -18.064438    4.587995   -3.733860
     40          6           0      -17.489510    3.996264   -1.332037
     41          6           0      -16.209734    4.809653   -1.285006
     42          8           0      -15.100928    4.326129   -1.403164
     43          8           0      -16.477189    6.127672   -0.992151
     44          6           0      -15.458425    7.134109   -1.272790
     45          1           0      -16.948764    0.280346    4.372856
     46          1           0      -18.727132   -5.037737    0.970835
     47          1           0      -18.602135   -1.718286   -4.440210
     48          1           0      -16.522019    4.052895    1.647587
     49          1           0      -17.648060    2.692078    3.856619
     50          1           0      -15.050438    1.729555    3.635995
     51          1           0      -15.546146    3.004598    4.715354
     52          1           0      -14.806882    3.408169    3.153060
     53          1           0      -19.274388    3.740173    2.774164
     54          1           0      -19.149474    4.218053    1.087060
     55          1           0      -18.838794    5.695567    3.588194
     56          1           0      -18.760114    6.354891    1.902189
     57          1           0      -16.940729   -3.110467    5.863533
     58          1           0      -18.345009   -2.098944    6.129464
     59          1           0      -16.854295   -1.364457    5.871724
     60          1           0      -18.760016   -5.089859    5.818112
     61          1           0      -17.012560   -5.459487    5.590564
     62          1           0      -18.415572   -6.563151    5.296056
     63          1           0      -19.782121   -5.104186   -1.552211
     64          1           0      -17.768862   -4.210094   -3.552841
     65          1           0      -18.578541   -6.827777   -1.294358
     66          1           0      -17.085409   -5.832840   -1.149445
     67          1           0      -17.621021   -6.358162   -2.670561
     68          1           0      -20.072789   -5.057100   -4.233808
     69          1           0      -19.770914   -3.455473   -4.957511
     70          1           0      -21.607989   -2.660343   -4.015496
     71          1           0      -21.043897   -3.174030   -2.376645
     72          1           0      -22.043078   -4.267010   -3.259334
     73          1           0      -19.257518    2.050584   -5.524412
     74          1           0      -19.197311    0.357135   -5.601772
     75          1           0      -17.671140    1.192490   -5.864570
     76          1           0      -18.296377    4.639590   -0.980115
     77          1           0      -14.501803    6.691263   -0.994303
     78          1           0      -15.564915    8.062444   -0.711475
     79          1           0      -15.575279    7.378045   -2.328727
     80         12           0       18.127350   -0.740390   -0.071993
     81          6           0       16.401652    2.413022    0.439815
     82          6           0       20.970736    1.065871    0.060163
     83          6           0       19.622316   -3.516494   -0.582978
     84          6           0       14.979395   -2.305501   -0.493519
     85          7           0       18.609256    1.595784    0.265055
     86          6           0       17.766143    2.607724    0.533367
     87          6           0       18.557531    3.876935    0.902669
     88          6           0       19.964632    3.427477    0.289005
     89          6           0       19.872774    1.959798    0.256743
     90          6           0       20.494802    4.174475   -0.923383
     91          6           0       18.498635    4.069967    2.427853
     92          6           0       18.681990    5.555397    2.857404
     93          1           0       18.624406    6.776882    1.828050
     94          7           0       20.083066   -1.214855   -0.201369
     95          6           0       21.143556   -0.329208   -0.212798
     96          6           0       22.364622   -1.094335   -0.446056
     97          6           0       21.992466   -2.456575   -0.560136
     98          6           0       20.506345   -2.423478   -0.452220
     99          6           0       23.701814   -0.506325   -0.541495
    100          6           0       22.912813   -3.775561   -0.731296
    101          8           0       22.451292   -4.879942   -0.637788
    102          6           0       24.449669   -3.691055   -0.717967
    103          7           0       17.376939   -2.586382   -0.748447
    104          6           0       18.219577   -3.615940   -0.726900
    105          6           0       17.567821   -4.956931   -0.932399
    106          6           0       16.125124   -4.594005   -0.503457
    107          6           0       16.149348   -3.046432   -0.751637
    108          6           0       17.620260   -5.490484   -2.439281
    109          6           0       15.703219   -5.021855    0.964607
    110          6           0       16.346406   -6.277315    1.622370
    111          7           0       16.122287   -0.119213   -0.154198
    112          6           0       14.964780   -0.817468   -0.260832
    113          6           0       13.850945   -0.014639   -0.028568
    114          6           0       14.377656    1.226548    0.188458
    115          6           0       15.755636    1.156292    0.132847
    116          6           0       12.400246   -0.485215    0.029667
    117          6           0       13.958009    2.599079    0.509065
    118          8           0       12.873450    3.161893    0.505710
    119          6           0       15.317223    3.387029    0.759638
    120          6           0       15.283204    4.585604   -0.060020
    121          8           0       15.495581    4.661830   -1.274351
    122          8           0       14.720743    5.556567    0.689442
    123          6           0       14.278586    6.687829   -0.106063
    124          1           0       21.866169    1.675491   -0.078298
    125          1           0       20.165795   -4.439044   -0.794814
    126          1           0       14.034479   -2.850827   -0.536438
    127          1           0       18.219386    4.741371    0.331120
    128          1           0       20.704562    3.665129    1.052067
    129          1           0       21.386723    4.755053   -0.689733
    130          1           0       19.730813    4.845219   -1.316027
    131          1           0       20.719215    3.534686   -1.776882
    132          1           0       19.363432    3.558622    2.851233
    133          1           0       17.619766    3.629282    2.898117
    134          1           0       19.560818    5.687209    3.489401
    135          1           0       17.940709    5.646972    3.651144
    136          1           0       23.760515    0.451072   -0.024197
    137          1           0       23.883678   -0.390163   -1.610059
    138          1           0       24.490057   -1.120627   -0.105734
    139          1           0       24.864772   -3.368187    0.236753
    140          1           0       24.696138   -3.096255   -1.597766
    141          1           0       24.875030   -4.661698   -0.974301
    142          1           0       18.143551   -5.606576   -0.273590
    143          1           0       15.364840   -5.019539   -1.157976
    144          1           0       17.926505   -6.525874   -2.291772
    145          1           0       18.351559   -4.985333   -3.071228
    146          1           0       16.670294   -5.499216   -2.972324
    147          1           0       14.618152   -5.107330    1.002132
    148          1           0       16.111830   -4.189203    1.537448
    149          1           0       17.280068   -6.010508    2.116943
    150          1           0       16.415711   -6.984099    0.794739
    151          1           0       15.679891   -6.753184    2.340848
    152          1           0       12.462904   -1.516974    0.376380
    153          1           0       11.921823   -0.526200   -0.948434
    154          1           0       11.862361    0.154830    0.728810
    155          1           0       15.333812    3.638756    1.820790
    156          1           0       13.801381    7.470671    0.482767
    157          1           0       13.732917    6.458031   -1.021383
    158          1           0       15.137124    7.226531   -0.508559
 ---------------------------------------------------------------------

 SCF Done:  E(RPBE1PBE) =  -4067.35860941     A.U. after   16 cycles

 Excitation energies and oscillator strengths:

 Excited State   1:      Singlet-A      1.8182 eV  681.91 nm  f=0.3840  <S**2>=0.000
     309 -> 315       -0.16257
     311 -> 313        0.69668
     311 <- 313       -0.11885
 This state for optimization and/or second-order correction.
 Total Energy, E(TD-HF/TD-DFT) =  -4067.29179179
 Copying the excited state density for this state as the 1-particle RhoCI density.

 Excited State   2:      Singlet-A      1.8746 eV  661.37 nm  f=0.0000  <S**2>=0.000
     312 -> 313        0.70711

 Excited State   3:      Singlet-A      1.9474 eV  636.67 nm  f=0.3574  <S**2>=0.000
     310 -> 316        0.18523
     312 -> 314        0.68732

 Excited State   4:      Singlet-A      2.1345 eV  580.85 nm  f=0.0000  <S**2>=0.000
     311 -> 314        0.70710

 Excited State   5:      Singlet-A      2.1901 eV  566.11 nm  f=0.1385  <S**2>=0.000
     309 -> 313        0.66499
     311 -> 315        0.22016

 The electronic state is 1-A.
 Alpha  occ. eigenvalues --  -46.92730 -46.92282 -19.25540 -19.24871 -19.20480
 Alpha  occ. eigenvalues --  -19.19640 -19.19408 -19.19285 -19.19004 -19.18484
 Alpha  occ. eigenvalues --  -14.41884 -14.41037 -14.40751 -14.40713 -14.39841
 Alpha  occ. eigenvalues --  -14.39411 -14.39093 -14.38446 -10.36061 -10.35196
 Alpha  occ. eigenvalues --  -10.33920 -10.32766 -10.32511 -10.32155 -10.29050
 Alpha  occ. eigenvalues --  -10.28589 -10.28570 -10.28561 -10.28494 -10.28345
 Alpha  occ. eigenvalues --  -10.28209 -10.28178 -10.28091 -10.28010 -10.27969
 Alpha  occ. eigenvalues --  -10.27757 -10.27687 -10.27514 -10.27473 -10.26936
 Alpha  occ. eigenvalues --  -10.26883 -10.26763 -10.26716 -10.26640 -10.26489
 Alpha  occ. eigenvalues --  -10.25900 -10.25889 -10.25869 -10.25852 -10.25837
 Alpha  occ. eigenvalues --  -10.25778 -10.25713 -10.25521 -10.25300 -10.25289
 Alpha  occ. eigenvalues --  -10.25260 -10.25208 -10.25164 -10.25151 -10.25147
 Alpha  occ. eigenvalues --  -10.25099 -10.25087 -10.25058 -10.24918 -10.24793
 Alpha  occ. eigenvalues --  -10.24650 -10.24412 -10.24406 -10.24370 -10.24366
 Alpha  occ. eigenvalues --  -10.24219 -10.23891 -10.23816 -10.23632 -10.23557
 Alpha  occ. eigenvalues --  -10.23472 -10.23436 -10.23432 -10.23112 -10.23107
 Alpha  occ. eigenvalues --  -10.23087 -10.23035 -10.22996 -10.22875 -10.22343
 Alpha  occ. eigenvalues --  -10.21711  -3.14812  -3.14430  -1.87654  -1.87240
 Alpha  occ. eigenvalues --   -1.87204  -1.87020  -1.86804  -1.86667  -1.11269
 Alpha  occ. eigenvalues --   -1.10161  -1.07137  -1.04375  -1.04231  -1.02998
 Alpha  occ. eigenvalues --   -1.02225  -1.01434  -1.00416  -0.99737  -0.99134
 Alpha  occ. eigenvalues --   -0.98844  -0.98349  -0.98022  -0.97843  -0.96837
 Alpha  occ. eigenvalues --   -0.86774  -0.86545  -0.83482  -0.83196  -0.82938
 Alpha  occ. eigenvalues --   -0.82742  -0.82385  -0.82367  -0.81700  -0.81681
 Alpha  occ. eigenvalues --   -0.81222  -0.80957  -0.80146  -0.79689  -0.78564
 Alpha  occ. eigenvalues --   -0.78019  -0.77624  -0.77440  -0.76599  -0.76410
 Alpha  occ. eigenvalues --   -0.75876  -0.75297  -0.75054  -0.74929  -0.74431
 Alpha  occ. eigenvalues --   -0.74089  -0.72823  -0.72662  -0.71244  -0.71123
 Alpha  occ. eigenvalues --   -0.71015  -0.70953  -0.70106  -0.70083  -0.69563
 Alpha  occ. eigenvalues --   -0.69298  -0.67283  -0.66992  -0.66035  -0.65461
 Alpha  occ. eigenvalues --   -0.64214  -0.63944  -0.63499  -0.63134  -0.62803
 Alpha  occ. eigenvalues --   -0.62166  -0.61871  -0.61047  -0.59893  -0.59718
 Alpha  occ. eigenvalues --   -0.59510  -0.59256  -0.59107  -0.58707  -0.58576
 Alpha  occ. eigenvalues --   -0.58228  -0.56414  -0.56193  -0.55365  -0.55159
 Alpha  occ. eigenvalues --   -0.54021  -0.53975  -0.53811  -0.53336  -0.52939
 Alpha  occ. eigenvalues --   -0.52706  -0.52484  -0.52102  -0.51992  -0.51415
 Alpha  occ. eigenvalues --   -0.50977  -0.50448  -0.50249  -0.49989  -0.49782
 Alpha  occ. eigenvalues --   -0.49326  -0.49284  -0.49114  -0.48524  -0.48441
 Alpha  occ. eigenvalues --   -0.48189  -0.48008  -0.47968  -0.47660  -0.47534
 Alpha  occ. eigenvalues --   -0.47269  -0.47214  -0.47110  -0.46799  -0.46661
 Alpha  occ. eigenvalues --   -0.46464  -0.46050  -0.45907  -0.45871  -0.45719
 Alpha  occ. eigenvalues --   -0.45610  -0.45286  -0.45220  -0.44972  -0.44719
 Alpha  occ. eigenvalues --   -0.44426  -0.44253  -0.44103  -0.43826  -0.43806
 Alpha  occ. eigenvalues --   -0.43673  -0.43535  -0.43424  -0.43394  -0.43314
 Alpha  occ. eigenvalues --   -0.43275  -0.43165  -0.42850  -0.42788  -0.42624
 Alpha  occ. eigenvalues --   -0.42434  -0.42293  -0.42197  -0.42059  -0.42047
 Alpha  occ. eigenvalues --   -0.41702  -0.41428  -0.41369  -0.41031  -0.40921
 Alpha  occ. eigenvalues --   -0.40755  -0.40545  -0.40539  -0.40248  -0.40136
 Alpha  occ. eigenvalues --   -0.39923  -0.39806  -0.39406  -0.39392  -0.39239
 Alpha  occ. eigenvalues --   -0.39093  -0.38949  -0.38939  -0.38821  -0.38800
 Alpha  occ. eigenvalues --   -0.38764  -0.38643  -0.38389  -0.38168  -0.38044
 Alpha  occ. eigenvalues --   -0.37981  -0.37945  -0.37800  -0.37634  -0.37534
 Alpha  occ. eigenvalues --   -0.37423  -0.37371  -0.37243  -0.37126  -0.37033
 Alpha  occ. eigenvalues --   -0.36761  -0.36706  -0.36460  -0.36264  -0.36257
 Alpha  occ. eigenvalues --   -0.36141  -0.35531  -0.35383  -0.35321  -0.34967
 Alpha  occ. eigenvalues --   -0.34609  -0.34558  -0.34191  -0.34084  -0.33618
 Alpha  occ. eigenvalues --   -0.33586  -0.33148  -0.32966  -0.32769  -0.32592
 Alpha  occ. eigenvalues --   -0.32405  -0.31872  -0.31645  -0.31326  -0.30828
 Alpha  occ. eigenvalues --   -0.30826  -0.30672  -0.29392  -0.29163  -0.28868
 Alpha  occ. eigenvalues --   -0.28639  -0.28379  -0.27956  -0.27031  -0.26928
 Alpha  occ. eigenvalues --   -0.26549  -0.26251  -0.26131  -0.25772  -0.25498
 Alpha  occ. eigenvalues --   -0.25261  -0.25222  -0.24922  -0.21022  -0.20317
 Alpha  occ. eigenvalues --   -0.18949  -0.18854
 Alpha virt. eigenvalues --   -0.11593  -0.10741  -0.04984  -0.04614  -0.04237
 Alpha virt. eigenvalues --   -0.03592  -0.02278  -0.01799  -0.01236  -0.00418
 Alpha virt. eigenvalues --    0.00144   0.00640   0.01109   0.01132   0.01873

 Mulliken charges:
               1
     1  Mg  12.000906
     2  C    5.979884
     3  C    5.997874
     4  C    6.018388
     5  C    5.996600
     6  N    6.988087
     7  C    6.032985
     8  C    5.991365
     9  C    6.011021
    10  C    5.977165
    11  C    5.998303
    12  C    5.997338
    13  C    5.999450
    14  H    1.004858
    15  N    7.003532
    16  C    5.968212
    17  C    5.975101
    18  C    5.987988
    19  C    5.972538
    20  C    6.001956
    21  C    5.991786
    22  O    7.967991
    23  C    6.003531
    24  N    7.008458
    25  C    5.969455
    26  C    6.004070
    27  C    5.992736
    28  C    6.020534
    29  C    6.002093
    30  C    5.995884
    31  C    5.995442
    32  N    6.998467
    33  C    6.029773
    34  C    6.038728
    35  C    5.997184
    36  C    6.035173
    37  C    5.998201
    38  C    6.012861
    39  O    8.023981
    40  C    6.004981
    41  C    6.003058
    42  O    8.005576
    43  O    8.001759
    44  C    5.998438
    45  H    0.986587
    46  H    0.996195
    47  H    1.009933
    48  H    0.998758
    49  H    0.997365
    50  H    1.004470
    51  H    0.997391
    52  H    0.987697
    53  H    1.011088
    54  H    0.992711
    55  H    1.004904
    56  H    0.996930
    57  H    0.985749
    58  H    0.980873
    59  H    0.982503
    60  H    0.992226
    61  H    0.991576
    62  H    0.986894
    63  H    1.001145
    64  H    1.003857
    65  H    1.002408
    66  H    1.003802
    67  H    0.991493
    68  H    1.008780
    69  H    0.995794
    70  H    0.995192
    71  H    1.006511
    72  H    1.007529
    73  H    1.017507
    74  H    1.019071
    75  H    1.021116
    76  H    1.008187
    77  H    1.004479
    78  H    1.005496
    79  H    1.000072
    80  Mg  12.000025
    81  C    6.000008
    82  C    6.000018
    83  C    6.000020
    84  C    6.000014
    85  N    7.000011
    86  C    5.999974
    87  C    5.999995
    88  C    5.999996
    89  C    5.999996
    90  C    6.000016
    91  C    5.999999
    92  C    6.000008
    93  H    0.999921
    94  N    7.000006
    95  C    5.999985
    96  C    5.999996
    97  C    6.000010
    98  C    5.999991
    99  C    5.999991
   100  C    5.999999
   101  O    8.000020
   102  C    6.000003
   103  N    6.999965
   104  C    6.000007
   105  C    6.000008
   106  C    6.000008
   107  C    5.999969
   108  C    5.999988
   109  C    5.999980
   110  C    5.999999
   111  N    7.000011
   112  C    6.000010
   113  C    6.000016
   114  C    5.999996
   115  C    5.999976
   116  C    5.999985
   117  C    5.999983
   118  O    7.999974
   119  C    6.000003
   120  C    5.999984
   121  O    7.999945
   122  O    8.000027
   123  C    6.000051
   124  H    0.999964
   125  H    1.000027
   126  H    1.000031
   127  H    0.999959
   128  H    1.000003
   129  H    0.999985
   130  H    0.999955
   131  H    0.999973
   132  H    1.000024
   133  H    1.000036
   134  H    1.000015
   135  H    1.000026
   136  H    1.000006
   137  H    0.999970
   138  H    1.000014
   139  H    1.000021
   140  H    0.999973
   141  H    1.000013
   142  H    1.000036
   143  H    1.000007
   144  H    1.000033
   145  H    0.999962
   146  H    0.999985
   147  H    1.000053
   148  H    1.000009
   149  H    1.000002
   150  H    0.999993
   151  H    1.000098
   152  H    1.000070
   153  H    0.999932
   154  H    1.000038
   155  H    1.000029
   156  H    0.999974
   157  H    0.999927
   158  H    0.999967
 Sum of Mulliken charges = 624.00000

 Dipole moment (field-independent basis, Debye):
    X=             -0.5211    Y=              5.5130    Z=             -8.9851  Tot=             10.5544
 Quadrupole moment (field-independent basis, Debye-Ang):
   XX=             19.2210   YY=             -5.4352   ZZ=             -2.6808
   XY=            -98.5896   XZ=            161.5483   YZ=              7.9664

 Normal termination of Gaussian 16 at Thu Oct 14 11:57:28 2021.
