 Gaussian 16, Revision A.03,
 Gaussian 16:  ES64L-G16RevA.03 25-Dec-2016

 --------------------------------------------------------
 #p PBE1PBE/Def2SVP td=(nstates=5) density=(transition=1)
 --------------------------------------------------------

 --------------------------------
 TDDFT excited states in gaussian
 --------------------------------
 Symbolic Z-matrix:
 Charge =  0 Multiplicity = 1

                         Standard orientation:
 ---------------------------------------------------------------------
 Center     Atomic      Atomic             Coordinates (Angstroms)
 Number     Number       Type             X           Y           Z
 ---------------------------------------------------------------------
      1         12           0      -13.368732   -0.648694   -0.081315
      2          6           0      -11.638299    1.937323    1.471596
      3          6           0      -14.866403    1.649560   -2.135062
      4          6           0      -15.268124   -3.181803   -1.342228
      5          6           0      -11.885870   -2.808960    2.320288
      6          7           0      -13.292338    1.533477   -0.282920
      7          6           0      -12.414520    2.342065    0.389689
      8          6           0      -12.589420    3.747937   -0.189902
      9          6           0      -13.806984    3.672985   -1.093889
     10          6           0      -13.979410    2.162515   -1.206682
     11          6           0      -15.070859    4.395182   -0.711088
     12          6           0      -11.287009    4.377182   -0.879844
     13          6           0      -11.507648    5.710345   -1.664474
     14          1           0      -11.323182    7.053679   -0.911155
     15          7           0      -14.743255   -0.747949   -1.632979
     16          6           0      -15.252020    0.296952   -2.332183
     17          6           0      -16.237223   -0.248247   -3.229513
     18          6           0      -16.350289   -1.648845   -2.987125
     19          6           0      -15.465257   -1.923617   -1.946180
     20          6           0      -16.959015    0.641633   -4.193830
     21          6           0      -17.381635   -2.616796   -3.636784
     22          8           0      -17.647824   -3.697355   -3.141703
     23          6           0      -18.188571   -2.272387   -4.796142
     24          7           0      -13.520878   -2.578495    0.402475
     25          6           0      -14.338818   -3.481344   -0.276177
     26          6           0      -14.196538   -4.918801    0.253621
     27          6           0      -12.942493   -4.789091    1.183544
     28          6           0      -12.744888   -3.284579    1.268760
     29          6           0      -15.423989   -5.566245    0.746658
     30          6           0      -11.584711   -5.606616    0.811785
     31          6           0      -10.995246   -6.625837    1.791362
     32          7           0      -12.034697   -0.492864    1.655954
     33          6           0      -11.566452   -1.458594    2.502090
     34          6           0      -10.697250   -0.905415    3.485275
     35          6           0      -10.621906    0.479634    3.072451
     36          6           0      -11.535905    0.677295    1.999744
     37          6           0      -10.012436   -1.695390    4.534577
     38          6           0       -9.937603    1.726260    3.327921
     39          8           0       -9.042171    2.061056    4.078403
     40          6           0      -10.619423    2.756862    2.249597
     41          6           0      -11.092573    4.000571    2.909232
     42          8           0      -12.007994    4.035161    3.702035
     43          8           0      -10.401855    5.085926    2.518391
     44          6           0      -10.951394    6.437610    2.919780
     45          1           0      -15.306638    2.370203   -2.827789
     46          1           0      -15.893617   -3.973545   -1.759374
     47          1           0      -11.520132   -3.628753    2.942378
     48          1           0      -12.802464    4.299984    0.725393
     49          1           0      -13.564608    4.113635   -2.060615
     50          1           0      -15.675893    3.537994   -0.417286
     51          1           0      -15.475340    4.995492   -1.526153
     52          1           0      -14.954272    4.983725    0.199180
     53          1           0      -10.999454    3.580473   -1.566223
     54          1           0      -10.514872    4.542312   -0.129345
     55          1           0      -12.520578    5.782322   -2.058584
     56          1           0      -10.836167    5.705799   -2.523063
     57          1           0      -16.658632    1.688064   -4.255681
     58          1           0      -17.988886    0.678682   -3.840278
     59          1           0      -17.011803    0.227340   -5.200838
     60          1           0      -18.722065   -1.322940   -4.827439
     61          1           0      -18.905668   -3.030662   -5.110339
     62          1           0      -17.451008   -2.303329   -5.597831
     63          1           0      -13.888868   -5.383460   -0.683543
     64          1           0      -13.403955   -5.079459    2.127251
     65          1           0      -15.775483   -6.441911    0.200314
     66          1           0      -16.217171   -4.818393    0.727562
     67          1           0      -15.347399   -5.948604    1.764439
     68          1           0      -10.801858   -4.869784    0.633022
     69          1           0      -11.583204   -6.183235   -0.113985
     70          1           0      -10.117074   -6.282175    2.338618
     71          1           0      -10.857897   -7.626840    1.383408
     72          1           0      -11.711908   -6.743403    2.604297
     73          1           0      -10.735983   -2.378148    4.979394
     74          1           0       -9.519332   -1.069523    5.277894
     75          1           0       -9.365264   -2.411798    4.027561
     76          1           0       -9.809933    3.049641    1.581720
     77          1           0      -10.072770    7.074985    2.823005
     78          1           0      -11.320092    6.373476    3.943324
     79          1           0      -11.697604    6.704728    2.171358
     80         12           0       13.491085   -0.721868    0.007441
     81          6           0       11.418505    2.062473   -0.422437
     82          6           0       16.101198    1.529242    0.404695
     83          6           0       15.490816   -3.285386   -0.019506
     84          6           0       10.692656   -2.787733   -0.659396
     85          7           0       13.805097    1.579888   -0.409904
     86          6           0       12.797857    2.458967   -0.399544
     87          6           0       13.389807    3.827605   -0.344069
     88          6           0       14.912866    3.615421   -0.525286
     89          6           0       14.985139    2.154571   -0.127165
     90          6           0       15.567581    3.907331   -1.876618
     91          6           0       13.060076    4.551982    0.999589
     92          6           0       12.498568    6.009875    0.956728
     93          1           0       12.907504    6.948424   -0.221108
     94          7           0       15.545750   -0.869569    0.324137
     95          6           0       16.379924    0.190697    0.653003
     96          6           0       17.662818   -0.371700    0.924062
     97          6           0       17.561417   -1.799957    0.680454
     98          6           0       16.176550   -2.068129    0.322523
     99          6           0       18.925542    0.448048    1.268505
    100          6           0       18.666362   -2.895038    0.700850
    101          8           0       18.478704   -4.046367    0.464969
    102          6           0       20.049654   -2.434316    1.116330
    103          7           0       13.103720   -2.724991   -0.286100
    104          6           0       14.135353   -3.598117   -0.313767
    105          6           0       13.708311   -5.070946   -0.562732
    106          6           0       12.128837   -4.911196   -0.494435
    107          6           0       11.924123   -3.401562   -0.450433
    108          6           0       14.315034   -5.615788   -1.981065
    109          6           0       11.460955   -5.749124    0.640736
    110          6           0       11.124836   -5.041811    1.941382
    111          7           0       11.419244   -0.493526   -0.420070
    112          6           0       10.415137   -1.411012   -0.573520
    113          6           0        9.123450   -0.662983   -0.766705
    114          6           0        9.494540    0.699425   -0.708835
    115          6           0       10.916043    0.781028   -0.536559
    116          6           0        7.778458   -1.226562   -1.137069
    117          6           0        8.997848    2.071184   -0.783924
    118          8           0        7.837587    2.449497   -0.968983
    119          6           0       10.189877    2.959844   -0.441280
    120          6           0       10.245597    4.000060   -1.523184
    121          8           0       10.686254    3.823380   -2.644173
    122          8           0        9.559214    5.033750   -1.064498
    123          6           0        9.087027    6.024294   -2.019169
    124          1           0       16.944196    2.222468    0.387050
    125          1           0       16.110853   -4.168313    0.147291
    126          1           0        9.827488   -3.426688   -0.849915
    127          1           0       12.966292    4.421838   -1.153153
    128          1           0       15.395361    4.309758    0.162729
    129          1           0       14.915740    4.304034   -2.655173
    130          1           0       16.040114    3.006325   -2.268769
    131          1           0       16.348891    4.640810   -1.678692
    132          1           0       13.873275    4.515980    1.724210
    133          1           0       12.292626    3.874598    1.373861
    134          1           0       12.863096    6.446629    1.887351
    135          1           0       11.410149    5.962681    0.980545
    136          1           0       19.775210    0.221537    0.624336
    137          1           0       19.324231    0.200155    2.252343
    138          1           0       18.776870    1.528671    1.267772
    139          1           0       20.045809   -1.874741    2.051953
    140          1           0       20.477162   -1.868380    0.288557
    141          1           0       20.733670   -3.281835    1.159908
    142          1           0       14.060665   -5.746072    0.216916
    143          1           0       11.622153   -5.298948   -1.378076
    144          1           0       13.447435   -5.676998   -2.638185
    145          1           0       14.666484   -6.646823   -1.935864
    146          1           0       15.002679   -4.922504   -2.466738
    147          1           0       12.236380   -6.459821    0.926954
    148          1           0       10.594731   -6.310613    0.291351
    149          1           0       12.006191   -4.431934    2.143498
    150          1           0       11.008784   -5.888651    2.617362
    151          1           0       10.305986   -4.324643    1.992327
    152          1           0        7.701245   -2.289783   -1.364648
    153          1           0        7.407454   -0.712143   -2.023653
    154          1           0        7.114772   -0.926281   -0.326846
    155          1           0       10.060983    3.573827    0.450292
    156          1           0        9.215244    5.857594   -3.088210
    157          1           0        9.717087    6.885688   -1.795405
    158          1           0        8.176721    6.471923   -1.620140
 ---------------------------------------------------------------------

 SCF Done:  E(RPBE1PBE) =  -4067.37900804     A.U. after   16 cycles

 Excitation energies and oscillator strengths:

 Excited State   1:      Singlet-A      1.8568 eV  667.73 nm  f=0.4440  <S**2>=0.000
     309 -> 315        0.17193
     311 -> 313        0.68950
     311 <- 313       -0.11110
 This state for optimization and/or second-order correction.
 Total Energy, E(TD-HF/TD-DFT) =  -4067.31077182
 Copying the excited state density for this state as the 1-particle RhoCI density.

 Excited State   2:      Singlet-A      1.8767 eV  660.63 nm  f=0.3321  <S**2>=0.000
     310 -> 316       -0.18140
     312 -> 314        0.68714
     312 <- 314       -0.10275

 Excited State   3:      Singlet-A      1.8984 eV  653.09 nm  f=0.0000  <S**2>=0.000
     312 -> 313        0.70710

 Excited State   4:      Singlet-A      1.9844 eV  624.79 nm  f=0.0000  <S**2>=0.000
     311 -> 314        0.70709

 Excited State   5:      Singlet-A      2.2079 eV  561.54 nm  f=0.0905  <S**2>=0.000
     310 -> 314        0.65466
     312 -> 316        0.25276

 The electronic state is 1-A.
 Alpha  occ. eigenvalues --  -46.92143 -46.91236 -19.26766 -19.25029 -19.19713
 Alpha  occ. eigenvalues --  -19.19348 -19.19251 -19.18955 -19.18892 -19.18443
 Alpha  occ. eigenvalues --  -14.42190 -14.41516 -14.41354 -14.40947 -14.38840
 Alpha  occ. eigenvalues --  -14.38700 -14.38498 -14.38072 -10.35989 -10.34920
 Alpha  occ. eigenvalues --  -10.32666 -10.32353 -10.31777 -10.31763 -10.29330
 Alpha  occ. eigenvalues --  -10.29297 -10.29170 -10.28901 -10.28818 -10.28802
 Alpha  occ. eigenvalues --  -10.28645 -10.28633 -10.28070 -10.28061 -10.27580
 Alpha  occ. eigenvalues --  -10.27416 -10.27415 -10.27293 -10.27094 -10.26913
 Alpha  occ. eigenvalues --  -10.26901 -10.26791 -10.26719 -10.26710 -10.26282
 Alpha  occ. eigenvalues --  -10.25965 -10.25964 -10.25912 -10.25833 -10.25773
 Alpha  occ. eigenvalues --  -10.25728 -10.25713 -10.25372 -10.25301 -10.25297
 Alpha  occ. eigenvalues --  -10.25093 -10.24987 -10.24881 -10.24843 -10.24803
 Alpha  occ. eigenvalues --  -10.24738 -10.24697 -10.24680 -10.24673 -10.24641
 Alpha  occ. eigenvalues --  -10.24483 -10.24478 -10.24328 -10.24290 -10.24282
 Alpha  occ. eigenvalues --  -10.24255 -10.24198 -10.23917 -10.23740 -10.23712
 Alpha  occ. eigenvalues --  -10.23665 -10.23509 -10.23391 -10.23249 -10.23173
 Alpha  occ. eigenvalues --  -10.23008 -10.23008 -10.22929 -10.22868 -10.22607
 Alpha  occ. eigenvalues --  -10.22422  -3.14183  -3.13474  -1.87032  -1.86593
 Alpha  occ. eigenvalues --   -1.86366  -1.86331  -1.85851  -1.85699  -1.12983
 Alpha  occ. eigenvalues --   -1.10580  -1.06262  -1.05669  -1.04241  -1.04075
 Alpha  occ. eigenvalues --   -1.03311  -1.01518  -0.99827  -0.99563  -0.98771
 Alpha  occ. eigenvalues --   -0.98362  -0.97919  -0.97142  -0.96971  -0.96652
 Alpha  occ. eigenvalues --   -0.87530  -0.86771  -0.83449  -0.82999  -0.82986
 Alpha  occ. eigenvalues --   -0.82824  -0.82618  -0.82371  -0.81853  -0.81390
 Alpha  occ. eigenvalues --   -0.81226  -0.80968  -0.80393  -0.79822  -0.78876
 Alpha  occ. eigenvalues --   -0.78709  -0.77967  -0.77952  -0.76843  -0.76769
 Alpha  occ. eigenvalues --   -0.76680  -0.75705  -0.75684  -0.75078  -0.75067
 Alpha  occ. eigenvalues --   -0.74267  -0.73100  -0.72202  -0.72092  -0.71573
 Alpha  occ. eigenvalues --   -0.71542  -0.71297  -0.70561  -0.70175  -0.69494
 Alpha  occ. eigenvalues --   -0.69470  -0.67209  -0.67046  -0.66242  -0.66156
 Alpha  occ. eigenvalues --   -0.63835  -0.63650  -0.63276  -0.63244  -0.62692
 Alpha  occ. eigenvalues --   -0.62341  -0.61320  -0.60587  -0.60065  -0.59886
 Alpha  occ. eigenvalues --   -0.59685  -0.59414  -0.59140  -0.59081  -0.58837
 Alpha  occ. eigenvalues --   -0.58726  -0.57263  -0.55972  -0.55042  -0.54371
 Alpha  occ. eigenvalues --   -0.54255  -0.54158  -0.53727  -0.53563  -0.53417
 Alpha  occ. eigenvalues --   -0.53068  -0.52545  -0.52338  -0.51831  -0.51663
 Alpha  occ. eigenvalues --   -0.51356  -0.50944  -0.50543  -0.50302  -0.49730
 Alpha  occ. eigenvalues --   -0.49452  -0.49348  -0.49328  -0.49168  -0.49054
 Alpha  occ. eigenvalues --   -0.48373  -0.48115  -0.47801  -0.47761  -0.47416
 Alpha  occ. eigenvalues --   -0.47337  -0.47169  -0.47108  -0.46880  -0.46705
 Alpha  occ. eigenvalues --   -0.46488  -0.46246  -0.45881  -0.45848  -0.45709
 Alpha  occ. eigenvalues --   -0.45580  -0.45457  -0.45405  -0.45044  -0.44783
 Alpha  occ. eigenvalues --   -0.44618  -0.44534  -0.44250  -0.44027  -0.43929
 Alpha  occ. eigenvalues --   -0.43907  -0.43746  -0.43665  -0.43571  -0.43437
 Alpha  occ. eigenvalues --   -0.43236  -0.43190  -0.43038  -0.42832  -0.42787
 Alpha  occ. eigenvalues --   -0.42623  -0.42388  -0.42116  -0.41895  -0.41777
 Alpha  occ. eigenvalues --   -0.41558  -0.41518  -0.41318  -0.41189  -0.41107
 Alpha  occ. eigenvalues --   -0.40949  -0.40818  -0.40760  -0.40669  -0.40585
 Alpha  occ. eigenvalues --   -0.40344  -0.40229  -0.39896  -0.39879  -0.39800
 Alpha  occ. eigenvalues --   -0.39654  -0.39544  -0.39529  -0.39210  -0.39144
 Alpha  occ. eigenvalues --   -0.39021  -0.38842  -0.38495  -0.38443  -0.38098
 Alpha  occ. eigenvalues --   -0.38047  -0.38006  -0.37892  -0.37670  -0.37641
 Alpha  occ. eigenvalues --   -0.37516  -0.37509  -0.36991  -0.36747  -0.36648
 Alpha  occ. eigenvalues --   -0.36617  -0.36476  -0.36298  -0.36110  -0.36063
 Alpha  occ. eigenvalues --   -0.35963  -0.35788  -0.35526  -0.35263  -0.35109
 Alpha  occ. eigenvalues --   -0.35063  -0.34504  -0.34431  -0.34244  -0.34183
 Alpha  occ. eigenvalues --   -0.33728  -0.33240  -0.32696  -0.32275  -0.32142
 Alpha  occ. eigenvalues --   -0.32097  -0.31890  -0.31691  -0.31315  -0.31279
 Alpha  occ. eigenvalues --   -0.31152  -0.30958  -0.29456  -0.29413  -0.29224
 Alpha  occ. eigenvalues --   -0.29063  -0.28494  -0.27853  -0.26585  -0.26448
 Alpha  occ. eigenvalues --   -0.26036  -0.25973  -0.25373  -0.25339  -0.25316
 Alpha  occ. eigenvalues --   -0.25166  -0.24704  -0.24647  -0.21090  -0.20682
 Alpha  occ. eigenvalues --   -0.18743  -0.18672
 Alpha virt. eigenvalues --   -0.11202  -0.10946  -0.05344  -0.04974  -0.03905
 Alpha virt. eigenvalues --   -0.03563  -0.01693  -0.01583   0.00051   0.00591
 Alpha virt. eigenvalues --    0.00843   0.01123   0.01257   0.01376   0.01539

 Mulliken charges:
               1
     1  Mg  11.997181
     2  C    5.983496
     3  C    6.014533
     4  C    6.014775
     5  C    5.990408
     6  N    6.995033
     7  C    6.031744
     8  C    5.993462
     9  C    6.006512
    10  C    5.972920
    11  C    6.001025
    12  C    5.995238
    13  C    6.001790
    14  H    0.998833
    15  N    7.003815
    16  C    5.965753
    17  C    5.972226
    18  C    5.991826
    19  C    5.968139
    20  C    6.004504
    21  C    5.988361
    22  O    7.979075
    23  C    6.006955
    24  N    7.003769
    25  C    5.959784
    26  C    6.008612
    27  C    5.986656
    28  C    6.035029
    29  C    6.002300
    30  C    5.997257
    31  C    5.999674
    32  N    6.997670
    33  C    6.030026
    34  C    6.030506
    35  C    6.002822
    36  C    6.029061
    37  C    5.999092
    38  C    6.016392
    39  O    8.029644
    40  C    6.002891
    41  C    6.003374
    42  O    8.004778
    43  O    8.001115
    44  C    5.999173
    45  H    0.991755
    46  H    0.991090
    47  H    1.010889
    48  H    0.999189
    49  H    1.000573
    50  H    1.004380
    51  H    0.999751
    52  H    0.988234
    53  H    1.006059
    54  H    0.994546
    55  H    1.006370
    56  H    1.002151
    57  H    0.980446
    58  H    0.978970
    59  H    0.980717
    60  H    0.995168
    61  H    0.986670
    62  H    0.992718
    63  H    1.000886
    64  H    1.001927
    65  H    0.998358
    66  H    1.003151
    67  H    0.988061
    68  H    0.997123
    69  H    1.011146
    70  H    0.995847
    71  H    1.005310
    72  H    1.001821
    73  H    1.017766
    74  H    1.013087
    75  H    1.020164
    76  H    1.007025
    77  H    1.003391
    78  H    1.001716
    79  H    1.006315
    80  Mg  12.000150
    81  C    6.000797
    82  C    5.998338
    83  C    5.999175
    84  C    6.001938
    85  N    6.999640
    86  C    5.997403
    87  C    6.000539
    88  C    5.999009
    89  C    6.003856
    90  C    5.999941
    91  C    6.000216
    92  C    6.000091
    93  H    0.999737
    94  N    6.999205
    95  C    6.004276
    96  C    6.001495
    97  C    6.001717
    98  C    6.002766
    99  C    5.999682
   100  C    6.001490
   101  O    8.002585
   102  C    5.999343
   103  N    7.000601
   104  C    6.003029
   105  C    5.998959
   106  C    6.000975
   107  C    5.996603
   108  C    5.999386
   109  C    6.000171
   110  C    6.000645
   111  N    7.000216
   112  C    5.996131
   113  C    5.996885
   114  C    5.999603
   115  C    5.997337
   116  C    6.000244
   117  C    5.998081
   118  O    7.996695
   119  C    6.000344
   120  C    5.999469
   121  O    7.999422
   122  O    7.999837
   123  C    6.000437
   124  H    1.001079
   125  H    1.000813
   126  H    0.999272
   127  H    0.999941
   128  H    1.000276
   129  H    1.001346
   130  H    0.999648
   131  H    1.000318
   132  H    0.998719
   133  H    1.000494
   134  H    0.999566
   135  H    1.000340
   136  H    1.001754
   137  H    1.001792
   138  H    1.001763
   139  H    1.000617
   140  H    1.000931
   141  H    1.001597
   142  H    1.000124
   143  H    0.999975
   144  H    1.001255
   145  H    1.000498
   146  H    0.999783
   147  H    0.999100
   148  H    0.999934
   149  H    0.999097
   150  H    0.999464
   151  H    1.000516
   152  H    0.998085
   153  H    0.998317
   154  H    0.997767
   155  H    0.998780
   156  H    0.999788
   157  H    0.999387
   158  H    0.999410
 Sum of Mulliken charges = 624.00000

 Dipole moment (field-independent basis, Debye):
    X=              8.2002    Y=              0.8518    Z=              7.6250  Tot=             11.2299
 Quadrupole moment (field-independent basis, Debye-Ang):
   XX=           -162.6379   YY=              2.0226   ZZ=              1.1562
   XY=            -21.3370   XZ=            -98.5638   YZ=             -3.7804

 Normal termination of Gaussian 16 at Fri Oct 15 06:31:37 2021.
