 Gaussian 16, Revision A.03,
 Gaussian 16:  ES64L-G16RevA.03 25-Dec-2016

 --------------------------------------------------------
 #p PBE1PBE/Def2SVP td=(nstates=5) density=(transition=1)
 --------------------------------------------------------

 --------------------------------
 TDDFT excited states in gaussian
 --------------------------------
 Symbolic Z-matrix:
 Charge =  0 Multiplicity = 1

                         Standard orientation:
 ---------------------------------------------------------------------
 Center     Atomic      Atomic             Coordinates (Angstroms)
 Number     Number       Type             X           Y           Z
 ---------------------------------------------------------------------
      1         12           0      -25.157822   -0.649880   -0.385420
      2          6           0      -25.463296    2.107730    1.714933
      3          6           0      -25.051827    1.384644   -3.068870
      4          6           0      -25.320964   -3.392900   -2.353846
      5          6           0      -25.762827   -2.661144    2.349278
      6          7           0      -25.270572    1.551520   -0.614517
      7          6           0      -25.182007    2.471977    0.398631
      8          6           0      -25.061243    3.840234   -0.156344
      9          6           0      -24.981412    3.686626   -1.679629
     10          6           0      -25.085317    2.111480   -1.864185
     11          6           0      -25.942122    4.480312   -2.551413
     12          6           0      -23.798509    4.641074    0.499596
     13          6           0      -24.102312    5.927369    1.302971
     14          1           0      -23.205868    7.136445    1.196090
     15          7           0      -25.061599   -0.971018   -2.413682
     16          6           0      -25.035514    0.013187   -3.390361
     17          6           0      -25.045975   -0.589963   -4.673304
     18          6           0      -25.129470   -1.997841   -4.497491
     19          6           0      -25.153979   -2.174297   -3.041850
     20          6           0      -24.848600    0.335201   -5.937248
     21          6           0      -25.250459   -3.021791   -5.624769
     22          8           0      -25.401778   -4.243341   -5.472023
     23          6           0      -25.104189   -2.587123   -7.016601
     24          7           0      -25.735809   -2.738210   -0.131326
     25          6           0      -25.614963   -3.678755   -1.045229
     26          6           0      -26.057290   -5.051147   -0.489339
     27          6           0      -25.683800   -4.792404    1.023402
     28          6           0      -25.699543   -3.269252    1.104730
     29          6           0      -27.552031   -5.526302   -0.616791
     30          6           0      -24.294596   -5.400715    1.544456
     31          6           0      -23.052599   -4.967988    0.879431
     32          7           0      -25.600337   -0.418250    1.704087
     33          6           0      -25.814900   -1.362541    2.727157
     34          6           0      -26.036356   -0.679865    3.961938
     35          6           0      -25.979708    0.659420    3.631279
     36          6           0      -25.602726    0.764048    2.252314
     37          6           0      -26.514880   -1.268114    5.197927
     38          6           0      -25.918143    1.933326    4.176066
     39          8           0      -26.066653    2.340898    5.332728
     40          6           0      -25.682158    2.964541    2.980293
     41          6           0      -26.965931    3.714679    2.845108
     42          8           0      -28.097823    3.345018    2.612921
     43          8           0      -26.645476    4.989304    3.074687
     44          6           0      -27.767459    5.978696    2.969088
     45          1           0      -24.801527    2.134776   -3.821901
     46          1           0      -25.212505   -4.253356   -3.016344
     47          1           0      -25.887318   -3.313449    3.215901
     48          1           0      -25.986371    4.337992    0.131643
     49          1           0      -23.975620    3.948115   -2.007682
     50          1           0      -26.690437    3.694374   -2.646486
     51          1           0      -25.527128    4.868894   -3.481575
     52          1           0      -26.445171    5.356363   -2.142955
     53          1           0      -23.082439    4.867985   -0.289695
     54          1           0      -23.272457    4.073907    1.267922
     55          1           0      -24.007827    5.651798    2.353719
     56          1           0      -25.141757    6.236829    1.202352
     57          1           0      -25.654993    0.131383   -6.641472
     58          1           0      -23.933397   -0.134845   -6.297399
     59          1           0      -24.896769    1.415736   -5.801882
     60          1           0      -25.833407   -1.817265   -7.265078
     61          1           0      -25.490467   -3.408700   -7.619378
     62          1           0      -24.086558   -2.346264   -7.325103
     63          1           0      -25.320024   -5.794095   -0.793912
     64          1           0      -26.484444   -5.289723    1.570372
     65          1           0      -28.308079   -4.758099   -0.458951
     66          1           0      -27.605077   -6.320955    0.128265
     67          1           0      -27.742139   -5.939111   -1.607876
     68          1           0      -24.246302   -6.487608    1.473507
     69          1           0      -24.046086   -5.021481    2.535638
     70          1           0      -22.842191   -4.009957    1.352763
     71          1           0      -23.057520   -4.788732   -0.196149
     72          1           0      -22.151390   -5.563055    1.023445
     73          1           0      -27.594144   -1.324978    5.051372
     74          1           0      -26.309035   -0.694571    6.101224
     75          1           0      -26.043584   -2.222524    5.435164
     76          1           0      -24.801294    3.591907    3.117068
     77          1           0      -27.580749    6.496089    2.027788
     78          1           0      -27.758880    6.637392    3.837209
     79          1           0      -28.779406    5.582230    2.881500
     80         12           0       25.048251   -0.683170    0.372328
     81          6           0       25.822279    1.996446   -1.907877
     82          6           0       23.961079    1.565232    2.590107
     83          6           0       25.206063   -3.106966    2.681236
     84          6           0       26.660410   -2.827410   -1.887635
     85          7           0       24.969048    1.490495    0.345514
     86          6           0       25.143883    2.377680   -0.730230
     87          6           0       24.610964    3.818840   -0.378642
     88          6           0       24.092730    3.638002    1.080226
     89          6           0       24.298233    2.123587    1.349874
     90          6           0       24.724084    4.492347    2.150034
     91          6           0       23.519444    4.362553   -1.447375
     92          6           0       23.818846    5.744123   -2.042165
     93          1           0       22.683899    6.806311   -1.795164
     94          7           0       24.503854   -0.790601    2.341588
     95          6           0       24.084950    0.226754    3.100991
     96          6           0       23.823077   -0.199751    4.476714
     97          6           0       24.287937   -1.559893    4.506059
     98          6           0       24.713644   -1.886072    3.140971
     99          6           0       23.257976    0.683835    5.504412
    100          6           0       24.388532   -2.414148    5.808729
    101          8           0       24.726126   -3.585969    5.788556
    102          6           0       24.056762   -1.869855    7.161522
    103          7           0       25.800059   -2.614810    0.371815
    104          6           0       25.626515   -3.482064    1.445099
    105          6           0       26.133829   -4.918918    1.092588
    106          6           0       26.260495   -4.867492   -0.475736
    107          6           0       26.185315   -3.358688   -0.708591
    108          6           0       27.361339   -5.474835    1.885423
    109          6           0       25.126944   -5.614544   -1.230488
    110          6           0       25.477676   -6.403229   -2.466886
    111          7           0       26.090956   -0.486845   -1.490223
    112          6           0       26.679417   -1.443778   -2.267371
    113          6           0       27.107030   -0.803476   -3.587215
    114          6           0       26.745195    0.519479   -3.506019
    115          6           0       26.196145    0.681544   -2.187860
    116          6           0       27.692337   -1.600930   -4.730424
    117          6           0       26.734811    1.817878   -4.156059
    118          8           0       27.175405    2.028341   -5.305443
    119          6           0       26.192072    2.917208   -3.062061
    120          6           0       27.226261    3.927072   -2.610204
    121          8           0       28.324744    3.555261   -2.152006
    122          8           0       26.873030    5.237132   -2.936370
    123          6           0       28.014094    6.144235   -2.895223
    124          1           0       23.491817    2.227945    3.319930
    125          1           0       25.162180   -3.852382    3.477612
    126          1           0       27.037636   -3.575969   -2.588170
    127          1           0       25.513029    4.425641   -0.454721
    128          1           0       23.080399    4.044039    1.062546
    129          1           0       25.528132    5.125767    1.775113
    130          1           0       25.232790    3.713958    2.717733
    131          1           0       24.011853    5.141414    2.660375
    132          1           0       22.595762    4.353807   -0.869394
    133          1           0       23.369341    3.604714   -2.215843
    134          1           0       24.043072    5.585728   -3.097026
    135          1           0       24.716393    6.148360   -1.572338
    136          1           0       23.788134    0.840836    6.443246
    137          1           0       22.412269    0.124859    5.903325
    138          1           0       22.783420    1.592486    5.133290
    139          1           0       23.006170   -1.583518    7.099827
    140          1           0       24.632653   -0.950991    7.275203
    141          1           0       24.304181   -2.663178    7.865764
    142          1           0       25.287433   -5.557312    1.346014
    143          1           0       27.245788   -5.167206   -0.831988
    144          1           0       27.536130   -4.729015    2.660527
    145          1           0       28.234067   -5.688002    1.268826
    146          1           0       27.101523   -6.348146    2.484970
    147          1           0       24.519702   -4.743148   -1.474739
    148          1           0       24.511540   -6.263087   -0.606639
    149          1           0       24.913949   -7.332937   -2.388840
    150          1           0       26.532827   -6.673801   -2.517760
    151          1           0       25.018129   -5.870081   -3.299521
    152          1           0       27.766873   -2.634983   -4.394344
    153          1           0       28.716341   -1.263189   -4.888375
    154          1           0       27.098097   -1.440712   -5.629814
    155          1           0       25.301472    3.394294   -3.471120
    156          1           0       28.343734    6.522559   -3.861859
    157          1           0       28.889828    5.736343   -2.390229
    158          1           0       27.697255    6.999619   -2.299092
 ---------------------------------------------------------------------

 SCF Done:  E(RPBE1PBE) =  -4067.34221706     A.U. after   17 cycles

 Excitation energies and oscillator strengths:

 Excited State   1:      Singlet-A      1.8354 eV  675.53 nm  f=0.0000  <S**2>=0.000
     312 -> 313        0.70711
 This state for optimization and/or second-order correction.
 Total Energy, E(TD-HF/TD-DFT) =  -4067.27476877
 Copying the excited state density for this state as the 1-particle RhoCI density.

 Excited State   2:      Singlet-A      1.8518 eV  669.54 nm  f=0.3832  <S**2>=0.000
     309 -> 316        0.16661
     312 -> 314        0.69595
     312 <- 314       -0.11420

 Excited State   3:      Singlet-A      1.8587 eV  667.05 nm  f=0.3717  <S**2>=0.000
     310 -> 315        0.16377
     311 -> 313        0.69219
     311 <- 313       -0.10759

 Excited State   4:      Singlet-A      2.1488 eV  577.00 nm  f=0.0000  <S**2>=0.000
     311 -> 314        0.70711

 Excited State   5:      Singlet-A      2.1770 eV  569.51 nm  f=0.1428  <S**2>=0.000
     310 -> 313        0.66023
     311 -> 315       -0.23475

 The electronic state is 1-A.
 Alpha  occ. eigenvalues --  -46.92759 -46.91829 -19.27256 -19.25711 -19.20987
 Alpha  occ. eigenvalues --  -19.20054 -19.19330 -19.18930 -19.18894 -19.18497
 Alpha  occ. eigenvalues --  -14.42086 -14.41664 -14.41253 -14.41248 -14.39410
 Alpha  occ. eigenvalues --  -14.39289 -14.39093 -14.38640 -10.37757 -10.35632
 Alpha  occ. eigenvalues --  -10.33571 -10.32238 -10.32212 -10.31304 -10.29307
 Alpha  occ. eigenvalues --  -10.29238 -10.28958 -10.28938 -10.28917 -10.28819
 Alpha  occ. eigenvalues --  -10.28394 -10.28276 -10.28039 -10.28029 -10.27986
 Alpha  occ. eigenvalues --  -10.27860 -10.27628 -10.27541 -10.27460 -10.27395
 Alpha  occ. eigenvalues --  -10.26824 -10.26741 -10.26652 -10.26491 -10.26462
 Alpha  occ. eigenvalues --  -10.26417 -10.26398 -10.26383 -10.26379 -10.26096
 Alpha  occ. eigenvalues --  -10.25838 -10.25835 -10.25791 -10.25704 -10.25652
 Alpha  occ. eigenvalues --  -10.25565 -10.25540 -10.25368 -10.25367 -10.25290
 Alpha  occ. eigenvalues --  -10.25227 -10.25158 -10.25134 -10.25047 -10.24936
 Alpha  occ. eigenvalues --  -10.24892 -10.24652 -10.24638 -10.24167 -10.24038
 Alpha  occ. eigenvalues --  -10.24007 -10.23991 -10.23773 -10.23550 -10.23546
 Alpha  occ. eigenvalues --  -10.23480 -10.23429 -10.23402 -10.23316 -10.23072
 Alpha  occ. eigenvalues --  -10.23006 -10.22956 -10.22910 -10.22861 -10.22367
 Alpha  occ. eigenvalues --  -10.22148  -3.14753  -3.14055  -1.87596  -1.87104
 Alpha  occ. eigenvalues --   -1.86991  -1.86877  -1.86413  -1.86305  -1.11805
 Alpha  occ. eigenvalues --   -1.11010  -1.04978  -1.03882  -1.03663  -1.03323
 Alpha  occ. eigenvalues --   -1.02657  -1.02197  -1.00060  -0.98955  -0.98593
 Alpha  occ. eigenvalues --   -0.98085  -0.98006  -0.97344  -0.97257  -0.96543
 Alpha  occ. eigenvalues --   -0.86896  -0.86585  -0.83546  -0.83454  -0.83068
 Alpha  occ. eigenvalues --   -0.83023  -0.82721  -0.82401  -0.82294  -0.81971
 Alpha  occ. eigenvalues --   -0.81646  -0.81587  -0.81187  -0.80409  -0.78971
 Alpha  occ. eigenvalues --   -0.78593  -0.78567  -0.77932  -0.77394  -0.76994
 Alpha  occ. eigenvalues --   -0.76272  -0.76185  -0.75864  -0.75514  -0.75111
 Alpha  occ. eigenvalues --   -0.74569  -0.73109  -0.72836  -0.72003  -0.71923
 Alpha  occ. eigenvalues --   -0.71738  -0.71224  -0.70496  -0.70326  -0.69723
 Alpha  occ. eigenvalues --   -0.69158  -0.67950  -0.66868  -0.66170  -0.65466
 Alpha  occ. eigenvalues --   -0.63805  -0.63503  -0.63433  -0.62805  -0.62205
 Alpha  occ. eigenvalues --   -0.62194  -0.61604  -0.61208  -0.60300  -0.59941
 Alpha  occ. eigenvalues --   -0.59768  -0.59493  -0.59428  -0.59356  -0.58909
 Alpha  occ. eigenvalues --   -0.58516  -0.57155  -0.56648  -0.55038  -0.54931
 Alpha  occ. eigenvalues --   -0.54516  -0.54292  -0.53910  -0.53305  -0.53286
 Alpha  occ. eigenvalues --   -0.53149  -0.52913  -0.52851  -0.52404  -0.51968
 Alpha  occ. eigenvalues --   -0.51067  -0.50873  -0.50281  -0.50127  -0.49944
 Alpha  occ. eigenvalues --   -0.49661  -0.49649  -0.49377  -0.49335  -0.49221
 Alpha  occ. eigenvalues --   -0.48390  -0.48177  -0.47931  -0.47844  -0.47718
 Alpha  occ. eigenvalues --   -0.47476  -0.47310  -0.47240  -0.46899  -0.46761
 Alpha  occ. eigenvalues --   -0.46517  -0.46447  -0.46214  -0.46062  -0.45936
 Alpha  occ. eigenvalues --   -0.45878  -0.45728  -0.45714  -0.45328  -0.45016
 Alpha  occ. eigenvalues --   -0.44915  -0.44446  -0.44347  -0.44151  -0.44150
 Alpha  occ. eigenvalues --   -0.43963  -0.43873  -0.43859  -0.43625  -0.43416
 Alpha  occ. eigenvalues --   -0.43312  -0.43182  -0.43004  -0.42997  -0.42815
 Alpha  occ. eigenvalues --   -0.42749  -0.42631  -0.42006  -0.41924  -0.41800
 Alpha  occ. eigenvalues --   -0.41714  -0.41559  -0.41531  -0.41426  -0.41192
 Alpha  occ. eigenvalues --   -0.41005  -0.40824  -0.40781  -0.40703  -0.40554
 Alpha  occ. eigenvalues --   -0.40450  -0.40104  -0.40104  -0.39436  -0.39332
 Alpha  occ. eigenvalues --   -0.39164  -0.39116  -0.39034  -0.38905  -0.38880
 Alpha  occ. eigenvalues --   -0.38873  -0.38620  -0.38563  -0.38440  -0.38207
 Alpha  occ. eigenvalues --   -0.38072  -0.37935  -0.37850  -0.37787  -0.37628
 Alpha  occ. eigenvalues --   -0.37477  -0.37325  -0.37053  -0.36977  -0.36744
 Alpha  occ. eigenvalues --   -0.36647  -0.36595  -0.36460  -0.36017  -0.35979
 Alpha  occ. eigenvalues --   -0.35822  -0.35677  -0.35608  -0.35539  -0.35124
 Alpha  occ. eigenvalues --   -0.35093  -0.34441  -0.34403  -0.34078  -0.33907
 Alpha  occ. eigenvalues --   -0.33314  -0.33085  -0.33072  -0.32830  -0.32714
 Alpha  occ. eigenvalues --   -0.32482  -0.32278  -0.32066  -0.31535  -0.31399
 Alpha  occ. eigenvalues --   -0.31203  -0.31154  -0.29834  -0.29708  -0.29655
 Alpha  occ. eigenvalues --   -0.29226  -0.29010  -0.28560  -0.27136  -0.27103
 Alpha  occ. eigenvalues --   -0.26378  -0.26201  -0.25896  -0.25822  -0.25755
 Alpha  occ. eigenvalues --   -0.25625  -0.25452  -0.25264  -0.21080  -0.20997
 Alpha  occ. eigenvalues --   -0.19104  -0.18468
 Alpha virt. eigenvalues --   -0.11465  -0.10949  -0.05190  -0.04863  -0.04300
 Alpha virt. eigenvalues --   -0.03945  -0.02275  -0.02154  -0.01711  -0.00820
 Alpha virt. eigenvalues --   -0.00630   0.00345   0.01006   0.01276   0.01899

 Mulliken charges:
               1
     1  Mg  12.000000
     2  C    6.000000
     3  C    6.000000
     4  C    6.000000
     5  C    6.000000
     6  N    7.000000
     7  C    6.000000
     8  C    6.000000
     9  C    6.000000
    10  C    6.000000
    11  C    6.000000
    12  C    6.000000
    13  C    6.000000
    14  H    1.000000
    15  N    7.000000
    16  C    6.000000
    17  C    6.000000
    18  C    6.000000
    19  C    6.000000
    20  C    6.000000
    21  C    6.000000
    22  O    8.000000
    23  C    6.000000
    24  N    7.000000
    25  C    6.000000
    26  C    6.000000
    27  C    6.000000
    28  C    6.000000
    29  C    6.000000
    30  C    6.000000
    31  C    6.000000
    32  N    7.000000
    33  C    6.000000
    34  C    6.000000
    35  C    6.000000
    36  C    6.000000
    37  C    6.000000
    38  C    6.000000
    39  O    8.000000
    40  C    6.000000
    41  C    6.000000
    42  O    8.000000
    43  O    8.000000
    44  C    6.000000
    45  H    1.000000
    46  H    1.000000
    47  H    1.000000
    48  H    1.000000
    49  H    1.000000
    50  H    1.000000
    51  H    1.000000
    52  H    1.000000
    53  H    1.000000
    54  H    1.000000
    55  H    1.000000
    56  H    1.000000
    57  H    1.000000
    58  H    1.000000
    59  H    1.000000
    60  H    1.000000
    61  H    1.000000
    62  H    1.000000
    63  H    1.000000
    64  H    1.000000
    65  H    1.000000
    66  H    1.000000
    67  H    1.000000
    68  H    1.000000
    69  H    1.000000
    70  H    1.000000
    71  H    1.000000
    72  H    1.000000
    73  H    1.000000
    74  H    1.000000
    75  H    1.000000
    76  H    1.000000
    77  H    1.000000
    78  H    1.000000
    79  H    1.000000
    80  Mg  12.000000
    81  C    6.000000
    82  C    6.000000
    83  C    6.000000
    84  C    6.000000
    85  N    7.000000
    86  C    6.000000
    87  C    6.000000
    88  C    6.000000
    89  C    6.000000
    90  C    6.000000
    91  C    6.000000
    92  C    6.000000
    93  H    1.000000
    94  N    7.000000
    95  C    6.000000
    96  C    6.000000
    97  C    6.000000
    98  C    6.000000
    99  C    6.000000
   100  C    6.000000
   101  O    8.000000
   102  C    6.000000
   103  N    7.000000
   104  C    6.000000
   105  C    6.000000
   106  C    6.000000
   107  C    6.000000
   108  C    6.000000
   109  C    6.000000
   110  C    6.000000
   111  N    7.000000
   112  C    6.000000
   113  C    6.000000
   114  C    6.000000
   115  C    6.000000
   116  C    6.000000
   117  C    6.000000
   118  O    8.000000
   119  C    6.000000
   120  C    6.000000
   121  O    8.000000
   122  O    8.000000
   123  C    6.000000
   124  H    1.000000
   125  H    1.000000
   126  H    1.000000
   127  H    1.000000
   128  H    1.000000
   129  H    1.000000
   130  H    1.000000
   131  H    1.000000
   132  H    1.000000
   133  H    1.000000
   134  H    1.000000
   135  H    1.000000
   136  H    1.000000
   137  H    1.000000
   138  H    1.000000
   139  H    1.000000
   140  H    1.000000
   141  H    1.000000
   142  H    1.000000
   143  H    1.000000
   144  H    1.000000
   145  H    1.000000
   146  H    1.000000
   147  H    1.000000
   148  H    1.000000
   149  H    1.000000
   150  H    1.000000
   151  H    1.000000
   152  H    1.000000
   153  H    1.000000
   154  H    1.000000
   155  H    1.000000
   156  H    1.000000
   157  H    1.000000
   158  H    1.000000
 Sum of Mulliken charges = 624.00000

 Dipole moment (field-independent basis, Debye):
    X=              0.0000    Y=              0.0000    Z=              0.0000  Tot=              0.0000
 Quadrupole moment (field-independent basis, Debye-Ang):
   XX=              0.0000   YY=              0.0000   ZZ=             -0.0000
   XY=             -0.0000   XZ=             -0.0000   YZ=             -0.0000

 Normal termination of Gaussian 16 at Thu Oct 14 04:27:20 2021.
