 Gaussian 16, Revision A.03,
 Gaussian 16:  ES64L-G16RevA.03 25-Dec-2016

 --------------------------------------------------------
 #p PBE1PBE/Def2SVP td=(nstates=5) density=(transition=1)
 --------------------------------------------------------

 --------------------------------
 TDDFT excited states in gaussian
 --------------------------------
 Symbolic Z-matrix:
 Charge =  0 Multiplicity = 1

                         Standard orientation:
 ---------------------------------------------------------------------
 Center     Atomic      Atomic             Coordinates (Angstroms)
 Number     Number       Type             X           Y           Z
 ---------------------------------------------------------------------
      1         12           0      -22.077781    0.658407    0.333452
      2          6           0      -21.719321   -2.491313   -1.088050
      3          6           0      -22.315574   -0.970191    3.386450
      4          6           0      -22.937515    3.658839    1.684195
      5          6           0      -21.988199    2.061053   -2.825734
      6          7           0      -22.077494   -1.494586    1.050279
      7          6           0      -21.877368   -2.639282    0.293816
      8          6           0      -21.982981   -3.978618    1.123815
      9          6           0      -22.499743   -3.401952    2.498620
     10          6           0      -22.332011   -1.848738    2.313590
     11          6           0      -23.918532   -3.694921    2.995323
     12          6           0      -20.630140   -4.713069    1.155957
     13          6           0      -20.510886   -5.968119    0.332071
     14          1           0      -19.673222   -7.112790    0.929242
     15          7           0      -22.373742    1.338003    2.269733
     16          6           0      -22.344757    0.504593    3.344100
     17          6           0      -22.623458    1.361336    4.513164
     18          6           0      -22.904553    2.661095    4.063940
     19          6           0      -22.743304    2.633205    2.662133
     20          6           0      -22.468442    0.845057    5.886049
     21          6           0      -23.330055    3.878872    4.830689
     22          8           0      -23.444244    5.023613    4.310938
     23          6           0      -23.681860    3.866562    6.215805
     24          7           0      -22.328890    2.551028   -0.421385
     25          6           0      -22.654511    3.641397    0.325350
     26          6           0      -22.796718    4.880930   -0.467106
     27          6           0      -22.434902    4.404044   -1.919517
     28          6           0      -22.306847    2.941069   -1.716733
     29          6           0      -24.089301    5.749121   -0.469523
     30          6           0      -21.185127    5.152614   -2.600797
     31          6           0      -19.706042    4.725396   -2.364302
     32          7           0      -21.936489   -0.000830   -1.586374
     33          6           0      -21.874145    0.678860   -2.768690
     34          6           0      -21.534478   -0.192009   -3.807644
     35          6           0      -21.556664   -1.488731   -3.163597
     36          6           0      -21.777860   -1.299832   -1.813938
     37          6           0      -21.212506    0.156228   -5.259711
     38          6           0      -21.274352   -2.870873   -3.425269
     39          8           0      -20.871071   -3.491589   -4.387777
     40          6           0      -21.608136   -3.615536   -2.085236
     41          6           0      -22.865879   -4.374491   -2.232652
     42          8           0      -23.947911   -4.140401   -1.650707
     43          8           0      -22.802259   -5.398664   -3.111337
     44          6           0      -23.928343   -6.391466   -3.178981
     45          1           0      -22.453549   -1.492630    4.334713
     46          1           0      -23.245320    4.640689    2.050330
     47          1           0      -21.777726    2.442995   -3.827370
     48          1           0      -22.858409   -4.566243    0.845388
     49          1           0      -21.779829   -3.741033    3.243438
     50          1           0      -24.523902   -2.788877    2.959609
     51          1           0      -23.830990   -3.875362    4.065700
     52          1           0      -24.438466   -4.505397    2.483375
     53          1           0      -20.504473   -5.025822    2.193197
     54          1           0      -19.845686   -3.987679    0.940227
     55          1           0      -20.055049   -5.690938   -0.618812
     56          1           0      -21.453710   -6.427125    0.034259
     57          1           0      -21.673376    1.449212    6.321140
     58          1           0      -22.234114   -0.208509    6.043711
     59          1           0      -23.383706    1.027519    6.449107
     60          1           0      -24.317705    2.990455    6.340497
     61          1           0      -24.035882    4.846154    6.534401
     62          1           0      -22.822146    3.615765    6.837221
     63          1           0      -21.985363    5.459337   -0.026203
     64          1           0      -23.300618    4.536846   -2.567294
     65          1           0      -23.924217    6.730426   -0.024590
     66          1           0      -24.876168    5.285874    0.126707
     67          1           0      -24.532037    5.864330   -1.458807
     68          1           0      -21.270017    6.155924   -2.182805
     69          1           0      -21.495365    5.141384   -3.645763
     70          1           0      -19.570684    3.785025   -1.830622
     71          1           0      -19.039059    5.498965   -1.982682
     72          1           0      -19.315512    4.603521   -3.373763
     73          1           0      -21.860871   -0.372865   -5.958911
     74          1           0      -20.202497   -0.198482   -5.464406
     75          1           0      -21.195135    1.224567   -5.476840
     76          1           0      -20.864728   -4.402890   -1.959482
     77          1           0      -23.392275   -7.156068   -3.741398
     78          1           0      -24.827266   -6.037336   -3.682520
     79          1           0      -24.202317   -6.705323   -2.171264
     80         12           0       21.813301    0.638387   -0.340078
     81          6           0       23.656926   -2.162904    1.024543
     82          6           0       20.163546   -1.551724   -2.048617
     83          6           0       20.447505    3.330122   -1.663599
     84          6           0       24.288391    2.923820    1.023875
     85          7           0       21.848079   -1.658378   -0.378116
     86          6           0       22.648406   -2.610236    0.218785
     87          6           0       22.265801   -3.970140   -0.242894
     88          6           0       21.499635   -3.702250   -1.563822
     89          6           0       21.171540   -2.203624   -1.365153
     90          6           0       22.338855   -3.916606   -2.842514
     91          6           0       21.295290   -4.621594    0.788923
     92          6           0       21.566887   -6.132940    1.151791
     93          1           0       20.977962   -6.744162    2.485058
     94          7           0       20.379583    0.825390   -1.711018
     95          6           0       19.723084   -0.173909   -2.237421
     96          6           0       18.658010    0.367751   -3.060162
     97          6           0       18.702588    1.760922   -2.817728
     98          6           0       19.894783    2.013662   -2.054809
     99          6           0       17.676400   -0.561543   -3.796952
    100          6           0       17.726163    2.785569   -3.324383
    101          8           0       17.887702    3.943310   -3.077593
    102          6           0       16.501992    2.330143   -4.049556
    103          7           0       22.526627    2.850511   -0.520062
    104          6           0       21.615774    3.690136   -1.007927
    105          6           0       21.926247    5.102276   -0.679954
    106          6           0       23.305692    4.936992    0.032942
    107          6           0       23.436381    3.447924    0.215472
    108          6           0       21.876591    6.156225   -1.843987
    109          6           0       23.355468    5.764925    1.376053
    110          6           0       24.187204    7.076128    1.442389
    111          7           0       23.536003    0.515983    0.739045
    112          6           0       24.406214    1.477351    1.299897
    113          6           0       25.444187    0.793214    2.098409
    114          6           0       25.157294   -0.562653    2.013839
    115          6           0       24.064233   -0.716061    1.177908
    116          6           0       26.674044    1.480536    2.739600
    117          6           0       25.646119   -1.895991    2.491573
    118          8           0       26.533237   -2.246388    3.233466
    119          6           0       24.783938   -3.015917    1.720113
    120          6           0       24.373098   -4.055803    2.590318
    121          8           0       23.281665   -4.030427    3.176127
    122          8           0       25.274506   -5.095992    2.793959
    123          6           0       24.821531   -6.311256    3.537874
    124          1           0       19.503906   -2.183328   -2.646248
    125          1           0       19.956533    4.225604   -2.050020
    126          1           0       25.034439    3.597435    1.448272
    127          1           0       23.158626   -4.536588   -0.508951
    128          1           0       20.598514   -4.291791   -1.731585
    129          1           0       21.892002   -4.690543   -3.467277
    130          1           0       23.333217   -4.223953   -2.519996
    131          1           0       22.485036   -3.020591   -3.446401
    132          1           0       20.311812   -4.551856    0.323795
    133          1           0       21.313342   -3.971326    1.663289
    134          1           0       22.645169   -6.287839    1.125738
    135          1           0       21.119399   -6.653829    0.304473
    136          1           0       16.684797   -0.427055   -3.362874
    137          1           0       17.946692   -1.616588   -3.824228
    138          1           0       17.519500   -0.208420   -4.815760
    139          1           0       15.854100    1.713269   -3.427369
    140          1           0       16.652543    1.656222   -4.892849
    141          1           0       15.905583    3.204647   -4.310831
    142          1           0       21.201174    5.432874    0.063747
    143          1           0       24.103205    5.198529   -0.662861
    144          1           0       21.489915    5.628320   -2.715088
    145          1           0       22.788133    6.718247   -2.050306
    146          1           0       21.182576    6.947256   -1.559384
    147          1           0       23.777256    5.136887    2.161233
    148          1           0       22.318407    5.807632    1.708870
    149          1           0       23.603595    7.860279    1.924408
    150          1           0       24.482767    7.369815    0.435025
    151          1           0       25.083088    6.932782    2.047685
    152          1           0       26.375157    2.486851    3.031681
    153          1           0       27.441489    1.619636    1.977812
    154          1           0       27.052392    0.926291    3.598845
    155          1           0       25.410529   -3.434837    0.933267
    156          1           0       24.019420   -6.822205    3.003414
    157          1           0       24.687323   -6.104056    4.598872
    158          1           0       25.604993   -7.058362    3.411539
 ---------------------------------------------------------------------

 SCF Done:  E(RPBE1PBE) =  -4067.35175329     A.U. after   16 cycles

 Excitation energies and oscillator strengths:

 Excited State   1:      Singlet-A      1.8654 eV  664.65 nm  f=0.3619  <S**2>=0.000
     309 -> 315        0.17012
     312 -> 314        0.69157
     312 <- 314       -0.10904
 This state for optimization and/or second-order correction.
 Total Energy, E(TD-HF/TD-DFT) =  -4067.28320076
 Copying the excited state density for this state as the 1-particle RhoCI density.

 Excited State   2:      Singlet-A      1.8807 eV  659.24 nm  f=0.3724  <S**2>=0.000
     310 -> 316        0.15937
     311 -> 313        0.69568
     311 <- 313       -0.11001

 Excited State   3:      Singlet-A      1.8985 eV  653.06 nm  f=0.0000  <S**2>=0.000
     312 -> 313        0.70711

 Excited State   4:      Singlet-A      2.1071 eV  588.42 nm  f=0.0000  <S**2>=0.000
     311 -> 314        0.70711

 Excited State   5:      Singlet-A      2.2251 eV  557.22 nm  f=0.1289  <S**2>=0.000
     309 -> 314        0.65909
     312 -> 315       -0.23852

 The electronic state is 1-A.
 Alpha  occ. eigenvalues --  -46.92841 -46.90946 -19.24684 -19.24671 -19.20080
 Alpha  occ. eigenvalues --  -19.19238 -19.18801 -19.18518 -19.18513 -19.18180
 Alpha  occ. eigenvalues --  -14.41478 -14.41414 -14.41195 -14.39743 -14.39692
 Alpha  occ. eigenvalues --  -14.39239 -14.39197 -14.38068 -10.35538 -10.35526
 Alpha  occ. eigenvalues --  -10.33339 -10.32029 -10.31599 -10.31364 -10.29231
 Alpha  occ. eigenvalues --  -10.28896 -10.28750 -10.28591 -10.28514 -10.28514
 Alpha  occ. eigenvalues --  -10.28264 -10.28153 -10.28012 -10.27946 -10.27932
 Alpha  occ. eigenvalues --  -10.27800 -10.27691 -10.27525 -10.27470 -10.26663
 Alpha  occ. eigenvalues --  -10.26649 -10.26482 -10.26394 -10.26295 -10.25994
 Alpha  occ. eigenvalues --  -10.25988 -10.25978 -10.25968 -10.25950 -10.25826
 Alpha  occ. eigenvalues --  -10.25761 -10.25645 -10.25465 -10.25417 -10.25343
 Alpha  occ. eigenvalues --  -10.25322 -10.25259 -10.25119 -10.24965 -10.24926
 Alpha  occ. eigenvalues --  -10.24842 -10.24687 -10.24613 -10.24529 -10.24491
 Alpha  occ. eigenvalues --  -10.24441 -10.24362 -10.24324 -10.24276 -10.23937
 Alpha  occ. eigenvalues --  -10.23782 -10.23718 -10.23716 -10.23665 -10.23506
 Alpha  occ. eigenvalues --  -10.23479 -10.23471 -10.23424 -10.23418 -10.23266
 Alpha  occ. eigenvalues --  -10.23181 -10.23167 -10.23145 -10.23020 -10.22911
 Alpha  occ. eigenvalues --  -10.22425  -3.14945  -3.13238  -1.87771  -1.87325
 Alpha  occ. eigenvalues --   -1.87169  -1.86091  -1.85617  -1.85466  -1.09882
 Alpha  occ. eigenvalues --   -1.08966  -1.06710  -1.05821  -1.04335  -1.02614
 Alpha  occ. eigenvalues --   -1.00909  -1.00502  -0.99885  -0.99623  -0.99538
 Alpha  occ. eigenvalues --   -0.99486  -0.98772  -0.97874  -0.96883  -0.95935
 Alpha  occ. eigenvalues --   -0.87495  -0.85715  -0.83551  -0.83281  -0.83252
 Alpha  occ. eigenvalues --   -0.82741  -0.82621  -0.82304  -0.81979  -0.81845
 Alpha  occ. eigenvalues --   -0.81789  -0.81337  -0.80469  -0.79738  -0.78667
 Alpha  occ. eigenvalues --   -0.78637  -0.77946  -0.77399  -0.76985  -0.76719
 Alpha  occ. eigenvalues --   -0.76335  -0.76063  -0.75327  -0.75311  -0.74884
 Alpha  occ. eigenvalues --   -0.74726  -0.72944  -0.72894  -0.71837  -0.71463
 Alpha  occ. eigenvalues --   -0.71149  -0.71081  -0.70522  -0.70520  -0.69748
 Alpha  occ. eigenvalues --   -0.69658  -0.67567  -0.67375  -0.65787  -0.65543
 Alpha  occ. eigenvalues --   -0.64502  -0.63526  -0.63225  -0.63135  -0.62448
 Alpha  occ. eigenvalues --   -0.62410  -0.61696  -0.61514  -0.60491  -0.60081
 Alpha  occ. eigenvalues --   -0.59685  -0.59612  -0.59510  -0.59223  -0.58919
 Alpha  occ. eigenvalues --   -0.58833  -0.56084  -0.55894  -0.55650  -0.54696
 Alpha  occ. eigenvalues --   -0.54504  -0.54187  -0.53728  -0.53668  -0.53274
 Alpha  occ. eigenvalues --   -0.52573  -0.52259  -0.52210  -0.51847  -0.51805
 Alpha  occ. eigenvalues --   -0.51065  -0.50782  -0.50339  -0.50131  -0.50125
 Alpha  occ. eigenvalues --   -0.49475  -0.48932  -0.48573  -0.48449  -0.48409
 Alpha  occ. eigenvalues --   -0.47949  -0.47841  -0.47374  -0.47270  -0.47115
 Alpha  occ. eigenvalues --   -0.47109  -0.47027  -0.47013  -0.46666  -0.46599
 Alpha  occ. eigenvalues --   -0.46518  -0.46364  -0.45981  -0.45672  -0.45417
 Alpha  occ. eigenvalues --   -0.44970  -0.44967  -0.44932  -0.44804  -0.44638
 Alpha  occ. eigenvalues --   -0.44459  -0.44356  -0.44299  -0.44212  -0.44043
 Alpha  occ. eigenvalues --   -0.44008  -0.43863  -0.43612  -0.43549  -0.43452
 Alpha  occ. eigenvalues --   -0.43393  -0.43051  -0.43008  -0.42819  -0.42613
 Alpha  occ. eigenvalues --   -0.42501  -0.42426  -0.42380  -0.42239  -0.42124
 Alpha  occ. eigenvalues --   -0.41903  -0.41441  -0.41191  -0.41145  -0.40999
 Alpha  occ. eigenvalues --   -0.40957  -0.40788  -0.40607  -0.40438  -0.40387
 Alpha  occ. eigenvalues --   -0.40241  -0.40185  -0.40083  -0.39930  -0.39684
 Alpha  occ. eigenvalues --   -0.39629  -0.39595  -0.39401  -0.39086  -0.39053
 Alpha  occ. eigenvalues --   -0.38806  -0.38794  -0.38586  -0.38552  -0.38272
 Alpha  occ. eigenvalues --   -0.38190  -0.38188  -0.37955  -0.37774  -0.37676
 Alpha  occ. eigenvalues --   -0.37673  -0.37359  -0.37326  -0.37165  -0.36743
 Alpha  occ. eigenvalues --   -0.36458  -0.36262  -0.36240  -0.36006  -0.35923
 Alpha  occ. eigenvalues --   -0.35647  -0.35437  -0.35309  -0.35183  -0.35116
 Alpha  occ. eigenvalues --   -0.34853  -0.34814  -0.34781  -0.34611  -0.33831
 Alpha  occ. eigenvalues --   -0.33303  -0.33233  -0.32845  -0.32667  -0.32070
 Alpha  occ. eigenvalues --   -0.31924  -0.31600  -0.31556  -0.31484  -0.31193
 Alpha  occ. eigenvalues --   -0.30702  -0.30530  -0.29541  -0.28807  -0.28791
 Alpha  occ. eigenvalues --   -0.28360  -0.27718  -0.27576  -0.27254  -0.26672
 Alpha  occ. eigenvalues --   -0.26585  -0.26148  -0.26030  -0.25644  -0.25509
 Alpha  occ. eigenvalues --   -0.25215  -0.25028  -0.24900  -0.20621  -0.20539
 Alpha  occ. eigenvalues --   -0.19132  -0.18716
 Alpha virt. eigenvalues --   -0.11439  -0.11094  -0.04889  -0.04038  -0.03523
 Alpha virt. eigenvalues --   -0.03333  -0.02040  -0.01813  -0.00487  -0.00065
 Alpha virt. eigenvalues --    0.00603   0.00829   0.01021   0.01427   0.01916

 Mulliken charges:
               1
     1  Mg  12.000132
     2  C    6.017597
     3  C    5.986239
     4  C    5.982754
     5  C    5.996387
     6  N    7.004877
     7  C    5.974030
     8  C    6.011586
     9  C    5.994458
    10  C    6.025558
    11  C    5.998289
    12  C    6.003782
    13  C    6.001926
    14  H    0.993567
    15  N    6.995735
    16  C    6.039714
    17  C    6.029774
    18  C    6.005894
    19  C    6.032696
    20  C    5.994420
    21  C    6.011507
    22  O    8.024679
    23  C    5.995863
    24  N    6.991573
    25  C    6.037947
    26  C    5.985667
    27  C    6.012707
    28  C    5.967218
    29  C    6.001061
    30  C    6.003866
    31  C    6.001448
    32  N    7.003189
    33  C    5.975644
    34  C    5.971739
    35  C    5.995398
    36  C    5.973692
    37  C    6.001812
    38  C    5.985896
    39  O    7.972418
    40  C    5.995436
    41  C    5.999050
    42  O    7.989518
    43  O    8.001496
    44  C    6.001913
    45  H    1.009723
    46  H    1.007930
    47  H    0.987193
    48  H    0.996346
    49  H    1.000644
    50  H    0.996286
    51  H    0.999113
    52  H    1.011712
    53  H    0.991331
    54  H    0.999574
    55  H    1.005162
    56  H    1.000371
    57  H    1.020301
    58  H    1.019627
    59  H    1.021136
    60  H    1.003437
    61  H    1.013183
    62  H    1.006459
    63  H    0.999822
    64  H    0.999513
    65  H    0.999799
    66  H    0.997188
    67  H    1.009921
    68  H    0.988078
    69  H    1.001485
    70  H    1.000769
    71  H    0.991706
    72  H    1.001619
    73  H    0.982602
    74  H    0.983329
    75  H    0.984340
    76  H    0.991719
    77  H    0.997102
    78  H    0.997274
    79  H    0.994057
    80  Mg  11.999932
    81  C    6.000348
    82  C    6.000116
    83  C    5.999730
    84  C    6.000059
    85  N    7.000314
    86  C    5.999472
    87  C    6.000118
    88  C    5.999872
    89  C    6.000408
    90  C    5.999897
    91  C    6.000064
    92  C    6.000037
    93  H    0.999952
    94  N    6.999832
    95  C    6.000568
    96  C    6.000438
    97  C    6.000172
    98  C    6.000608
    99  C    5.999933
   100  C    6.000295
   101  O    8.000456
   102  C    5.999874
   103  N    6.999991
   104  C    6.000550
   105  C    5.999761
   106  C    6.000199
   107  C    5.999636
   108  C    6.000011
   109  C    6.000050
   110  C    5.999995
   111  N    6.999927
   112  C    5.999314
   113  C    5.999340
   114  C    6.000082
   115  C    5.999367
   116  C    5.999986
   117  C    5.999633
   118  O    7.999531
   119  C    5.999921
   120  C    5.999930
   121  O    7.999821
   122  O    8.000001
   123  C    6.000050
   124  H    1.000274
   125  H    1.000117
   126  H    0.999776
   127  H    1.000040
   128  H    1.000047
   129  H    1.000090
   130  H    1.000278
   131  H    0.999969
   132  H    0.999742
   133  H    1.000060
   134  H    1.000065
   135  H    0.999916
   136  H    1.000389
   137  H    1.000349
   138  H    1.000398
   139  H    1.000150
   140  H    1.000152
   141  H    1.000310
   142  H    1.000001
   143  H    0.999944
   144  H    0.999896
   145  H    1.000154
   146  H    1.000012
   147  H    1.000132
   148  H    0.999833
   149  H    0.999886
   150  H    0.999928
   151  H    1.000043
   152  H    0.999638
   153  H    0.999560
   154  H    0.999650
   155  H    0.999851
   156  H    0.999898
   157  H    0.999939
   158  H    0.999923
 Sum of Mulliken charges = 624.00000

 Dipole moment (field-independent basis, Debye):
    X=             -1.7417    Y=              3.2493    Z=              9.4187  Tot=             10.1145
 Quadrupole moment (field-independent basis, Debye-Ang):
   XX=             62.2089   YY=              0.0406   ZZ=              8.9431
   XY=            -73.7961   XZ=           -215.2722   YZ=              7.6059

 Normal termination of Gaussian 16 at Thu Oct 14 04:09:24 2021.
