 Gaussian 16, Revision A.03,
 Gaussian 16:  ES64L-G16RevA.03 25-Dec-2016

 --------------------------------------------------------
 #p PBE1PBE/Def2SVP td=(nstates=5) density=(transition=1)
 --------------------------------------------------------

 --------------------------------
 TDDFT excited states in gaussian
 --------------------------------
 Symbolic Z-matrix:
 Charge =  0 Multiplicity = 1

                         Standard orientation:
 ---------------------------------------------------------------------
 Center     Atomic      Atomic             Coordinates (Angstroms)
 Number     Number       Type             X           Y           Z
 ---------------------------------------------------------------------
      1         12           0       25.040951   -0.400909   -0.257221
      2          6           0       21.407024   -0.418425   -0.500561
      3          6           0       25.062975    1.714929   -2.961350
      4          6           0       27.984152    0.788133    0.794522
      5          6           0       24.834493   -2.607118    2.318893
      6          7           0       23.360786    0.690661   -1.454103
      7          6           0       21.938938    0.456708   -1.414815
      8          6           0       21.277332    1.147548   -2.610556
      9          6           0       22.460273    1.489856   -3.563614
     10          6           0       23.753183    1.292931   -2.656146
     11          6           0       22.536533    0.547524   -4.856628
     12          6           0       20.300563    2.247814   -2.314410
     13          6           0       20.337308    2.874159   -0.900397
     14          1           0       19.487057    4.052470   -0.391366
     15          7           0       26.429058    0.974542   -1.071271
     16          6           0       26.230340    1.757026   -2.187251
     17          6           0       27.496736    2.505492   -2.460658
     18          6           0       28.258481    2.306727   -1.312003
     19          6           0       27.578590    1.372848   -0.417467
     20          6           0       27.645454    3.334851   -3.686713
     21          6           0       29.624395    2.998178   -1.031205
     22          8           0       30.013978    3.832435   -1.828904
     23          6           0       30.421964    2.824802    0.218696
     24          7           0       26.124998   -0.780895    1.444388
     25          6           0       27.404667   -0.236205    1.545181
     26          6           0       28.167072   -0.842685    2.723232
     27          6           0       27.326170   -2.129850    3.049359
     28          6           0       26.068473   -1.865529    2.218538
     29          6           0       29.672451   -1.166476    2.542448
     30          6           0       27.040921   -2.400612    4.561439
     31          6           0       27.855967   -3.604936    5.221457
     32          7           0       23.478394   -1.417912    0.697193
     33          6           0       23.577717   -2.367889    1.703298
     34          6           0       22.285781   -2.976412    1.905204
     35          6           0       21.446448   -2.174256    1.120197
     36          6           0       22.248011   -1.259762    0.393234
     37          6           0       22.019762   -4.098247    2.923898
     38          6           0       20.100201   -1.968278    0.681561
     39          8           0       19.118694   -2.656293    1.027524
     40          6           0       19.993693   -0.912008   -0.505916
     41          6           0       18.946431    0.030498   -0.064266
     42          8           0       18.867775    0.584016    1.037523
     43          8           0       18.161488    0.267132   -1.143777
     44          6           0       16.910456    1.050008   -0.895366
     45          1           0       25.066855    2.401159   -3.810221
     46          1           0       28.952470    1.176621    1.117651
     47          1           0       24.820084   -3.403775    3.065113
     48          1           0       20.751213    0.275175   -2.998274
     49          1           0       22.511836    2.549479   -3.814520
     50          1           0       22.308368    1.230811   -5.673691
     51          1           0       21.834151   -0.278817   -4.744838
     52          1           0       23.576161    0.224328   -4.920530
     53          1           0       19.319709    1.860243   -2.589154
     54          1           0       20.581321    2.976933   -3.075188
     55          1           0       21.380255    3.156114   -0.752548
     56          1           0       20.081452    2.116207   -0.159757
     57          1           0       27.661319    4.369581   -3.345642
     58          1           0       26.799555    3.127166   -4.341321
     59          1           0       28.545307    3.029715   -4.221959
     60          1           0       29.994682    3.179858    1.155722
     61          1           0       31.342845    3.407204    0.213587
     62          1           0       30.645592    1.759557    0.162573
     63          1           0       28.017221   -0.015133    3.417598
     64          1           0       27.879952   -2.941926    2.577711
     65          1           0       30.334181   -0.414553    2.973555
     66          1           0       29.916936   -1.178327    1.480810
     67          1           0       29.841846   -2.164298    2.948589
     68          1           0       25.989494   -2.569052    4.795978
     69          1           0       27.271452   -1.450647    5.043808
     70          1           0       28.161925   -3.171669    6.173371
     71          1           0       28.724203   -3.939458    4.653487
     72          1           0       27.182647   -4.460990    5.246867
     73          1           0       21.204882   -4.775937    2.668368
     74          1           0       21.730239   -3.513354    3.796253
     75          1           0       22.872294   -4.775581    2.968931
     76          1           0       19.741566   -1.434953   -1.429618
     77          1           0       16.374353    1.177997   -1.836384
     78          1           0       17.137131    2.043579   -0.508200
     79          1           0       16.384422    0.412567   -0.186084
     80         12           0      -24.775630    0.315554    0.385813
     81          6           0      -21.725568   -1.279890   -0.243730
     82          6           0      -26.438981   -2.345491   -0.967963
     83          6           0      -27.588026    2.028338    0.698857
     84          6           0      -22.901992    3.107621    1.598359
     85          7           0      -24.113828   -1.581624   -0.549341
     86          6           0      -22.839264   -2.092409   -0.655550
     87          6           0      -22.884523   -3.556266   -1.053080
     88          6           0      -24.375996   -3.746277   -1.538138
     89          6           0      -25.023804   -2.481628   -0.878016
     90          6           0      -24.529507   -3.751429   -3.053766
     91          6           0      -22.325093   -4.447547    0.115051
     92          6           0      -22.530105   -5.970284   -0.117249
     93          1           0      -22.541854   -6.443070   -1.556096
     94          7           0      -26.676363   -0.095948   -0.041247
     95          6           0      -27.185276   -1.208154   -0.699906
     96          6           0      -28.639417   -1.098970   -0.911415
     97          6           0      -28.962319    0.185193   -0.374438
     98          6           0      -27.711971    0.760397    0.114363
     99          6           0      -29.457768   -2.182501   -1.507225
    100          6           0      -30.330781    0.815482   -0.342606
    101          8           0      -30.536326    1.939423    0.193877
    102          6           0      -31.536198    0.093566   -0.881013
    103          7           0      -25.185697    2.290951    1.116059
    104          6           0      -26.450537    2.712448    1.122934
    105          6           0      -26.521966    4.242111    1.557852
    106          6           0      -24.958149    4.618157    1.818644
    107          6           0      -24.302298    3.278351    1.481744
    108          6           0      -27.213741    5.063741    0.394122
    109          6           0      -24.619065    5.017112    3.318313
    110          6           0      -24.834856    6.513115    3.686625
    111          7           0      -22.786549    0.884867    0.585745
    112          6           0      -22.144207    1.993239    1.198233
    113          6           0      -20.632324    1.770816    1.198799
    114          6           0      -20.412495    0.543332    0.581981
    115          6           0      -21.769835    0.009801    0.301196
    116          6           0      -19.575539    2.654244    1.784179
    117          6           0      -19.433559   -0.443695    0.190645
    118          8           0      -18.200836   -0.462934    0.264258
    119          6           0      -20.257181   -1.768344   -0.203175
    120          6           0      -19.792003   -2.381321   -1.504210
    121          8           0      -20.200371   -2.054683   -2.585793
    122          8           0      -19.006691   -3.533251   -1.272819
    123          6           0      -18.858542   -4.482349   -2.386367
    124          1           0      -26.815507   -3.241251   -1.466986
    125          1           0      -28.517922    2.594550    0.785235
    126          1           0      -22.266781    3.957743    1.856135
    127          1           0      -22.198621   -3.688478   -1.888869
    128          1           0      -24.895897   -4.615020   -1.133002
    129          1           0      -25.017704   -4.695451   -3.295340
    130          1           0      -23.549039   -3.586364   -3.499869
    131          1           0      -25.283144   -3.046576   -3.404117
    132          1           0      -22.722610   -3.928422    0.986613
    133          1           0      -21.256409   -4.238081    0.146852
    134          1           0      -23.484219   -6.165798    0.372263
    135          1           0      -21.725896   -6.499323    0.393890
    136          1           0      -29.814322   -1.723886   -2.429367
    137          1           0      -30.253073   -2.532661   -0.849754
    138          1           0      -28.973145   -3.103840   -1.832826
    139          1           0      -31.705603   -0.802795   -0.285985
    140          1           0      -31.183777   -0.062218   -1.901397
    141          1           0      -32.455555    0.673530   -0.956909
    142          1           0      -27.088498    4.146026    2.484904
    143          1           0      -24.460726    5.246073    1.078239
    144          1           0      -27.486669    4.470378   -0.478367
    145          1           0      -26.540178    5.845958    0.043023
    146          1           0      -28.156081    5.417824    0.811075
    147          1           0      -23.664306    4.609562    3.649408
    148          1           0      -25.334642    4.472681    3.933614
    149          1           0      -25.508085    6.529009    4.542990
    150          1           0      -25.197049    7.037612    2.802323
    151          1           0      -23.907532    6.996575    3.994853
    152          1           0      -19.224212    2.148966    2.684088
    153          1           0      -19.986999    3.639945    2.004767
    154          1           0      -18.672524    2.824424    1.198287
    155          1           0      -20.129594   -2.458431    0.630350
    156          1           0      -18.110052   -4.030888   -3.037012
    157          1           0      -19.828111   -4.717721   -2.825735
    158          1           0      -18.510176   -5.415004   -1.943445
 ---------------------------------------------------------------------

 SCF Done:  E(RPBE1PBE) =  -4067.35404231     A.U. after   16 cycles

 Excitation energies and oscillator strengths:

 Excited State   1:      Singlet-A      1.8047 eV  686.99 nm  f=0.3482  <S**2>=0.000
     309 -> 316        0.15293
     311 -> 313        0.69766
     311 <- 313       -0.11784
 This state for optimization and/or second-order correction.
 Total Energy, E(TD-HF/TD-DFT) =  -4067.28771949
 Copying the excited state density for this state as the 1-particle RhoCI density.

 Excited State   2:      Singlet-A      1.8499 eV  670.22 nm  f=0.0000  <S**2>=0.000
     312 -> 313        0.70711

 Excited State   3:      Singlet-A      1.8621 eV  665.84 nm  f=0.3735  <S**2>=0.000
     310 -> 315        0.19129
     312 -> 314        0.68816
     312 <- 314       -0.10016

 Excited State   4:      Singlet-A      2.0967 eV  591.33 nm  f=0.0000  <S**2>=0.000
     311 -> 314        0.70710

 Excited State   5:      Singlet-A      2.2826 eV  543.18 nm  f=0.0469  <S**2>=0.000
     310 -> 314        0.61498
     312 -> 315       -0.34306

 The electronic state is 1-A.
 Alpha  occ. eigenvalues --  -46.92665 -46.91483 -19.26043 -19.24617 -19.20450
 Alpha  occ. eigenvalues --  -19.19720 -19.19399 -19.19067 -19.18578 -19.17583
 Alpha  occ. eigenvalues --  -14.41949 -14.41586 -14.41133 -14.41124 -14.39634
 Alpha  occ. eigenvalues --  -14.39505 -14.39244 -14.38481 -10.36395 -10.36204
 Alpha  occ. eigenvalues --  -10.32670 -10.32475 -10.32322 -10.30941 -10.29444
 Alpha  occ. eigenvalues --  -10.29346 -10.29244 -10.28997 -10.28952 -10.28755
 Alpha  occ. eigenvalues --  -10.28573 -10.28439 -10.28373 -10.28266 -10.28157
 Alpha  occ. eigenvalues --  -10.28067 -10.28059 -10.27899 -10.27739 -10.27272
 Alpha  occ. eigenvalues --  -10.27126 -10.27090 -10.26839 -10.26752 -10.26465
 Alpha  occ. eigenvalues --  -10.26424 -10.26370 -10.26200 -10.26196 -10.26160
 Alpha  occ. eigenvalues --  -10.26158 -10.26096 -10.25932 -10.25810 -10.25593
 Alpha  occ. eigenvalues --  -10.25578 -10.25551 -10.25497 -10.25446 -10.25219
 Alpha  occ. eigenvalues --  -10.25089 -10.25054 -10.24945 -10.24933 -10.24880
 Alpha  occ. eigenvalues --  -10.24820 -10.24765 -10.24725 -10.24458 -10.24366
 Alpha  occ. eigenvalues --  -10.24337 -10.24310 -10.24119 -10.23968 -10.23888
 Alpha  occ. eigenvalues --  -10.23751 -10.23659 -10.23635 -10.23626 -10.23516
 Alpha  occ. eigenvalues --  -10.23492 -10.23223 -10.23064 -10.22874 -10.22832
 Alpha  occ. eigenvalues --  -10.22002  -3.14734  -3.13741  -1.87545  -1.87131
 Alpha  occ. eigenvalues --   -1.86937  -1.86588  -1.86101  -1.85995  -1.10874
 Alpha  occ. eigenvalues --   -1.10175  -1.05225  -1.03836  -1.02583  -1.02439
 Alpha  occ. eigenvalues --   -1.02352  -1.01599  -0.99665  -0.98913  -0.98760
 Alpha  occ. eigenvalues --   -0.98086  -0.97436  -0.97252  -0.96062  -0.94849
 Alpha  occ. eigenvalues --   -0.86383  -0.85940  -0.83634  -0.83206  -0.83147
 Alpha  occ. eigenvalues --   -0.82868  -0.82818  -0.82089  -0.81855  -0.81075
 Alpha  occ. eigenvalues --   -0.81034  -0.80886  -0.80648  -0.80493  -0.78579
 Alpha  occ. eigenvalues --   -0.78494  -0.78059  -0.77225  -0.76749  -0.76575
 Alpha  occ. eigenvalues --   -0.76313  -0.76163  -0.75325  -0.75034  -0.74512
 Alpha  occ. eigenvalues --   -0.74321  -0.73199  -0.72267  -0.72064  -0.71751
 Alpha  occ. eigenvalues --   -0.71263  -0.70828  -0.70334  -0.70067  -0.69518
 Alpha  occ. eigenvalues --   -0.68895  -0.67525  -0.66515  -0.66067  -0.65898
 Alpha  occ. eigenvalues --   -0.64012  -0.63702  -0.63311  -0.62969  -0.62763
 Alpha  occ. eigenvalues --   -0.62141  -0.61475  -0.61304  -0.60548  -0.59922
 Alpha  occ. eigenvalues --   -0.59782  -0.59638  -0.59243  -0.58454  -0.58276
 Alpha  occ. eigenvalues --   -0.58113  -0.56739  -0.55836  -0.55179  -0.54090
 Alpha  occ. eigenvalues --   -0.54053  -0.53743  -0.53665  -0.53249  -0.52499
 Alpha  occ. eigenvalues --   -0.52189  -0.52166  -0.52023  -0.51788  -0.51345
 Alpha  occ. eigenvalues --   -0.51343  -0.50738  -0.50706  -0.50298  -0.49719
 Alpha  occ. eigenvalues --   -0.49164  -0.49148  -0.48769  -0.48728  -0.48457
 Alpha  occ. eigenvalues --   -0.48293  -0.47957  -0.47837  -0.47754  -0.47437
 Alpha  occ. eigenvalues --   -0.47131  -0.47120  -0.46956  -0.46770  -0.46493
 Alpha  occ. eigenvalues --   -0.46462  -0.46336  -0.45964  -0.45904  -0.45787
 Alpha  occ. eigenvalues --   -0.45726  -0.45487  -0.45335  -0.45308  -0.45027
 Alpha  occ. eigenvalues --   -0.44579  -0.44579  -0.44317  -0.44082  -0.44026
 Alpha  occ. eigenvalues --   -0.43970  -0.43873  -0.43628  -0.43624  -0.43507
 Alpha  occ. eigenvalues --   -0.43337  -0.43151  -0.42974  -0.42791  -0.42773
 Alpha  occ. eigenvalues --   -0.42687  -0.42449  -0.42260  -0.42009  -0.41850
 Alpha  occ. eigenvalues --   -0.41545  -0.41517  -0.41353  -0.41221  -0.40982
 Alpha  occ. eigenvalues --   -0.40914  -0.40758  -0.40473  -0.40451  -0.40313
 Alpha  occ. eigenvalues --   -0.40206  -0.39966  -0.39921  -0.39848  -0.39689
 Alpha  occ. eigenvalues --   -0.39646  -0.39419  -0.39291  -0.38965  -0.38801
 Alpha  occ. eigenvalues --   -0.38800  -0.38712  -0.38329  -0.38293  -0.38211
 Alpha  occ. eigenvalues --   -0.37968  -0.37818  -0.37715  -0.37646  -0.37551
 Alpha  occ. eigenvalues --   -0.37465  -0.37352  -0.37161  -0.37056  -0.37022
 Alpha  occ. eigenvalues --   -0.37018  -0.36774  -0.36645  -0.36257  -0.36058
 Alpha  occ. eigenvalues --   -0.35943  -0.35745  -0.35731  -0.35267  -0.35060
 Alpha  occ. eigenvalues --   -0.34884  -0.34311  -0.34120  -0.34042  -0.34021
 Alpha  occ. eigenvalues --   -0.33454  -0.33365  -0.33233  -0.32987  -0.32396
 Alpha  occ. eigenvalues --   -0.32138  -0.31742  -0.31569  -0.31371  -0.31182
 Alpha  occ. eigenvalues --   -0.30917  -0.30846  -0.29377  -0.29348  -0.29253
 Alpha  occ. eigenvalues --   -0.29030  -0.28678  -0.28285  -0.27078  -0.26825
 Alpha  occ. eigenvalues --   -0.26376  -0.25818  -0.25748  -0.25581  -0.25385
 Alpha  occ. eigenvalues --   -0.25259  -0.25183  -0.24276  -0.21249  -0.20875
 Alpha  occ. eigenvalues --   -0.18440  -0.18147
 Alpha virt. eigenvalues --   -0.11080  -0.10466  -0.05527  -0.05284  -0.04392
 Alpha virt. eigenvalues --   -0.03108  -0.02180  -0.01994  -0.01380  -0.00178
 Alpha virt. eigenvalues --    0.00182   0.00621   0.01039   0.01107   0.01735

 Mulliken charges:
               1
     1  Mg  11.999727
     2  C    5.972530
     3  C    5.991117
     4  C    6.031084
     5  C    6.007901
     6  N    6.976380
     7  C    6.025639
     8  C    5.996441
     9  C    6.002142
    10  C    5.988186
    11  C    6.002019
    12  C    5.998642
    13  C    5.994107
    14  H    1.001991
    15  N    7.008194
    16  C    5.968305
    17  C    5.972828
    18  C    5.998122
    19  C    5.954952
    20  C    6.004481
    21  C    5.988110
    22  O    7.984173
    23  C    6.001763
    24  N    7.008533
    25  C    5.960686
    26  C    6.010191
    27  C    5.988576
    28  C    6.031855
    29  C    5.999923
    30  C    5.993538
    31  C    6.001982
    32  N    7.000338
    33  C    6.030582
    34  C    6.023754
    35  C    6.001475
    36  C    6.035695
    37  C    6.001255
    38  C    6.016196
    39  O    8.032276
    40  C    6.007039
    41  C    6.003903
    42  O    8.001080
    43  O    8.002269
    44  C    6.000102
    45  H    0.986700
    46  H    0.994874
    47  H    1.015712
    48  H    0.995137
    49  H    1.000781
    50  H    0.995000
    51  H    0.986091
    52  H    1.002783
    53  H    0.997204
    54  H    1.007785
    55  H    1.009913
    56  H    0.993163
    57  H    0.982592
    58  H    0.985760
    59  H    0.982055
    60  H    0.989719
    61  H    0.989068
    62  H    0.992464
    63  H    0.999513
    64  H    1.006655
    65  H    1.002833
    66  H    1.004888
    67  H    0.991225
    68  H    0.994588
    69  H    1.008893
    70  H    1.004832
    71  H    1.005614
    72  H    0.997485
    73  H    1.014885
    74  H    1.015491
    75  H    1.013016
    76  H    1.005755
    77  H    1.004559
    78  H    1.004047
    79  H    0.998836
    80  Mg  12.000009
    81  C    6.000053
    82  C    5.999968
    83  C    5.999931
    84  C    6.000061
    85  N    7.000009
    86  C    5.999860
    87  C    6.000020
    88  C    5.999969
    89  C    6.000143
    90  C    5.999976
    91  C    6.000016
    92  C    6.000004
    93  H    0.999981
    94  N    7.000018
    95  C    6.000164
    96  C    6.000127
    97  C    6.000107
    98  C    6.000108
    99  C    5.999948
   100  C    6.000079
   101  O    8.000180
   102  C    5.999968
   103  N    7.000017
   104  C    6.000083
   105  C    5.999999
   106  C    6.000026
   107  C    5.999847
   108  C    5.999979
   109  C    6.000039
   110  C    5.999990
   111  N    6.999977
   112  C    5.999821
   113  C    5.999863
   114  C    5.999942
   115  C    5.999930
   116  C    6.000041
   117  C    5.999888
   118  O    7.999768
   119  C    6.000016
   120  C    5.999976
   121  O    7.999978
   122  O    7.999979
   123  C    6.000016
   124  H    1.000076
   125  H    1.000055
   126  H    0.999953
   127  H    0.999988
   128  H    0.999998
   129  H    1.000025
   130  H    1.000066
   131  H    0.999998
   132  H    0.999989
   133  H    1.000006
   134  H    0.999977
   135  H    0.999966
   136  H    1.000114
   137  H    1.000114
   138  H    1.000094
   139  H    1.000043
   140  H    1.000033
   141  H    1.000109
   142  H    0.999999
   143  H    1.000018
   144  H    0.999977
   145  H    1.000064
   146  H    1.000019
   147  H    1.000002
   148  H    0.999954
   149  H    0.999989
   150  H    1.000000
   151  H    0.999996
   152  H    0.999859
   153  H    0.999927
   154  H    0.999877
   155  H    0.999935
   156  H    0.999970
   157  H    0.999993
   158  H    0.999939
 Sum of Mulliken charges = 624.00000

 Dipole moment (field-independent basis, Debye):
    X=             -6.2279    Y=             -6.1272    Z=              5.0430  Tot=             10.0877
 Quadrupole moment (field-independent basis, Debye-Ang):
   XX=           -300.2258   YY=              2.9590   ZZ=             -3.4793
   XY=           -153.8027   XZ=            127.0379   YZ=             -0.8893

 Normal termination of Gaussian 16 at Wed Oct 13 23:43:21 2021.
