 Gaussian 16, Revision A.03,
 Gaussian 16:  ES64L-G16RevA.03 25-Dec-2016

 --------------------------------------------------------
 #p PBE1PBE/Def2SVP td=(nstates=5) density=(transition=1)
 --------------------------------------------------------

 --------------------------------
 TDDFT excited states in gaussian
 --------------------------------
 Symbolic Z-matrix:
 Charge =  0 Multiplicity = 1

                         Standard orientation:
 ---------------------------------------------------------------------
 Center     Atomic      Atomic             Coordinates (Angstroms)
 Number     Number       Type             X           Y           Z
 ---------------------------------------------------------------------
      1         12           0       -3.845304   -0.471998    1.254203
      2          6           0       -5.614720    1.797082   -0.560058
      3          6           0       -2.059977    2.043015    2.778737
      4          6           0       -2.042739   -2.848931    2.854739
      5          6           0       -5.355780   -3.021165   -0.672445
      6          7           0       -3.691870    1.682048    0.953000
      7          6           0       -4.730036    2.373229    0.411219
      8          6           0       -4.730829    3.820711    0.769429
      9          6           0       -3.382808    3.876576    1.658667
     10          6           0       -2.996815    2.443368    1.824393
     11          6           0       -2.222452    4.725671    0.966827
     12          6           0       -6.037901    4.137498    1.635483
     13          6           0       -6.524866    5.587863    1.665778
     14          1           0       -5.688920    6.801472    1.188445
     15          7           0       -2.336125   -0.463620    2.702203
     16          6           0       -1.716502    0.701224    3.183548
     17          6           0       -0.702234    0.282254    4.122922
     18          6           0       -0.707181   -1.126431    4.177167
     19          6           0       -1.763496   -1.512308    3.251684
     20          6           0        0.129448    1.317169    4.916061
     21          6           0        0.301916   -2.086591    4.999625
     22          8           0        0.130872   -3.308350    5.097175
     23          6           0        1.523726   -1.593804    5.757300
     24          7           0       -3.787489   -2.681555    1.133781
     25          6           0       -2.912387   -3.384027    1.892277
     26          6           0       -2.833054   -4.843094    1.446225
     27          6           0       -4.168819   -4.972075    0.510502
     28          6           0       -4.568311   -3.495540    0.362624
     29          6           0       -1.445029   -5.309769    0.808874
     30          6           0       -5.443463   -5.702632    1.174683
     31          6           0       -6.166180   -6.798991    0.413876
     32          7           0       -5.251288   -0.673292   -0.277311
     33          6           0       -5.752623   -1.718363   -0.958711
     34          6           0       -6.811686   -1.245562   -1.904470
     35          6           0       -6.794953    0.155012   -1.703033
     36          6           0       -5.738878    0.424576   -0.798602
     37          6           0       -7.719497   -1.999270   -2.810758
     38          6           0       -7.445698    1.324766   -2.161348
     39          8           0       -8.366440    1.462836   -2.992699
     40          6           0       -6.707245    2.451862   -1.443813
     41          6           0       -6.106601    3.318724   -2.431719
     42          8           0       -5.355927    3.078719   -3.325031
     43          8           0       -6.482398    4.614218   -2.089198
     44          6           0       -5.997415    5.824994   -2.856133
     45          1           0       -1.618782    2.774618    3.458273
     46          1           0       -1.392131   -3.603335    3.302765
     47          1           0       -5.713952   -3.722697   -1.427968
     48          1           0       -4.695952    4.598182    0.006519
     49          1           0       -3.571844    4.317350    2.637466
     50          1           0       -1.590732    5.304924    1.639852
     51          1           0       -2.648482    5.315815    0.155597
     52          1           0       -1.555499    4.002519    0.496310
     53          1           0       -5.915355    3.825419    2.672821
     54          1           0       -6.820881    3.514327    1.202649
     55          1           0       -6.827414    5.771477    2.697503
     56          1           0       -7.461514    5.649004    1.112962
     57          1           0       -0.157726    2.353669    4.739638
     58          1           0        1.171980    1.146047    4.649884
     59          1           0        0.023329    1.068404    5.972228
     60          1           0        1.113653   -1.035885    6.598311
     61          1           0        2.036085   -0.781618    5.241215
     62          1           0        2.237445   -2.405226    5.898312
     63          1           0       -3.004659   -5.465530    2.325231
     64          1           0       -3.941473   -5.483196   -0.425209
     65          1           0       -1.582302   -5.691768   -0.203001
     66          1           0       -0.979304   -6.066020    1.439736
     67          1           0       -0.770575   -4.460904    0.693944
     68          1           0       -6.185570   -4.984819    1.523836
     69          1           0       -5.086383   -6.136601    2.108148
     70          1           0       -7.207361   -6.487046    0.339560
     71          1           0       -6.070178   -7.777710    0.883153
     72          1           0       -5.797748   -6.837087   -0.612218
     73          1           0       -7.647985   -3.084082   -2.733952
     74          1           0       -7.516954   -1.755982   -3.854100
     75          1           0       -8.745650   -1.711120   -2.583430
     76          1           0       -7.371428    3.043938   -0.813530
     77          1           0       -5.299728    5.524489   -3.638116
     78          1           0       -5.441849    6.482935   -2.186543
     79          1           0       -6.895770    6.283469   -3.269399
     80         12           0        3.698838   -0.648610   -1.095682
     81          6           0        5.218125    2.515235   -0.206736
     82          6           0        0.864548    0.879560   -0.833227
     83          6           0        2.505372   -3.671428   -1.644092
     84          6           0        6.876129   -2.323531   -0.539712
     85          7           0        3.140352    1.541701   -0.685294
     86          6           0        3.866931    2.663435   -0.343760
     87          6           0        2.958053    3.815116   -0.106182
     88          6           0        1.586324    3.144740    0.163228
     89          6           0        1.864527    1.749244   -0.443559
     90          6           0        1.215086    3.030317    1.658013
     91          6           0        2.859416    4.681877   -1.398439
     92          6           0        2.929837    6.245918   -1.202422
     93          1           0        3.308855    7.179183   -2.420365
     94          7           0        1.820469   -1.289892   -1.270274
     95          6           0        0.768286   -0.515894   -1.247316
     96          6           0       -0.393767   -1.322438   -1.569497
     97          6           0        0.141844   -2.585461   -1.915300
     98          6           0        1.540672   -2.550071   -1.584720
     99          6           0       -1.795426   -0.691788   -1.656899
    100          6           0       -0.623775   -3.760316   -2.457102
    101          8           0       -0.062840   -4.790675   -2.683105
    102          6           0       -2.067088   -3.592552   -2.804355
    103          7           0        4.592353   -2.781403   -0.799809
    104          6           0        3.839455   -3.770400   -1.276950
    105          6           0        4.619235   -5.013715   -1.487216
    106          6           0        6.009075   -4.582637   -0.920714
    107          6           0        5.864161   -3.098288   -0.712313
    108          6           0        4.032147   -6.355621   -0.919005
    109          6           0        7.175879   -4.991975   -1.901992
    110          6           0        8.102747   -6.186151   -1.541024
    111          7           0        5.585987   -0.137153   -0.526234
    112          6           0        6.797732   -0.854118   -0.409244
    113          6           0        7.890126    0.080599   -0.068609
    114          6           0        7.308980    1.340267   -0.010807
    115          6           0        5.950651    1.194128   -0.235937
    116          6           0        9.335068   -0.332749    0.302029
    117          6           0        7.649434    2.777550    0.240743
    118          8           0        8.681024    3.368907    0.455874
    119          6           0        6.258506    3.587026    0.293742
    120          6           0        6.332898    4.808557   -0.420218
    121          8           0        6.006314    4.894521   -1.612272
    122          8           0        6.833485    5.908517    0.269349
    123          6           0        6.749192    7.260011   -0.364546
    124          1           0       -0.150278    1.281101   -0.823062
    125          1           0        2.120953   -4.663645   -1.889021
    126          1           0        7.839360   -2.810007   -0.378516
    127          1           0        3.241228    4.327784    0.813475
    128          1           0        0.716584    3.615554   -0.294602
    129          1           0        0.291170    3.571352    1.864520
    130          1           0        2.038508    3.467001    2.222389
    131          1           0        1.111508    2.008533    2.024240
    132          1           0        1.886846    4.432832   -1.823316
    133          1           0        3.636203    4.308101   -2.065210
    134          1           0        3.604923    6.442060   -0.369864
    135          1           0        1.912145    6.481489   -0.888850
    136          1           0       -2.133344   -0.748228   -2.692472
    137          1           0       -1.886453    0.324596   -1.275324
    138          1           0       -2.523870   -1.326905   -1.153632
    139          1           0       -2.223235   -2.858563   -3.594476
    140          1           0       -2.713770   -3.178682   -2.030732
    141          1           0       -2.441114   -4.534587   -3.206102
    142          1           0        4.724394   -5.156487   -2.562705
    143          1           0        6.129517   -4.989584    0.083506
    144          1           0        3.037446   -6.116962   -0.543994
    145          1           0        4.642493   -6.905644   -0.201859
    146          1           0        3.950898   -7.067905   -1.740245
    147          1           0        7.855053   -4.146305   -2.013385
    148          1           0        6.714629   -4.991574   -2.889582
    149          1           0        8.231750   -6.830206   -2.410729
    150          1           0        7.674465   -6.737944   -0.704071
    151          1           0        9.095502   -5.831353   -1.261567
    152          1           0        9.578836   -1.228833   -0.267992
    153          1           0        9.359689   -0.642707    1.346998
    154          1           0       10.054097    0.461041    0.098235
    155          1           0        6.035284    3.797095    1.339342
    156          1           0        5.710887    7.556638   -0.519571
    157          1           0        7.445235    7.355640   -1.197036
    158          1           0        7.011594    7.979699    0.410783
 ---------------------------------------------------------------------

 SCF Done:  E(RPBE1PBE) =  -4067.35008718     A.U. after   16 cycles

 Excitation energies and oscillator strengths:

 Excited State   1:      Singlet-A      1.6165 eV  767.01 nm  f=0.0008  <S**2>=0.000
     312 -> 313        0.70402
 This state for optimization and/or second-order correction.
 Total Energy, E(TD-HF/TD-DFT) =  -4067.29068312
 Copying the excited state density for this state as the 1-particle RhoCI density.

 Excited State   2:      Singlet-A      1.7162 eV  722.45 nm  f=0.0003  <S**2>=0.000
     311 -> 313        0.10024
     311 -> 314        0.69945

 Excited State   3:      Singlet-A      1.8652 eV  664.71 nm  f=0.1141  <S**2>=0.000
     310 -> 317        0.13285
     311 -> 313       -0.34781
     312 -> 314        0.59733

 Excited State   4:      Singlet-A      1.8834 eV  658.28 nm  f=0.6224  <S**2>=0.000
     309 -> 315       -0.15675
     311 -> 313        0.58775
     312 -> 314        0.35142

 Excited State   5:      Singlet-A      1.9762 eV  627.38 nm  f=0.0004  <S**2>=0.000
     310 -> 313        0.70406

 The electronic state is 1-A.
 Alpha  occ. eigenvalues --  -46.93379 -46.92785 -19.24857 -19.24719 -19.20303
 Alpha  occ. eigenvalues --  -19.20076 -19.19824 -19.19490 -19.19259 -19.18827
 Alpha  occ. eigenvalues --  -14.42708 -14.41729 -14.41160 -14.39770 -14.39706
 Alpha  occ. eigenvalues --  -14.39626 -14.39607 -14.39165 -10.36151 -10.35554
 Alpha  occ. eigenvalues --  -10.33825 -10.33336 -10.32071 -10.32007 -10.30056
 Alpha  occ. eigenvalues --  -10.29564 -10.29148 -10.28962 -10.28938 -10.28490
 Alpha  occ. eigenvalues --  -10.28476 -10.28455 -10.28330 -10.28239 -10.28017
 Alpha  occ. eigenvalues --  -10.27955 -10.27891 -10.27858 -10.27483 -10.27423
 Alpha  occ. eigenvalues --  -10.26998 -10.26968 -10.26954 -10.26817 -10.26685
 Alpha  occ. eigenvalues --  -10.26626 -10.26588 -10.26550 -10.26535 -10.26480
 Alpha  occ. eigenvalues --  -10.26411 -10.26111 -10.26013 -10.26000 -10.25943
 Alpha  occ. eigenvalues --  -10.25841 -10.25769 -10.25767 -10.25750 -10.25642
 Alpha  occ. eigenvalues --  -10.25361 -10.25361 -10.25012 -10.24785 -10.24622
 Alpha  occ. eigenvalues --  -10.24576 -10.24573 -10.24473 -10.24395 -10.24246
 Alpha  occ. eigenvalues --  -10.24055 -10.24039 -10.24027 -10.23883 -10.23717
 Alpha  occ. eigenvalues --  -10.23654 -10.23623 -10.23399 -10.23304 -10.23265
 Alpha  occ. eigenvalues --  -10.23201 -10.23157 -10.23112 -10.22987 -10.22976
 Alpha  occ. eigenvalues --  -10.22968  -3.15371  -3.14888  -1.88234  -1.87727
 Alpha  occ. eigenvalues --   -1.87714  -1.87604  -1.87268  -1.87112  -1.10877
 Alpha  occ. eigenvalues --   -1.09004  -1.06727  -1.05823  -1.04634  -1.03508
 Alpha  occ. eigenvalues --   -1.02539  -1.00848  -1.00838  -1.00536  -0.99787
 Alpha  occ. eigenvalues --   -0.99567  -0.99444  -0.98841  -0.97825  -0.95891
 Alpha  occ. eigenvalues --   -0.88421  -0.85693  -0.83571  -0.83501  -0.83203
 Alpha  occ. eigenvalues --   -0.83162  -0.82470  -0.82260  -0.81910  -0.81852
 Alpha  occ. eigenvalues --   -0.81674  -0.81512  -0.81068  -0.79692  -0.79221
 Alpha  occ. eigenvalues --   -0.78640  -0.78213  -0.77370  -0.77030  -0.76329
 Alpha  occ. eigenvalues --   -0.76265  -0.75925  -0.75859  -0.75304  -0.75188
 Alpha  occ. eigenvalues --   -0.74670  -0.73266  -0.72814  -0.72304  -0.71942
 Alpha  occ. eigenvalues --   -0.71472  -0.71062  -0.71020  -0.70528  -0.69912
 Alpha  occ. eigenvalues --   -0.69692  -0.67597  -0.67335  -0.67005  -0.65505
 Alpha  occ. eigenvalues --   -0.64291  -0.63550  -0.63485  -0.63191  -0.62974
 Alpha  occ. eigenvalues --   -0.62349  -0.61703  -0.60902  -0.60484  -0.60283
 Alpha  occ. eigenvalues --   -0.60102  -0.60041  -0.59603  -0.59560  -0.59368
 Alpha  occ. eigenvalues --   -0.58782  -0.56860  -0.55867  -0.55637  -0.55574
 Alpha  occ. eigenvalues --   -0.55057  -0.54676  -0.54348  -0.53954  -0.53633
 Alpha  occ. eigenvalues --   -0.53431  -0.52746  -0.52541  -0.52186  -0.51782
 Alpha  occ. eigenvalues --   -0.51226  -0.50977  -0.50620  -0.50363  -0.50324
 Alpha  occ. eigenvalues --   -0.50104  -0.49172  -0.49016  -0.48554  -0.48505
 Alpha  occ. eigenvalues --   -0.48200  -0.47990  -0.47953  -0.47910  -0.47348
 Alpha  occ. eigenvalues --   -0.47286  -0.47108  -0.46995  -0.46881  -0.46716
 Alpha  occ. eigenvalues --   -0.46660  -0.46533  -0.46450  -0.46327  -0.45948
 Alpha  occ. eigenvalues --   -0.45882  -0.45580  -0.44955  -0.44903  -0.44836
 Alpha  occ. eigenvalues --   -0.44784  -0.44665  -0.44577  -0.44389  -0.44273
 Alpha  occ. eigenvalues --   -0.44225  -0.44171  -0.43972  -0.43761  -0.43528
 Alpha  occ. eigenvalues --   -0.43427  -0.43395  -0.43285  -0.43031  -0.42982
 Alpha  occ. eigenvalues --   -0.42807  -0.42502  -0.42445  -0.42270  -0.42178
 Alpha  occ. eigenvalues --   -0.42089  -0.42008  -0.41874  -0.41662  -0.41499
 Alpha  occ. eigenvalues --   -0.41088  -0.41022  -0.40895  -0.40781  -0.40555
 Alpha  occ. eigenvalues --   -0.40358  -0.40342  -0.40206  -0.39971  -0.39652
 Alpha  occ. eigenvalues --   -0.39611  -0.39569  -0.39540  -0.39363  -0.39245
 Alpha  occ. eigenvalues --   -0.39087  -0.38964  -0.38829  -0.38818  -0.38571
 Alpha  occ. eigenvalues --   -0.38238  -0.38222  -0.38146  -0.37936  -0.37721
 Alpha  occ. eigenvalues --   -0.37645  -0.37266  -0.37259  -0.37130  -0.37000
 Alpha  occ. eigenvalues --   -0.36708  -0.36526  -0.36394  -0.36322  -0.36210
 Alpha  occ. eigenvalues --   -0.36134  -0.35872  -0.35474  -0.35409  -0.35296
 Alpha  occ. eigenvalues --   -0.35103  -0.35053  -0.34855  -0.34822  -0.34773
 Alpha  occ. eigenvalues --   -0.33706  -0.33382  -0.33239  -0.33115  -0.32625
 Alpha  occ. eigenvalues --   -0.32401  -0.32149  -0.32065  -0.31579  -0.31518
 Alpha  occ. eigenvalues --   -0.31162  -0.30737  -0.29942  -0.29908  -0.29277
 Alpha  occ. eigenvalues --   -0.28754  -0.28301  -0.27737  -0.27363  -0.27206
 Alpha  occ. eigenvalues --   -0.26667  -0.26519  -0.26409  -0.26149  -0.26113
 Alpha  occ. eigenvalues --   -0.26050  -0.25977  -0.25476  -0.21402  -0.20476
 Alpha  occ. eigenvalues --   -0.19370  -0.19076
 Alpha virt. eigenvalues --   -0.11607  -0.11372  -0.05822  -0.04733  -0.04012
 Alpha virt. eigenvalues --   -0.03323  -0.02600  -0.01801  -0.00624  -0.00429
 Alpha virt. eigenvalues --   -0.00086   0.00256   0.00769   0.00979   0.01036

 Mulliken charges:
               1
     1  Mg  12.000286
     2  C    5.999334
     3  C    5.998840
     4  C    6.001076
     5  C    6.001231
     6  N    6.999313
     7  C    5.999788
     8  C    6.000148
     9  C    5.999854
    10  C    6.000818
    11  C    6.000214
    12  C    6.000054
    13  C    6.000132
    14  H    0.999728
    15  N    7.000177
    16  C    6.000237
    17  C    5.999566
    18  C    6.000102
    19  C    5.999588
    20  C    5.999942
    21  C    5.999863
    22  O    7.999801
    23  C    6.000047
    24  N    7.000840
    25  C    5.999454
    26  C    6.000105
    27  C    6.000149
    28  C    5.999347
    29  C    5.999903
    30  C    6.000092
    31  C    6.000002
    32  N    6.999851
    33  C    5.999553
    34  C    5.999226
    35  C    6.000240
    36  C    5.999688
    37  C    6.000144
    38  C    5.999929
    39  O    7.999861
    40  C    6.000041
    41  C    5.999963
    42  O    7.999836
    43  O    7.999980
    44  C    6.000064
    45  H    0.999840
    46  H    1.000119
    47  H    1.000057
    48  H    0.999794
    49  H    0.999889
    50  H    0.999709
    51  H    0.999804
    52  H    0.999998
    53  H    0.999823
    54  H    1.000036
    55  H    0.999836
    56  H    0.999923
    57  H    0.999952
    58  H    0.999394
    59  H    0.999981
    60  H    0.999995
    61  H    0.999821
    62  H    0.999807
    63  H    0.999858
    64  H    0.999987
    65  H    1.000059
    66  H    0.999845
    67  H    1.000430
    68  H    0.999977
    69  H    0.999827
    70  H    0.999989
    71  H    0.999879
    72  H    1.000004
    73  H    0.999633
    74  H    0.999571
    75  H    0.999648
    76  H    0.999768
    77  H    0.999880
    78  H    0.999883
    79  H    0.999853
    80  Mg  12.000267
    81  C    5.999595
    82  C    6.000422
    83  C    5.999958
    84  C    5.999482
    85  N    6.999565
    86  C    6.000929
    87  C    5.999742
    88  C    6.000514
    89  C    5.998832
    90  C    6.000424
    91  C    5.999924
    92  C    5.999864
    93  H    1.000190
    94  N    7.000032
    95  C    5.999094
    96  C    5.999588
    97  C    5.999810
    98  C    6.000032
    99  C    6.000053
   100  C    5.999256
   101  O    7.998830
   102  C    6.000187
   103  N    6.999661
   104  C    5.999996
   105  C    6.000044
   106  C    5.999629
   107  C    6.001049
   108  C    6.000005
   109  C    5.999902
   110  C    5.999992
   111  N    7.000108
   112  C    6.001400
   113  C    6.000919
   114  C    6.000093
   115  C    6.001069
   116  C    5.999988
   117  C    6.000522
   118  O    8.000865
   119  C    6.000089
   120  C    6.000133
   121  O    8.000288
   122  O    8.000022
   123  C    5.999888
   124  H    0.999930
   125  H    1.000048
   126  H    1.000384
   127  H    1.000144
   128  H    0.999760
   129  H    0.999526
   130  H    0.999280
   131  H    1.001396
   132  H    1.000561
   133  H    0.999903
   134  H    0.999905
   135  H    1.000334
   136  H    0.999875
   137  H    0.999816
   138  H    0.999124
   139  H    0.999840
   140  H    0.999918
   141  H    0.999742
   142  H    1.000244
   143  H    1.000282
   144  H    1.000240
   145  H    0.999932
   146  H    1.000117
   147  H    0.999866
   148  H    1.000272
   149  H    1.000215
   150  H    1.000159
   151  H    0.999987
   152  H    1.000540
   153  H    1.000710
   154  H    1.000552
   155  H    1.000358
   156  H    1.000220
   157  H    1.000099
   158  H    1.000193
 Sum of Mulliken charges = 624.00000

 Dipole moment (field-independent basis, Debye):
    X=              0.5066    Y=              0.0327    Z=              0.0218  Tot=              0.5081
 Quadrupole moment (field-independent basis, Debye-Ang):
   XX=              1.7564   YY=              0.0333   ZZ=             -0.3274
   XY=              0.2876   XZ=             -0.2583   YZ=             -0.1770

 Normal termination of Gaussian 16 at Thu Oct 14 18:48:41 2021.
