 Gaussian 16, Revision A.03,
 Gaussian 16:  ES64L-G16RevA.03 25-Dec-2016

 --------------------------------------------------------
 #p PBE1PBE/Def2SVP td=(nstates=5) density=(transition=1)
 --------------------------------------------------------

 --------------------------------
 TDDFT excited states in gaussian
 --------------------------------
 Symbolic Z-matrix:
 Charge =  0 Multiplicity = 1

                         Standard orientation:
 ---------------------------------------------------------------------
 Center     Atomic      Atomic             Coordinates (Angstroms)
 Number     Number       Type             X           Y           Z
 ---------------------------------------------------------------------
      1         12           0       28.587612    0.450455   -0.171295
      2          6           0       25.992025   -1.851492    0.292653
      3          6           0       26.141036    2.890540   -0.026652
      4          6           0       31.018176    2.736675   -0.258234
      5          6           0       30.912248   -2.057341    0.554938
      6          7           0       26.212171    0.457258    0.323836
      7          6           0       25.403171   -0.619289    0.344840
      8          6           0       23.943378   -0.274656    0.517633
      9          6           0       24.066060    1.241419    0.104113
     10          6           0       25.542569    1.617730    0.172269
     11          6           0       23.577884    1.433100   -1.356619
     12          6           0       23.440863   -0.656589    1.915697
     13          6           0       24.343916   -0.426468    3.145340
     14          1           0       23.692134    0.279818    4.328228
     15          7           0       28.589515    2.496076   -0.157801
     16          6           0       27.473667    3.288253   -0.216608
     17          6           0       27.862285    4.621754   -0.693972
     18          6           0       29.311815    4.677950   -0.626416
     19          6           0       29.682991    3.256273   -0.351655
     20          6           0       26.836842    5.811219   -0.833046
     21          6           0       30.193313    5.916485   -0.805477
     22          8           0       29.717510    6.958428   -1.161459
     23          6           0       31.674949    5.822858   -0.580837
     24          7           0       30.697411    0.332929    0.339082
     25          6           0       31.563737    1.419531    0.117451
     26          6           0       33.090638    1.050707    0.345120
     27          6           0       33.001341   -0.536968    0.544894
     28          6           0       31.429180   -0.795589    0.433752
     29          6           0       34.205882    1.506446   -0.722747
     30          6           0       33.656258   -1.151117    1.865079
     31          6           0       34.262059   -2.611066    1.569171
     32          7           0       28.542518   -1.589460    0.280553
     33          6           0       29.575422   -2.487115    0.459213
     34          6           0       29.024048   -3.830348    0.589541
     35          6           0       27.616045   -3.701589    0.471625
     36          6           0       27.362966   -2.286686    0.361449
     37          6           0       29.802348   -5.118942    0.641076
     38          6           0       26.267481   -4.354581    0.524513
     39          8           0       25.961675   -5.498483    0.777636
     40          6           0       25.225991   -3.168443    0.353417
     41          6           0       24.456511   -3.452039   -0.907351
     42          8           0       23.538115   -4.305280   -0.992967
     43          8           0       24.814853   -2.537202   -1.886856
     44          6           0       24.002103   -2.541786   -3.057082
     45          1           0       25.363178    3.655636   -0.073464
     46          1           0       31.895257    3.351947   -0.470552
     47          1           0       31.657735   -2.855031    0.580449
     48          1           0       23.326111   -0.733580   -0.254454
     49          1           0       23.528763    1.977851    0.700137
     50          1           0       24.192308    2.232120   -1.772239
     51          1           0       22.502136    1.601148   -1.381776
     52          1           0       23.779134    0.652704   -2.091172
     53          1           0       23.311354   -1.738201    1.893466
     54          1           0       22.479141   -0.168336    2.073635
     55          1           0       25.179596    0.209442    2.854224
     56          1           0       24.660563   -1.400130    3.518154
     57          1           0       26.547792    6.284420    0.105768
     58          1           0       25.940731    5.460875   -1.345352
     59          1           0       27.131359    6.621788   -1.498639
     60          1           0       32.152131    6.803340   -0.591678
     61          1           0       32.181127    5.192737   -1.312432
     62          1           0       31.720047    5.492236    0.457171
     63          1           0       33.254266    1.559034    1.294604
     64          1           0       33.447898   -1.062243   -0.298874
     65          1           0       34.567163    2.485016   -0.408706
     66          1           0       33.798497    1.550216   -1.732429
     67          1           0       35.002991    0.762719   -0.725683
     68          1           0       32.896643   -1.359526    2.618419
     69          1           0       34.392178   -0.469580    2.292445
     70          1           0       33.768955   -3.369229    2.177696
     71          1           0       35.325528   -2.615979    1.806351
     72          1           0       34.127181   -3.049522    0.581002
     73          1           0       30.470052   -5.081977    1.501170
     74          1           0       30.404348   -5.218504   -0.262387
     75          1           0       29.158603   -5.987654    0.778054
     76          1           0       24.522245   -3.320991    1.171388
     77          1           0       24.310352   -1.726005   -3.710581
     78          1           0       22.942278   -2.556003   -2.802189
     79          1           0       24.199904   -3.407393   -3.689243
     80         12           0      -28.675196    0.373046    0.248102
     81          6           0      -26.801223   -2.382162   -0.820401
     82          6           0      -28.458789    1.725655   -2.883068
     83          6           0      -30.150553    3.092622    1.417898
     84          6           0      -28.659024   -1.065265    3.520322
     85          7           0      -27.677917   -0.267260   -1.624656
     86          6           0      -27.021552   -1.448042   -1.892303
     87          6           0      -26.798591   -1.605882   -3.385063
     88          6           0      -27.087467   -0.156059   -3.942235
     89          6           0      -27.881806    0.432587   -2.726805
     90          6           0      -25.827158    0.641804   -4.251684
     91          6           0      -27.626812   -2.828108   -3.925516
     92          6           0      -27.628568   -2.936012   -5.475701
     93          1           0      -26.402735   -2.412797   -6.195094
     94          7           0      -29.223587    2.093599   -0.590624
     95          6           0      -28.963833    2.539325   -1.880462
     96          6           0      -29.454182    3.912601   -2.092252
     97          6           0      -29.985941    4.280546   -0.818072
     98          6           0      -29.786092    3.134583    0.065094
     99          6           0      -29.393237    4.604476   -3.402337
    100          6           0      -30.612478    5.605281   -0.466655
    101          8           0      -31.100112    5.831673    0.675389
    102          6           0      -30.758117    6.697116   -1.491721
    103          7           0      -29.368192    0.906562    2.207368
    104          6           0      -29.939049    2.100005    2.372731
    105          6           0      -30.245059    2.358609    3.913382
    106          6           0      -29.711527    0.992407    4.623158
    107          6           0      -29.203066    0.235514    3.395435
    108          6           0      -29.487994    3.675201    4.362086
    109          6           0      -30.842142    0.141740    5.345117
    110          6           0      -31.159925    0.545447    6.813544
    111          7           0      -27.874132   -1.283580    1.214757
    112          6           0      -28.030774   -1.824886    2.518092
    113          6           0      -27.335893   -3.183829    2.593445
    114          6           0      -26.778339   -3.413467    1.339689
    115          6           0      -27.208468   -2.256304    0.513959
    116          6           0      -27.289875   -4.127297    3.754331
    117          6           0      -26.044595   -4.335094    0.504280
    118          8           0      -25.530685   -5.434136    0.735360
    119          6           0      -26.181122   -3.788799   -1.002725
    120          6           0      -24.862167   -3.772614   -1.740912
    121          8           0      -24.079618   -2.861980   -1.700417
    122          8           0      -24.779052   -4.843378   -2.659475
    123          6           0      -23.798344   -4.721995   -3.748604
    124          1           0      -28.261557    2.042073   -3.909791
    125          1           0      -30.623313    3.999339    1.801471
    126          1           0      -28.525658   -1.509923    4.508827
    127          1           0      -25.750339   -1.862449   -3.532797
    128          1           0      -27.750910   -0.107162   -4.806294
    129          1           0      -25.912357    0.928860   -5.299641
    130          1           0      -24.961616    0.035537   -3.985505
    131          1           0      -25.822926    1.624095   -3.779861
    132          1           0      -28.542986   -2.737414   -3.342824
    133          1           0      -27.136857   -3.709381   -3.512871
    134          1           0      -28.522076   -2.379280   -5.758320
    135          1           0      -27.737755   -3.987968   -5.739072
    136          1           0      -28.717028    5.433836   -3.195678
    137          1           0      -30.370860    4.911240   -3.773198
    138          1           0      -28.945166    4.096363   -4.257203
    139          1           0      -31.425629    6.353550   -2.280777
    140          1           0      -29.706133    6.803026   -1.759611
    141          1           0      -31.082217    7.669655   -1.122314
    142          1           0      -31.333836    2.414223    3.880358
    143          1           0      -28.781140    1.049246    5.189778
    144          1           0      -28.891812    4.143527    3.579115
    145          1           0      -28.805997    3.448200    5.181947
    146          1           0      -30.272598    4.393294    4.598661
    147          1           0      -30.713409   -0.929806    5.195107
    148          1           0      -31.759146    0.349053    4.794504
    149          1           0      -32.228681    0.752504    6.855249
    150          1           0      -30.514906    1.379743    7.089534
    151          1           0      -30.959867   -0.266129    7.513536
    152          1           0      -27.952350   -4.954223    3.497628
    153          1           0      -27.606537   -3.619646    4.666242
    154          1           0      -26.337473   -4.604039    3.985230
    155          1           0      -26.903790   -4.440734   -1.492614
    156          1           0      -22.841460   -4.965714   -3.287769
    157          1           0      -23.885094   -3.753321   -4.241203
    158          1           0      -24.091073   -5.453808   -4.501029
 ---------------------------------------------------------------------

 SCF Done:  E(RPBE1PBE) =  -4067.38323783     A.U. after   16 cycles

 Excitation energies and oscillator strengths:

 Excited State   1:      Singlet-A      1.8416 eV  673.25 nm  f=0.0000  <S**2>=0.000
     312 -> 313        0.70711
 This state for optimization and/or second-order correction.
 Total Energy, E(TD-HF/TD-DFT) =  -4067.31556151
 Copying the excited state density for this state as the 1-particle RhoCI density.

 Excited State   2:      Singlet-A      1.8621 eV  665.84 nm  f=0.3716  <S**2>=0.000
     310 -> 315        0.19120
     312 -> 314        0.68818
     312 <- 314       -0.10016

 Excited State   3:      Singlet-A      1.8968 eV  653.64 nm  f=0.3504  <S**2>=0.000
     309 -> 316        0.18771
     311 -> 313        0.68733

 Excited State   4:      Singlet-A      2.2341 eV  554.97 nm  f=0.1045  <S**2>=0.000
     309 -> 313        0.64929
     311 -> 316       -0.26849

 Excited State   5:      Singlet-A      2.2639 eV  547.66 nm  f=0.0000  <S**2>=0.000
     311 -> 314        0.70711

 The electronic state is 1-A.
 Alpha  occ. eigenvalues --  -46.93782 -46.91490 -19.26687 -19.24625 -19.20458
 Alpha  occ. eigenvalues --  -19.20274 -19.19875 -19.19407 -19.19105 -19.18584
 Alpha  occ. eigenvalues --  -14.41855 -14.41593 -14.41190 -14.41131 -14.40052
 Alpha  occ. eigenvalues --  -14.39642 -14.39512 -14.39217 -10.37016 -10.36403
 Alpha  occ. eigenvalues --  -10.33072 -10.32678 -10.32329 -10.32317 -10.30479
 Alpha  occ. eigenvalues --  -10.29295 -10.29178 -10.28959 -10.28762 -10.28729
 Alpha  occ. eigenvalues --  -10.28580 -10.28447 -10.28438 -10.28352 -10.28074
 Alpha  occ. eigenvalues --  -10.28066 -10.28052 -10.27906 -10.27746 -10.27701
 Alpha  occ. eigenvalues --  -10.27498 -10.27280 -10.27184 -10.27134 -10.27044
 Alpha  occ. eigenvalues --  -10.26863 -10.26847 -10.26759 -10.26231 -10.26217
 Alpha  occ. eigenvalues --  -10.26168 -10.26165 -10.26138 -10.26104 -10.26010
 Alpha  occ. eigenvalues --  -10.26009 -10.25940 -10.25692 -10.25585 -10.25574
 Alpha  occ. eigenvalues --  -10.25504 -10.25496 -10.25454 -10.25274 -10.25226
 Alpha  occ. eigenvalues --  -10.25201 -10.24952 -10.24773 -10.24476 -10.24465
 Alpha  occ. eigenvalues --  -10.24344 -10.24127 -10.23932 -10.23876 -10.23808
 Alpha  occ. eigenvalues --  -10.23793 -10.23759 -10.23668 -10.23641 -10.23597
 Alpha  occ. eigenvalues --  -10.23515 -10.23452 -10.23230 -10.23071 -10.22881
 Alpha  occ. eigenvalues --  -10.22839  -3.15729  -3.13748  -1.88530  -1.88122
 Alpha  occ. eigenvalues --   -1.87940  -1.86595  -1.86108  -1.86003  -1.11220
 Alpha  occ. eigenvalues --   -1.10183  -1.06138  -1.05519  -1.03844  -1.02590
 Alpha  occ. eigenvalues --   -1.02446  -1.01854  -0.99331  -0.98920  -0.98430
 Alpha  occ. eigenvalues --   -0.98094  -0.97678  -0.97443  -0.96625  -0.96069
 Alpha  occ. eigenvalues --   -0.86881  -0.85947  -0.83267  -0.83154  -0.82826
 Alpha  occ. eigenvalues --   -0.82587  -0.82096  -0.81999  -0.81862  -0.81693
 Alpha  occ. eigenvalues --   -0.81041  -0.80656  -0.80483  -0.79806  -0.79096
 Alpha  occ. eigenvalues --   -0.78501  -0.77658  -0.77232  -0.76863  -0.76320
 Alpha  occ. eigenvalues --   -0.76170  -0.76066  -0.75140  -0.75042  -0.74730
 Alpha  occ. eigenvalues --   -0.74328  -0.73206  -0.71836  -0.71759  -0.71595
 Alpha  occ. eigenvalues --   -0.71270  -0.70920  -0.70707  -0.70074  -0.69650
 Alpha  occ. eigenvalues --   -0.68902  -0.67302  -0.66522  -0.66464  -0.65905
 Alpha  occ. eigenvalues --   -0.64242  -0.63767  -0.63709  -0.62976  -0.62770
 Alpha  occ. eigenvalues --   -0.62749  -0.61538  -0.61482  -0.60336  -0.59929
 Alpha  occ. eigenvalues --   -0.59645  -0.59422  -0.59314  -0.59158  -0.58461
 Alpha  occ. eigenvalues --   -0.58292  -0.58284  -0.55844  -0.55186  -0.54559
 Alpha  occ. eigenvalues --   -0.54061  -0.53872  -0.53457  -0.53257  -0.52815
 Alpha  occ. eigenvalues --   -0.52294  -0.52196  -0.52174  -0.51904  -0.51352
 Alpha  occ. eigenvalues --   -0.50765  -0.50745  -0.50614  -0.50306  -0.50060
 Alpha  occ. eigenvalues --   -0.49624  -0.49155  -0.48830  -0.48735  -0.48464
 Alpha  occ. eigenvalues --   -0.48342  -0.47964  -0.47844  -0.47788  -0.47491
 Alpha  occ. eigenvalues --   -0.47308  -0.47138  -0.46777  -0.46531  -0.46500
 Alpha  occ. eigenvalues --   -0.46343  -0.46167  -0.46016  -0.45972  -0.45738
 Alpha  occ. eigenvalues --   -0.45733  -0.45342  -0.45332  -0.45157  -0.45034
 Alpha  occ. eigenvalues --   -0.44618  -0.44586  -0.44536  -0.44319  -0.44117
 Alpha  occ. eigenvalues --   -0.44090  -0.44033  -0.43880  -0.43635  -0.43592
 Alpha  occ. eigenvalues --   -0.43514  -0.43357  -0.43159  -0.43053  -0.42781
 Alpha  occ. eigenvalues --   -0.42694  -0.42214  -0.42016  -0.41958  -0.41897
 Alpha  occ. eigenvalues --   -0.41581  -0.41524  -0.41338  -0.41071  -0.40921
 Alpha  occ. eigenvalues --   -0.40780  -0.40765  -0.40485  -0.40459  -0.40320
 Alpha  occ. eigenvalues --   -0.40254  -0.40109  -0.39974  -0.39945  -0.39856
 Alpha  occ. eigenvalues --   -0.39653  -0.39611  -0.39426  -0.39022  -0.38972
 Alpha  occ. eigenvalues --   -0.38808  -0.38798  -0.38664  -0.38429  -0.38300
 Alpha  occ. eigenvalues --   -0.38159  -0.37983  -0.37975  -0.37825  -0.37790
 Alpha  occ. eigenvalues --   -0.37723  -0.37629  -0.37473  -0.37186  -0.37168
 Alpha  occ. eigenvalues --   -0.37033  -0.37026  -0.36847  -0.36619  -0.36264
 Alpha  occ. eigenvalues --   -0.36140  -0.36066  -0.35752  -0.35275  -0.35264
 Alpha  occ. eigenvalues --   -0.35068  -0.34829  -0.34182  -0.34127  -0.34049
 Alpha  occ. eigenvalues --   -0.33883  -0.33461  -0.33240  -0.33138  -0.32995
 Alpha  occ. eigenvalues --   -0.32245  -0.32201  -0.31749  -0.31718  -0.31366
 Alpha  occ. eigenvalues --   -0.31189  -0.30925  -0.29787  -0.29443  -0.29384
 Alpha  occ. eigenvalues --   -0.29356  -0.28694  -0.28685  -0.26917  -0.26832
 Alpha  occ. eigenvalues --   -0.26384  -0.26176  -0.26060  -0.25756  -0.25756
 Alpha  occ. eigenvalues --   -0.25589  -0.25439  -0.25189  -0.20973  -0.20882
 Alpha  occ. eigenvalues --   -0.19025  -0.18154
 Alpha virt. eigenvalues --   -0.11154  -0.10473  -0.05534  -0.05531  -0.04399
 Alpha virt. eigenvalues --   -0.04123  -0.02393  -0.02187  -0.01975  -0.00186
 Alpha virt. eigenvalues --   -0.00118   0.00613   0.01099   0.01151   0.01728

 Mulliken charges:
               1
     1  Mg  12.000000
     2  C    6.000000
     3  C    6.000000
     4  C    6.000000
     5  C    6.000000
     6  N    7.000000
     7  C    6.000000
     8  C    6.000000
     9  C    6.000000
    10  C    6.000000
    11  C    6.000000
    12  C    6.000000
    13  C    6.000000
    14  H    1.000000
    15  N    7.000000
    16  C    6.000000
    17  C    6.000000
    18  C    6.000000
    19  C    6.000000
    20  C    6.000000
    21  C    6.000000
    22  O    8.000000
    23  C    6.000000
    24  N    7.000000
    25  C    6.000000
    26  C    6.000000
    27  C    6.000000
    28  C    6.000000
    29  C    6.000000
    30  C    6.000000
    31  C    6.000000
    32  N    7.000000
    33  C    6.000000
    34  C    6.000000
    35  C    6.000000
    36  C    6.000000
    37  C    6.000000
    38  C    6.000000
    39  O    8.000000
    40  C    6.000000
    41  C    6.000000
    42  O    8.000000
    43  O    8.000000
    44  C    6.000000
    45  H    1.000000
    46  H    1.000000
    47  H    1.000000
    48  H    1.000000
    49  H    1.000000
    50  H    1.000000
    51  H    1.000000
    52  H    1.000000
    53  H    1.000000
    54  H    1.000000
    55  H    1.000000
    56  H    1.000000
    57  H    1.000000
    58  H    1.000000
    59  H    1.000000
    60  H    1.000000
    61  H    1.000000
    62  H    1.000000
    63  H    1.000000
    64  H    1.000000
    65  H    1.000000
    66  H    1.000000
    67  H    1.000000
    68  H    1.000000
    69  H    1.000000
    70  H    1.000000
    71  H    1.000000
    72  H    1.000000
    73  H    1.000000
    74  H    1.000000
    75  H    1.000000
    76  H    1.000000
    77  H    1.000000
    78  H    1.000000
    79  H    1.000000
    80  Mg  12.000000
    81  C    6.000000
    82  C    6.000000
    83  C    6.000000
    84  C    6.000000
    85  N    7.000000
    86  C    6.000000
    87  C    6.000000
    88  C    6.000000
    89  C    6.000000
    90  C    6.000000
    91  C    6.000000
    92  C    6.000000
    93  H    1.000000
    94  N    7.000000
    95  C    6.000000
    96  C    6.000000
    97  C    6.000000
    98  C    6.000000
    99  C    6.000000
   100  C    6.000000
   101  O    8.000000
   102  C    6.000000
   103  N    7.000000
   104  C    6.000000
   105  C    6.000000
   106  C    6.000000
   107  C    6.000000
   108  C    6.000000
   109  C    6.000000
   110  C    6.000000
   111  N    7.000000
   112  C    6.000000
   113  C    6.000000
   114  C    6.000000
   115  C    6.000000
   116  C    6.000000
   117  C    6.000000
   118  O    8.000000
   119  C    6.000000
   120  C    6.000000
   121  O    8.000000
   122  O    8.000000
   123  C    6.000000
   124  H    1.000000
   125  H    1.000000
   126  H    1.000000
   127  H    1.000000
   128  H    1.000000
   129  H    1.000000
   130  H    1.000000
   131  H    1.000000
   132  H    1.000000
   133  H    1.000000
   134  H    1.000000
   135  H    1.000000
   136  H    1.000000
   137  H    1.000000
   138  H    1.000000
   139  H    1.000000
   140  H    1.000000
   141  H    1.000000
   142  H    1.000000
   143  H    1.000000
   144  H    1.000000
   145  H    1.000000
   146  H    1.000000
   147  H    1.000000
   148  H    1.000000
   149  H    1.000000
   150  H    1.000000
   151  H    1.000000
   152  H    1.000000
   153  H    1.000000
   154  H    1.000000
   155  H    1.000000
   156  H    1.000000
   157  H    1.000000
   158  H    1.000000
 Sum of Mulliken charges = 624.00000

 Dipole moment (field-independent basis, Debye):
    X=              0.0000    Y=             -0.0000    Z=              0.0000  Tot=              0.0000
 Quadrupole moment (field-independent basis, Debye-Ang):
   XX=             -0.0000   YY=             -0.0000   ZZ=              0.0000
   XY=              0.0000   XZ=             -0.0000   YZ=              0.0000

 Normal termination of Gaussian 16 at Thu Oct 14 22:49:54 2021.
