 Gaussian 16, Revision A.03,
 Gaussian 16:  ES64L-G16RevA.03 25-Dec-2016

 --------------------------------------------------------
 #p PBE1PBE/Def2SVP td=(nstates=5) density=(transition=1)
 --------------------------------------------------------

 --------------------------------
 TDDFT excited states in gaussian
 --------------------------------
 Symbolic Z-matrix:
 Charge =  0 Multiplicity = 1

                         Standard orientation:
 ---------------------------------------------------------------------
 Center     Atomic      Atomic             Coordinates (Angstroms)
 Number     Number       Type             X           Y           Z
 ---------------------------------------------------------------------
      1         12           0      -29.079322    0.267539   -0.591070
      2          6           0      -28.384475   -2.175306    1.684748
      3          6           0      -27.471523    2.590865    1.537558
      4          6           0      -29.942231    2.734564   -2.684489
      5          6           0      -30.556934   -2.089305   -2.606194
      6          7           0      -28.331436    0.292711    1.501682
      7          6           0      -28.043905   -0.892255    2.191061
      8          6           0      -27.324962   -0.618913    3.542490
      9          6           0      -27.149110    0.917761    3.416382
     10          6           0      -27.745978    1.333441    2.083983
     11          6           0      -27.625462    1.906314    4.564367
     12          6           0      -25.946158   -1.376303    3.787052
     13          6           0      -25.308473   -0.995448    5.150060
     14          1           0      -25.380311   -2.118754    6.185371
     15          7           0      -28.695584    2.414145   -0.588119
     16          6           0      -27.827637    3.078295    0.251704
     17          6           0      -27.881592    4.478487   -0.151971
     18          6           0      -28.613556    4.507189   -1.382479
     19          6           0      -29.110598    3.190500   -1.630553
     20          6           0      -27.175422    5.522135    0.624392
     21          6           0      -28.917214    5.830957   -2.167345
     22          8           0      -29.724401    5.902410   -3.116172
     23          6           0      -28.275992    7.124356   -1.736712
     24          7           0      -30.070921    0.320028   -2.275579
     25          6           0      -30.344761    1.500731   -3.021724
     26          6           0      -31.369513    1.233329   -4.100737
     27          6           0      -31.141674   -0.262023   -4.313341
     28          6           0      -30.502906   -0.738092   -3.016402
     29          6           0      -32.831497    1.569977   -3.652939
     30          6           0      -30.156648   -0.559204   -5.466030
     31          6           0      -30.695967   -0.631838   -6.869364
     32          7           0      -29.493275   -1.751842   -0.555476
     33          6           0      -29.951269   -2.610946   -1.480289
     34          6           0      -29.962367   -3.935842   -0.934057
     35          6           0      -29.343689   -3.839650    0.294279
     36          6           0      -29.030522   -2.482898    0.470619
     37          6           0      -30.467310   -5.112132   -1.694525
     38          6           0      -28.924375   -4.595318    1.396408
     39          8           0      -28.969095   -5.789002    1.623337
     40          6           0      -28.260609   -3.521070    2.379743
     41          6           0      -28.964024   -3.603975    3.688009
     42          8           0      -30.107441   -3.296588    3.922301
     43          8           0      -28.121311   -3.937498    4.670086
     44          6           0      -28.706969   -4.003556    6.064325
     45          1           0      -26.828966    3.211324    2.165505
     46          1           0      -30.225117    3.527433   -3.379806
     47          1           0      -30.891751   -2.911036   -3.242120
     48          1           0      -28.016577   -0.848584    4.353122
     49          1           0      -26.090854    1.152584    3.298267
     50          1           0      -26.995407    2.777945    4.743529
     51          1           0      -27.898443    1.336057    5.452457
     52          1           0      -28.536450    2.352139    4.165288
     53          1           0      -25.357494   -1.113995    2.908836
     54          1           0      -26.136641   -2.448872    3.751787
     55          1           0      -25.713874   -0.045153    5.497471
     56          1           0      -24.246456   -0.842359    4.960527
     57          1           0      -27.928006    6.153036    1.097728
     58          1           0      -26.473155    5.983071   -0.070219
     59          1           0      -26.541842    5.073176    1.389454
     60          1           0      -28.550183    7.921789   -2.427385
     61          1           0      -27.212069    6.956747   -1.909807
     62          1           0      -28.439184    7.439675   -0.706490
     63          1           0      -31.161888    1.820507   -4.995713
     64          1           0      -32.062008   -0.820703   -4.482286
     65          1           0      -33.211948    0.820897   -2.959595
     66          1           0      -33.484038    1.652080   -4.522568
     67          1           0      -32.767237    2.546922   -3.175094
     68          1           0      -29.569223   -1.461329   -5.299920
     69          1           0      -29.356188    0.180731   -5.458409
     70          1           0      -30.174991    0.135024   -7.441895
     71          1           0      -31.713694   -0.257089   -6.759202
     72          1           0      -30.676886   -1.627864   -7.312006
     73          1           0      -29.640348   -5.641770   -2.165912
     74          1           0      -31.306188   -4.968378   -2.376187
     75          1           0      -30.851105   -5.793752   -0.935250
     76          1           0      -27.208789   -3.778674    2.506014
     77          1           0      -29.239628   -3.066735    6.229324
     78          1           0      -27.949922   -4.071503    6.846021
     79          1           0      -29.385985   -4.855822    6.098444
     80         12           0       29.394796   -0.562353    0.191193
     81          6           0       27.089222    2.100456    0.410641
     82          6           0       26.812711   -2.631074   -0.913757
     83          6           0       31.773643   -2.716464   -0.955660
     84          6           0       31.947311    1.867052    0.833468
     85          7           0       27.247187   -0.284387   -0.156700
     86          6           0       26.546073    0.862511   -0.032671
     87          6           0       25.074500    0.677669   -0.527130
     88          6           0       24.985260   -0.917165   -0.562462
     89          6           0       26.482053   -1.364190   -0.508852
     90          6           0       24.248863   -1.694726    0.551913
     91          6           0       24.918806    1.369988   -1.933787
     92          6           0       23.535175    2.040009   -2.160304
     93          1           0       22.918745    1.862129   -3.607380
     94          7           0       29.316915   -2.559095   -0.638226
     95          6           0       28.146577   -3.198200   -0.951057
     96          6           0       28.499999   -4.488461   -1.407696
     97          6           0       29.920229   -4.569408   -1.515038
     98          6           0       30.433925   -3.264974   -0.977914
     99          6           0       27.518242   -5.563747   -1.809400
    100          6           0       30.707536   -5.651438   -2.171999
    101          8           0       30.168937   -6.577153   -2.757413
    102          6           0       32.144548   -5.692367   -2.250394
    103          7           0       31.583248   -0.357490   -0.119527
    104          6           0       32.323007   -1.500005   -0.458713
    105          6           0       33.789448   -1.241732   -0.306592
    106          6           0       33.882641    0.244026    0.203089
    107          6           0       32.418992    0.632980    0.320026
    108          6           0       34.381871   -2.279558    0.655289
    109          6           0       34.877920    1.138400   -0.627907
    110          6           0       35.987527    1.801390    0.130519
    111          7           0       29.548666    1.583918    0.596926
    112          6           0       30.642142    2.364496    0.881442
    113          6           0       30.215372    3.718188    1.298717
    114          6           0       28.820452    3.628438    1.047713
    115          6           0       28.478372    2.329449    0.721636
    116          6           0       31.058722    4.926967    1.672871
    117          6           0       27.631314    4.433013    0.954006
    118          8           0       27.481558    5.654262    1.115196
    119          6           0       26.454786    3.536045    0.570084
    120          6           0       25.363239    3.633822    1.557035
    121          8           0       24.276310    3.981586    1.266811
    122          8           0       25.676181    3.101330    2.774205
    123          6           0       24.470317    2.992611    3.623665
    124          1           0       26.016954   -3.327347   -1.188258
    125          1           0       32.482912   -3.490438   -1.253102
    126          1           0       32.574882    2.742931    1.013967
    127          1           0       24.411525    1.134271    0.207978
    128          1           0       24.778929   -1.349863   -1.541254
    129          1           0       24.243943   -1.117829    1.477421
    130          1           0       24.617016   -2.697712    0.767983
    131          1           0       23.214058   -1.771832    0.219950
    132          1           0       25.140880    0.667551   -2.737637
    133          1           0       25.699867    2.130164   -1.950227
    134          1           0       23.731505    3.093039   -1.957838
    135          1           0       22.937667    1.633165   -1.344184
    136          1           0       27.887913   -6.588979   -1.786868
    137          1           0       27.239543   -5.283312   -2.824808
    138          1           0       26.521839   -5.503045   -1.371639
    139          1           0       32.513681   -5.729883   -1.224687
    140          1           0       32.533391   -4.841596   -2.810675
    141          1           0       32.434601   -6.597683   -2.783741
    142          1           0       34.276820   -1.213242   -1.280853
    143          1           0       34.088661    0.403024    1.261796
    144          1           0       33.722639   -3.129982    0.831024
    145          1           0       34.575657   -1.853345    1.639611
    146          1           0       35.207472   -2.796778    0.167349
    147          1           0       34.240321    1.884355   -1.102392
    148          1           0       35.471228    0.582914   -1.353295
    149          1           0       35.927249    2.868329   -0.082515
    150          1           0       36.968109    1.473281   -0.214806
    151          1           0       35.998477    1.543249    1.189499
    152          1           0       31.418121    5.475489    0.801969
    153          1           0       31.879657    4.686262    2.349488
    154          1           0       30.303661    5.569484    2.125642
    155          1           0       25.985081    3.916629   -0.335996
    156          1           0       24.776306    2.563250    4.578023
    157          1           0       23.715818    2.369259    3.144007
    158          1           0       24.049702    3.949398    3.931158
 ---------------------------------------------------------------------

 SCF Done:  E(RPBE1PBE) =  -4067.37546865     A.U. after   17 cycles

 Excitation energies and oscillator strengths:

 Excited State   1:      Singlet-A      1.8106 eV  684.78 nm  f=0.3697  <S**2>=0.000
     310 -> 316       -0.15520
     312 -> 314        0.69950
     312 <- 314       -0.12510
 This state for optimization and/or second-order correction.
 Total Energy, E(TD-HF/TD-DFT) =  -4067.30893149
 Copying the excited state density for this state as the 1-particle RhoCI density.

 Excited State   2:      Singlet-A      1.8393 eV  674.07 nm  f=0.0000  <S**2>=0.000
     312 -> 313        0.70711

 Excited State   3:      Singlet-A      1.8469 eV  671.32 nm  f=0.3949  <S**2>=0.000
     309 -> 315       -0.16872
     311 -> 313        0.69416
     311 <- 313       -0.11314

 Excited State   4:      Singlet-A      2.0478 eV  605.46 nm  f=0.0000  <S**2>=0.000
     311 -> 314        0.70711

 Excited State   5:      Singlet-A      2.2122 eV  560.47 nm  f=0.1078  <S**2>=0.000
     309 -> 313        0.65186
     311 -> 315        0.25468

 The electronic state is 1-A.
 Alpha  occ. eigenvalues --  -46.94212 -46.90903 -19.25727 -19.25495 -19.20126
 Alpha  occ. eigenvalues --  -19.19478 -19.19001 -19.18886 -19.18885 -19.17645
 Alpha  occ. eigenvalues --  -14.42437 -14.42314 -14.42146 -14.41369 -14.39606
 Alpha  occ. eigenvalues --  -14.38898 -14.38597 -14.38461 -10.35725 -10.35453
 Alpha  occ. eigenvalues --  -10.32480 -10.31954 -10.31846 -10.30708 -10.29945
 Alpha  occ. eigenvalues --  -10.29763 -10.29690 -10.29671 -10.29477 -10.29045
 Alpha  occ. eigenvalues --  -10.29029 -10.28916 -10.28817 -10.28372 -10.27843
 Alpha  occ. eigenvalues --  -10.27813 -10.27693 -10.27335 -10.27154 -10.26973
 Alpha  occ. eigenvalues --  -10.26883 -10.26867 -10.26861 -10.26638 -10.26566
 Alpha  occ. eigenvalues --  -10.26527 -10.26391 -10.26306 -10.26305 -10.26285
 Alpha  occ. eigenvalues --  -10.26192 -10.26119 -10.26038 -10.25837 -10.25611
 Alpha  occ. eigenvalues --  -10.25608 -10.25604 -10.25597 -10.25583 -10.25330
 Alpha  occ. eigenvalues --  -10.25220 -10.25075 -10.25000 -10.24960 -10.24944
 Alpha  occ. eigenvalues --  -10.24595 -10.24547 -10.24533 -10.24429 -10.24396
 Alpha  occ. eigenvalues --  -10.24275 -10.24059 -10.24050 -10.24015 -10.23928
 Alpha  occ. eigenvalues --  -10.23519 -10.23277 -10.23255 -10.23198 -10.23196
 Alpha  occ. eigenvalues --  -10.23172 -10.23061 -10.22840 -10.22664 -10.22557
 Alpha  occ. eigenvalues --  -10.22520  -3.15951  -3.13258  -1.88802  -1.88304
 Alpha  occ. eigenvalues --   -1.88166  -1.86103  -1.85651  -1.85479  -1.12737
 Alpha  occ. eigenvalues --   -1.11620  -1.05071  -1.04383  -1.03881  -1.03608
 Alpha  occ. eigenvalues --   -1.03097  -1.01896  -1.00055  -0.99750  -0.98524
 Alpha  occ. eigenvalues --   -0.98416  -0.98041  -0.97736  -0.97283  -0.96724
 Alpha  occ. eigenvalues --   -0.87614  -0.86950  -0.83720  -0.83389  -0.83378
 Alpha  occ. eigenvalues --   -0.83125  -0.82934  -0.82572  -0.82365  -0.82195
 Alpha  occ. eigenvalues --   -0.81494  -0.81286  -0.80897  -0.80231  -0.79186
 Alpha  occ. eigenvalues --   -0.78944  -0.78640  -0.78269  -0.77027  -0.76805
 Alpha  occ. eigenvalues --   -0.76765  -0.75822  -0.75504  -0.75238  -0.74935
 Alpha  occ. eigenvalues --   -0.74911  -0.73010  -0.72743  -0.71916  -0.71863
 Alpha  occ. eigenvalues --   -0.71520  -0.71206  -0.70804  -0.70473  -0.69828
 Alpha  occ. eigenvalues --   -0.69591  -0.67640  -0.67614  -0.67000  -0.66261
 Alpha  occ. eigenvalues --   -0.63872  -0.63804  -0.63648  -0.63320  -0.62669
 Alpha  occ. eigenvalues --   -0.62433  -0.61345  -0.60784  -0.60562  -0.60240
 Alpha  occ. eigenvalues --   -0.60169  -0.59606  -0.59403  -0.59237  -0.59194
 Alpha  occ. eigenvalues --   -0.58699  -0.57841  -0.56626  -0.54812  -0.54691
 Alpha  occ. eigenvalues --   -0.54582  -0.54570  -0.53713  -0.53600  -0.53511
 Alpha  occ. eigenvalues --   -0.53499  -0.52898  -0.52875  -0.52410  -0.51680
 Alpha  occ. eigenvalues --   -0.51148  -0.51025  -0.50629  -0.50458  -0.50191
 Alpha  occ. eigenvalues --   -0.49663  -0.49649  -0.49235  -0.49124  -0.48824
 Alpha  occ. eigenvalues --   -0.48225  -0.48022  -0.48005  -0.47986  -0.47791
 Alpha  occ. eigenvalues --   -0.47421  -0.47399  -0.47280  -0.47108  -0.46896
 Alpha  occ. eigenvalues --   -0.46807  -0.46326  -0.46310  -0.46284  -0.46035
 Alpha  occ. eigenvalues --   -0.45899  -0.45895  -0.45585  -0.45011  -0.44889
 Alpha  occ. eigenvalues --   -0.44732  -0.44587  -0.44531  -0.44449  -0.44273
 Alpha  occ. eigenvalues --   -0.44234  -0.43919  -0.43824  -0.43696  -0.43579
 Alpha  occ. eigenvalues --   -0.43408  -0.43265  -0.43101  -0.42968  -0.42803
 Alpha  occ. eigenvalues --   -0.42735  -0.42370  -0.42267  -0.42147  -0.42012
 Alpha  occ. eigenvalues --   -0.41842  -0.41677  -0.41605  -0.41587  -0.41447
 Alpha  occ. eigenvalues --   -0.41329  -0.41123  -0.41103  -0.41035  -0.40849
 Alpha  occ. eigenvalues --   -0.40561  -0.40520  -0.40182  -0.39949  -0.39948
 Alpha  occ. eigenvalues --   -0.39824  -0.39681  -0.39500  -0.39431  -0.39168
 Alpha  occ. eigenvalues --   -0.38997  -0.38856  -0.38572  -0.38561  -0.38484
 Alpha  occ. eigenvalues --   -0.38348  -0.38249  -0.38215  -0.37875  -0.37707
 Alpha  occ. eigenvalues --   -0.37683  -0.37519  -0.37079  -0.36881  -0.36711
 Alpha  occ. eigenvalues --   -0.36650  -0.36543  -0.36357  -0.36180  -0.35988
 Alpha  occ. eigenvalues --   -0.35945  -0.35785  -0.35607  -0.35587  -0.35329
 Alpha  occ. eigenvalues --   -0.35036  -0.34922  -0.34740  -0.34590  -0.34173
 Alpha  occ. eigenvalues --   -0.33659  -0.33363  -0.32979  -0.32908  -0.32568
 Alpha  occ. eigenvalues --   -0.32474  -0.32253  -0.31981  -0.31968  -0.31678
 Alpha  occ. eigenvalues --   -0.31499  -0.31452  -0.29828  -0.29495  -0.29372
 Alpha  occ. eigenvalues --   -0.29112  -0.29070  -0.28472  -0.27158  -0.27065
 Alpha  occ. eigenvalues --   -0.26202  -0.25994  -0.25989  -0.25728  -0.25412
 Alpha  occ. eigenvalues --   -0.25074  -0.24812  -0.24622  -0.21467  -0.21466
 Alpha  occ. eigenvalues --   -0.19266  -0.18786
 Alpha virt. eigenvalues --   -0.11800  -0.11516  -0.05775  -0.05109  -0.03919
 Alpha virt. eigenvalues --   -0.03837  -0.02068  -0.02023  -0.01545   0.00192
 Alpha virt. eigenvalues --    0.00562   0.00994   0.01275   0.01367   0.01408

 Mulliken charges:
               1
     1  Mg  11.998541
     2  C    5.975184
     3  C    5.995397
     4  C    6.029657
     5  C    6.013515
     6  N    6.988170
     7  C    6.038927
     8  C    5.985304
     9  C    6.006723
    10  C    5.975295
    11  C    6.004204
    12  C    5.997181
    13  C    6.002415
    14  H    0.995919
    15  N    7.006047
    16  C    5.963716
    17  C    5.976374
    18  C    5.992429
    19  C    5.955118
    20  C    6.004754
    21  C    5.987504
    22  O    7.974919
    23  C    6.005563
    24  N    7.017894
    25  C    5.961494
    26  C    6.007932
    27  C    5.994680
    28  C    6.020918
    29  C    6.001070
    30  C    5.992638
    31  C    5.999393
    32  N    6.996239
    33  C    6.022567
    34  C    6.034983
    35  C    5.998718
    36  C    6.031592
    37  C    5.995943
    38  C    6.015351
    39  O    8.026326
    40  C    6.002819
    41  C    6.001801
    42  O    8.003877
    43  O    8.001688
    44  C    5.999118
    45  H    0.983685
    46  H    0.995710
    47  H    1.013949
    48  H    1.001859
    49  H    0.998866
    50  H    0.999763
    51  H    0.985453
    52  H    1.001593
    53  H    1.005209
    54  H    0.992609
    55  H    1.006937
    56  H    1.002277
    57  H    0.981699
    58  H    0.982794
    59  H    0.984817
    60  H    0.986367
    61  H    0.994329
    62  H    0.994515
    63  H    1.001571
    64  H    1.001201
    65  H    0.987917
    66  H    0.994483
    67  H    1.007451
    68  H    0.995334
    69  H    1.015156
    70  H    1.007188
    71  H    1.004574
    72  H    0.999457
    73  H    1.022008
    74  H    1.017622
    75  H    1.015891
    76  H    1.007625
    77  H    1.005020
    78  H    1.004966
    79  H    1.000204
    80  Mg  11.999985
    81  C    6.000000
    82  C    6.000019
    83  C    5.999991
    84  C    5.999984
    85  N    7.000023
    86  C    6.000092
    87  C    5.999968
    88  C    6.000021
    89  C    5.999896
    90  C    6.000033
    91  C    5.999994
    92  C    5.999989
    93  H    1.000044
    94  N    7.000013
    95  C    5.999859
    96  C    5.999923
    97  C    5.999986
    98  C    5.999866
    99  C    6.000026
   100  C    5.999907
   101  O    7.999894
   102  C    6.000031
   103  N    6.999990
   104  C    5.999933
   105  C    6.000036
   106  C    5.999976
   107  C    6.000118
   108  C    6.000013
   109  C    5.999993
   110  C    5.999995
   111  N    7.000013
   112  C    6.000112
   113  C    6.000127
   114  C    5.999952
   115  C    6.000064
   116  C    6.000001
   117  C    6.000145
   118  O    8.000152
   119  C    5.999959
   120  C    6.000029
   121  O    8.000051
   122  O    7.999983
   123  C    5.999981
   124  H    0.999949
   125  H    0.999962
   126  H    1.000045
   127  H    1.000002
   128  H    1.000010
   129  H    0.999948
   130  H    1.000009
   131  H    0.999967
   132  H    1.000045
   133  H    0.999966
   134  H    0.999995
   135  H    1.000017
   136  H    0.999918
   137  H    0.999906
   138  H    0.999902
   139  H    0.999955
   140  H    0.999954
   141  H    0.999928
   142  H    0.999984
   143  H    0.999980
   144  H    1.000027
   145  H    0.999951
   146  H    0.999984
   147  H    0.999993
   148  H    1.000039
   149  H    0.999996
   150  H    1.000019
   151  H    1.000007
   152  H    1.000102
   153  H    1.000077
   154  H    1.000064
   155  H    1.000055
   156  H    1.000014
   157  H    1.000032
   158  H    1.000032
 Sum of Mulliken charges = 624.00000

 Dipole moment (field-independent basis, Debye):
    X=             -2.0403    Y=            -10.1543    Z=             -0.6516  Tot=             10.3778
 Quadrupole moment (field-independent basis, Debye-Ang):
   XX=            117.5565   YY=             -6.5088   ZZ=              3.8273
   XY=            296.2454   XZ=             20.9101   YZ=              4.8750

 Normal termination of Gaussian 16 at Fri Oct 15 04:13:49 2021.
