 Gaussian 16, Revision A.03,
 Gaussian 16:  ES64L-G16RevA.03 25-Dec-2016

 --------------------------------------------------------
 #p PBE1PBE/Def2SVP td=(nstates=5) density=(transition=1)
 --------------------------------------------------------

 --------------------------------
 TDDFT excited states in gaussian
 --------------------------------
 Symbolic Z-matrix:
 Charge =  0 Multiplicity = 1

                         Standard orientation:
 ---------------------------------------------------------------------
 Center     Atomic      Atomic             Coordinates (Angstroms)
 Number     Number       Type             X           Y           Z
 ---------------------------------------------------------------------
      1         12           0       -9.989519    0.376706    0.327791
      2          6           0       -8.705718   -2.279532   -1.506710
      3          6           0       -8.137106   -0.939669    3.093161
      4          6           0      -10.716501    3.081399    2.048668
      5          6           0      -11.100792    1.818935   -2.679328
      6          7           0       -8.499425   -1.331263    0.685248
      7          6           0       -8.233990   -2.323222   -0.231997
      8          6           0       -7.263199   -3.346032    0.364403
      9          6           0       -7.351815   -3.018403    1.880660
     10          6           0       -7.998352   -1.658575    1.914752
     11          6           0       -8.135469   -4.014317    2.822901
     12          6           0       -5.839716   -3.230139   -0.205048
     13          6           0       -4.896898   -4.296647    0.203370
     14          1           0       -3.642904   -4.539313   -0.720593
     15          7           0       -9.490247    1.020471    2.320120
     16          6           0       -8.751716    0.331305    3.294656
     17          6           0       -8.723549    1.136948    4.483457
     18          6           0       -9.361213    2.389587    4.154225
     19          6           0       -9.922854    2.186538    2.774113
     20          6           0       -7.961051    0.717533    5.770541
     21          6           0       -9.449682    3.557834    5.141325
     22          8           0       -9.116431    3.442152    6.309045
     23          6           0       -9.963061    4.862820    4.664939
     24          7           0      -10.996435    2.096446   -0.216702
     25          6           0      -11.203960    3.045198    0.702687
     26          6           0      -11.831019    4.325592    0.016290
     27          6           0      -11.923970    3.989418   -1.521744
     28          6           0      -11.233590    2.518051   -1.501855
     29          6           0      -13.137828    4.898432    0.625189
     30          6           0      -11.093757    5.000703   -2.340920
     31          6           0      -11.601126    5.261114   -3.764457
     32          7           0       -9.957431   -0.069051   -1.723991
     33          6           0      -10.545753    0.527604   -2.803811
     34          6           0      -10.401387   -0.362893   -3.961675
     35          6           0       -9.783305   -1.482159   -3.472189
     36          6           0       -9.467526   -1.258551   -2.151231
     37          6           0      -10.973674   -0.121791   -5.362285
     38          6           0       -9.258410   -2.762302   -3.841449
     39          8           0       -9.273478   -3.373877   -4.881223
     40          6           0       -8.547741   -3.341172   -2.572630
     41          6           0       -9.283305   -4.570847   -2.168535
     42          8           0      -10.467949   -4.693333   -2.023397
     43          8           0       -8.344773   -5.563276   -1.836614
     44          6           0       -8.892335   -6.796026   -1.346264
     45          1           0       -7.620475   -1.468226    3.896436
     46          1           0      -11.046736    4.022366    2.494647
     47          1           0      -11.497203    2.205166   -3.620812
     48          1           0       -7.724723   -4.319664    0.205330
     49          1           0       -6.402015   -2.856620    2.389171
     50          1           0       -7.433106   -4.216570    3.631250
     51          1           0       -8.725725   -4.801933    2.353775
     52          1           0       -8.920419   -3.427966    3.300322
     53          1           0       -5.277909   -2.349145    0.106496
     54          1           0       -5.880041   -3.184364   -1.293396
     55          1           0       -5.479096   -5.215275    0.275949
     56          1           0       -4.555670   -4.094174    1.218440
     57          1           0       -7.114289    1.393720    5.648540
     58          1           0       -7.505302   -0.272701    5.754932
     59          1           0       -8.379700    0.803648    6.773415
     60          1           0       -9.400411    5.060738    3.752613
     61          1           0       -9.689738    5.625939    5.393846
     62          1           0      -11.025236    4.673434    4.508019
     63          1           0      -11.099721    5.120175    0.167088
     64          1           0      -12.935325    3.908643   -1.918893
     65          1           0      -12.886691    5.817680    1.155306
     66          1           0      -13.605897    4.123639    1.231496
     67          1           0      -13.801537    5.228705   -0.173853
     68          1           0      -10.087233    4.583483   -2.357943
     69          1           0      -10.944149    5.959485   -1.844074
     70          1           0      -11.761357    6.339801   -3.770535
     71          1           0      -12.477696    4.678391   -4.047859
     72          1           0      -10.812610    5.058835   -4.489422
     73          1           0      -10.312133   -0.340082   -6.199972
     74          1           0      -11.248788    0.931922   -5.310672
     75          1           0      -11.947356   -0.611824   -5.374979
     76          1           0       -7.525382   -3.569803   -2.873887
     77          1           0       -8.731291   -7.535959   -2.130324
     78          1           0       -9.937863   -6.833551   -1.039440
     79          1           0       -8.332335   -7.063946   -0.450727
     80         12           0        9.781533    0.764266   -0.159025
     81          6           0        8.772603   -2.429809    0.748895
     82          6           0        6.559606    1.708181   -0.478922
     83          6           0       10.879335    3.752471   -1.193597
     84          6           0       13.092995   -0.355974    0.044101
     85          7           0        7.904007   -0.313078    0.156740
     86          6           0        7.710138   -1.532059    0.600306
     87          6           0        6.132815   -1.750174    0.734279
     88          6           0        5.691661   -0.781234   -0.342288
     89          6           0        6.774021    0.336480   -0.206135
     90          6           0        5.617383   -1.496357   -1.708593
     91          6           0        5.669967   -1.582936    2.245259
     92          6           0        4.315958   -2.220451    2.571762
     93          1           0        3.448887   -2.722454    1.430111
     94          7           0        8.867128    2.520441   -0.575271
     95          6           0        7.489348    2.725038   -0.574833
     96          6           0        7.253085    4.193586   -0.711589
     97          6           0        8.540681    4.820166   -0.994462
     98          6           0        9.452480    3.645414   -0.997176
     99          6           0        5.877746    4.812303   -0.628767
    100          6           0        8.947164    6.351889   -1.201507
    101          8           0       10.110286    6.737122   -1.361595
    102          6           0        7.816587    7.359211   -1.174928
    103          7           0       11.647385    1.530595   -0.620751
    104          6           0       11.855956    2.775790   -1.039952
    105          6           0       13.348556    3.050465   -1.400519
    106          6           0       14.008957    1.819700   -0.762847
    107          6           0       12.866791    0.942333   -0.356682
    108          6           0       13.629372    3.217623   -2.920023
    109          6           0       15.144795    2.049438    0.330736
    110          6           0       14.774817    1.839090    1.762206
    111          7           0       10.778467   -1.055525    0.093147
    112          6           0       12.094356   -1.350514    0.216962
    113          6           0       12.337335   -2.724803    0.476242
    114          6           0       11.016681   -3.222814    0.708538
    115          6           0       10.177009   -2.160284    0.463788
    116          6           0       13.578255   -3.577167    0.537971
    117          6           0       10.204943   -4.346217    1.071103
    118          8           0       10.484102   -5.492434    1.349564
    119          6           0        8.730269   -3.872249    1.272489
    120          6           0        7.825455   -4.752498    0.527106
    121          8           0        7.879943   -4.870799   -0.687559
    122          8           0        7.019124   -5.577787    1.352035
    123          6           0        6.178397   -6.563285    0.654335
    124          1           0        5.508431    1.954819   -0.635214
    125          1           0       11.201671    4.723337   -1.573655
    126          1           0       14.135043   -0.681365    0.048769
    127          1           0        5.883609   -2.785071    0.503694
    128          1           0        4.746956   -0.278985   -0.135521
    129          1           0        4.546539   -1.483414   -1.914411
    130          1           0        5.987646   -2.521789   -1.673535
    131          1           0        6.099078   -0.827242   -2.421243
    132          1           0        5.594221   -0.525145    2.498716
    133          1           0        6.413402   -2.129039    2.826397
    134          1           0        3.756751   -1.482404    3.145983
    135          1           0        4.515485   -3.048798    3.251122
    136          1           0        5.238798    4.271245    0.070094
    137          1           0        5.324633    4.920824   -1.561150
    138          1           0        5.975940    5.807981   -0.196492
    139          1           0        7.104084    6.957786   -1.895164
    140          1           0        8.086036    8.354036   -1.528455
    141          1           0        7.437308    7.461871   -0.158080
    142          1           0       13.708046    3.966868   -0.932720
    143          1           0       14.406041    1.242729   -1.597229
    144          1           0       14.545183    2.654309   -3.100746
    145          1           0       13.728870    4.234984   -3.295226
    146          1           0       12.769252    2.823336   -3.461228
    147          1           0       15.594281    3.027354    0.157890
    148          1           0       15.923617    1.300038    0.191386
    149          1           0       15.311364    0.955864    2.109612
    150          1           0       13.751883    1.511722    1.952095
    151          1           0       15.058922    2.654012    2.428096
    152          1           0       14.475322   -3.027128    0.251486
    153          1           0       13.407688   -4.491332   -0.031373
    154          1           0       13.896139   -3.902452    1.528780
    155          1           0        8.439375   -3.889373    2.322483
    156          1           0        5.441683   -7.066248    1.280254
    157          1           0        6.906747   -7.278005    0.270250
    158          1           0        5.749311   -6.027094   -0.191303
 ---------------------------------------------------------------------

 SCF Done:  E(RPBE1PBE) =  -4067.38887548     A.U. after   16 cycles

 Excitation energies and oscillator strengths:

 Excited State   1:      Singlet-A      1.8148 eV  683.18 nm  f=0.0000  <S**2>=0.000
     312 -> 313        0.70708
 This state for optimization and/or second-order correction.
 Total Energy, E(TD-HF/TD-DFT) =  -4067.32218251
 Copying the excited state density for this state as the 1-particle RhoCI density.

 Excited State   2:      Singlet-A      1.8722 eV  662.24 nm  f=0.3745  <S**2>=0.000
     310 -> 316       -0.17561
     312 -> 314        0.69303
     312 <- 314       -0.10655

 Excited State   3:      Singlet-A      1.9035 eV  651.35 nm  f=0.3774  <S**2>=0.000
     309 -> 315        0.17029
     311 -> 313        0.69334
     311 <- 313       -0.10646

 Excited State   4:      Singlet-A      2.0198 eV  613.85 nm  f=0.0000  <S**2>=0.000
     311 -> 314        0.70710

 Excited State   5:      Singlet-A      2.2174 eV  559.15 nm  f=0.1410  <S**2>=0.000
     310 -> 314        0.66464
     312 -> 316        0.23646

 The electronic state is 1-A.
 Alpha  occ. eigenvalues --  -46.93168 -46.91193 -19.25773 -19.24644 -19.20849
 Alpha  occ. eigenvalues --  -19.20504 -19.19743 -19.19070 -19.18842 -19.18356
 Alpha  occ. eigenvalues --  -14.42350 -14.41921 -14.41400 -14.41111 -14.39861
 Alpha  occ. eigenvalues --  -14.39653 -14.39024 -14.38444 -10.36680 -10.35937
 Alpha  occ. eigenvalues --  -10.34208 -10.31937 -10.31604 -10.31446 -10.30018
 Alpha  occ. eigenvalues --  -10.29191 -10.29056 -10.28895 -10.28738 -10.28664
 Alpha  occ. eigenvalues --  -10.28586 -10.28581 -10.28552 -10.28415 -10.28348
 Alpha  occ. eigenvalues --  -10.28338 -10.28168 -10.27828 -10.27668 -10.27426
 Alpha  occ. eigenvalues --  -10.27030 -10.26865 -10.26494 -10.26456 -10.26274
 Alpha  occ. eigenvalues --  -10.26227 -10.26224 -10.26194 -10.26103 -10.26053
 Alpha  occ. eigenvalues --  -10.26040 -10.25934 -10.25879 -10.25782 -10.25598
 Alpha  occ. eigenvalues --  -10.25590 -10.25396 -10.25386 -10.25386 -10.25370
 Alpha  occ. eigenvalues --  -10.25340 -10.25309 -10.25268 -10.25055 -10.24805
 Alpha  occ. eigenvalues --  -10.24795 -10.24710 -10.24667 -10.24355 -10.24295
 Alpha  occ. eigenvalues --  -10.24144 -10.24079 -10.24055 -10.24043 -10.23878
 Alpha  occ. eigenvalues --  -10.23830 -10.23770 -10.23444 -10.23381 -10.23293
 Alpha  occ. eigenvalues --  -10.23241 -10.23233 -10.23090 -10.22205 -10.22056
 Alpha  occ. eigenvalues --  -10.22024  -3.15172  -3.13532  -1.88019  -1.87551
 Alpha  occ. eigenvalues --   -1.87381  -1.86386  -1.85871  -1.85804  -1.11526
 Alpha  occ. eigenvalues --   -1.09281  -1.05395  -1.05029  -1.04799  -1.04538
 Alpha  occ. eigenvalues --   -1.03825  -1.01627  -1.00390  -0.99452  -0.99421
 Alpha  occ. eigenvalues --   -0.98805  -0.98567  -0.98423  -0.97729  -0.97584
 Alpha  occ. eigenvalues --   -0.87883  -0.86618  -0.83796  -0.83609  -0.83562
 Alpha  occ. eigenvalues --   -0.83237  -0.82830  -0.82577  -0.82534  -0.81595
 Alpha  occ. eigenvalues --   -0.81295  -0.80999  -0.80765  -0.80323  -0.79550
 Alpha  occ. eigenvalues --   -0.78544  -0.78476  -0.78036  -0.77468  -0.77033
 Alpha  occ. eigenvalues --   -0.76895  -0.76603  -0.75805  -0.75355  -0.75353
 Alpha  occ. eigenvalues --   -0.74466  -0.72762  -0.72224  -0.71828  -0.71621
 Alpha  occ. eigenvalues --   -0.71402  -0.71038  -0.70664  -0.70157  -0.69960
 Alpha  occ. eigenvalues --   -0.69444  -0.67911  -0.67356  -0.66613  -0.65639
 Alpha  occ. eigenvalues --   -0.63905  -0.63707  -0.63550  -0.63165  -0.62440
 Alpha  occ. eigenvalues --   -0.62388  -0.61192  -0.60904  -0.60626  -0.60248
 Alpha  occ. eigenvalues --   -0.59604  -0.59556  -0.59248  -0.59184  -0.58789
 Alpha  occ. eigenvalues --   -0.58436  -0.57423  -0.55913  -0.55074  -0.54837
 Alpha  occ. eigenvalues --   -0.54676  -0.54228  -0.54000  -0.53760  -0.53455
 Alpha  occ. eigenvalues --   -0.53242  -0.52714  -0.52564  -0.52370  -0.52118
 Alpha  occ. eigenvalues --   -0.51235  -0.50531  -0.50412  -0.50254  -0.50066
 Alpha  occ. eigenvalues --   -0.50025  -0.49601  -0.49341  -0.49096  -0.48726
 Alpha  occ. eigenvalues --   -0.48452  -0.48282  -0.48234  -0.47955  -0.47745
 Alpha  occ. eigenvalues --   -0.47662  -0.47475  -0.47460  -0.47150  -0.46940
 Alpha  occ. eigenvalues --   -0.46685  -0.46654  -0.46461  -0.46438  -0.46265
 Alpha  occ. eigenvalues --   -0.45859  -0.45587  -0.45455  -0.45211  -0.45109
 Alpha  occ. eigenvalues --   -0.45106  -0.45058  -0.45002  -0.44644  -0.44407
 Alpha  occ. eigenvalues --   -0.44106  -0.44086  -0.43891  -0.43880  -0.43615
 Alpha  occ. eigenvalues --   -0.43497  -0.43487  -0.43239  -0.43114  -0.43005
 Alpha  occ. eigenvalues --   -0.42901  -0.42371  -0.42355  -0.42156  -0.42044
 Alpha  occ. eigenvalues --   -0.42020  -0.41889  -0.41682  -0.41272  -0.41260
 Alpha  occ. eigenvalues --   -0.41224  -0.41151  -0.41008  -0.40769  -0.40697
 Alpha  occ. eigenvalues --   -0.40529  -0.40494  -0.40249  -0.39994  -0.39688
 Alpha  occ. eigenvalues --   -0.39502  -0.39452  -0.39168  -0.39151  -0.38843
 Alpha  occ. eigenvalues --   -0.38780  -0.38563  -0.38524  -0.38357  -0.38316
 Alpha  occ. eigenvalues --   -0.38152  -0.38090  -0.37955  -0.37926  -0.37793
 Alpha  occ. eigenvalues --   -0.37761  -0.37422  -0.37369  -0.37293  -0.36994
 Alpha  occ. eigenvalues --   -0.36962  -0.36815  -0.36691  -0.36528  -0.36278
 Alpha  occ. eigenvalues --   -0.35927  -0.35834  -0.35596  -0.35517  -0.35360
 Alpha  occ. eigenvalues --   -0.35006  -0.34891  -0.34878  -0.34807  -0.34128
 Alpha  occ. eigenvalues --   -0.33866  -0.33191  -0.33178  -0.33067  -0.32815
 Alpha  occ. eigenvalues --   -0.32572  -0.32109  -0.31722  -0.31623  -0.31270
 Alpha  occ. eigenvalues --   -0.31236  -0.30583  -0.30263  -0.29709  -0.29699
 Alpha  occ. eigenvalues --   -0.29383  -0.29043  -0.28589  -0.27526  -0.26862
 Alpha  occ. eigenvalues --   -0.26636  -0.26154  -0.26012  -0.25937  -0.25723
 Alpha  occ. eigenvalues --   -0.25481  -0.25264  -0.25258  -0.21688  -0.20850
 Alpha  occ. eigenvalues --   -0.19405  -0.18984
 Alpha virt. eigenvalues --   -0.11642  -0.11305  -0.05611  -0.04815  -0.04209
 Alpha virt. eigenvalues --   -0.03448  -0.02041  -0.01853  -0.00858   0.00113
 Alpha virt. eigenvalues --    0.00137   0.00556   0.00861   0.01392   0.01683

 Mulliken charges:
               1
     1  Mg  12.000000
     2  C    6.000000
     3  C    6.000000
     4  C    6.000000
     5  C    6.000000
     6  N    7.000000
     7  C    6.000000
     8  C    6.000000
     9  C    6.000000
    10  C    6.000000
    11  C    6.000000
    12  C    6.000000
    13  C    6.000000
    14  H    1.000000
    15  N    7.000000
    16  C    6.000000
    17  C    6.000000
    18  C    6.000000
    19  C    6.000000
    20  C    6.000000
    21  C    6.000000
    22  O    8.000000
    23  C    6.000000
    24  N    7.000000
    25  C    6.000000
    26  C    6.000000
    27  C    6.000000
    28  C    6.000000
    29  C    6.000000
    30  C    6.000000
    31  C    6.000000
    32  N    7.000000
    33  C    6.000000
    34  C    6.000000
    35  C    6.000000
    36  C    6.000000
    37  C    6.000000
    38  C    6.000000
    39  O    8.000000
    40  C    6.000000
    41  C    6.000000
    42  O    8.000000
    43  O    8.000000
    44  C    6.000000
    45  H    1.000000
    46  H    1.000000
    47  H    1.000000
    48  H    1.000000
    49  H    1.000000
    50  H    1.000000
    51  H    1.000000
    52  H    1.000000
    53  H    1.000000
    54  H    1.000000
    55  H    1.000000
    56  H    1.000000
    57  H    1.000000
    58  H    1.000000
    59  H    1.000000
    60  H    1.000000
    61  H    1.000000
    62  H    1.000000
    63  H    1.000000
    64  H    1.000000
    65  H    1.000000
    66  H    1.000000
    67  H    1.000000
    68  H    1.000000
    69  H    1.000000
    70  H    1.000000
    71  H    1.000000
    72  H    1.000000
    73  H    1.000000
    74  H    1.000000
    75  H    1.000000
    76  H    1.000000
    77  H    1.000000
    78  H    1.000000
    79  H    1.000000
    80  Mg  12.000000
    81  C    6.000000
    82  C    6.000000
    83  C    6.000000
    84  C    6.000000
    85  N    7.000000
    86  C    6.000000
    87  C    6.000000
    88  C    6.000000
    89  C    6.000000
    90  C    6.000000
    91  C    6.000000
    92  C    6.000000
    93  H    1.000000
    94  N    7.000000
    95  C    6.000000
    96  C    6.000000
    97  C    6.000000
    98  C    6.000000
    99  C    6.000000
   100  C    6.000000
   101  O    8.000000
   102  C    6.000000
   103  N    7.000000
   104  C    6.000000
   105  C    6.000000
   106  C    6.000000
   107  C    6.000000
   108  C    6.000000
   109  C    6.000000
   110  C    6.000000
   111  N    7.000000
   112  C    6.000000
   113  C    6.000000
   114  C    6.000000
   115  C    6.000000
   116  C    6.000000
   117  C    6.000000
   118  O    8.000000
   119  C    6.000000
   120  C    6.000000
   121  O    8.000000
   122  O    8.000000
   123  C    6.000000
   124  H    1.000000
   125  H    1.000000
   126  H    1.000000
   127  H    1.000000
   128  H    1.000000
   129  H    1.000000
   130  H    1.000000
   131  H    1.000000
   132  H    1.000000
   133  H    1.000000
   134  H    1.000000
   135  H    1.000000
   136  H    1.000000
   137  H    1.000000
   138  H    1.000000
   139  H    1.000000
   140  H    1.000000
   141  H    1.000000
   142  H    1.000000
   143  H    1.000000
   144  H    1.000000
   145  H    1.000000
   146  H    1.000000
   147  H    1.000000
   148  H    1.000000
   149  H    1.000000
   150  H    1.000000
   151  H    1.000000
   152  H    1.000000
   153  H    1.000000
   154  H    1.000000
   155  H    1.000000
   156  H    1.000000
   157  H    1.000000
   158  H    1.000000
 Sum of Mulliken charges = 624.00000

 Dipole moment (field-independent basis, Debye):
    X=              0.0000    Y=             -0.0000    Z=             -0.0000  Tot=              0.0000
 Quadrupole moment (field-independent basis, Debye-Ang):
   XX=              0.0000   YY=             -0.0000   ZZ=             -0.0000
   XY=             -0.0000   XZ=              0.0000   YZ=             -0.0000

 Normal termination of Gaussian 16 at Fri Oct 15 17:16:19 2021.
