 Gaussian 16, Revision A.03,
 Gaussian 16:  ES64L-G16RevA.03 25-Dec-2016

 --------------------------------------------------------
 #p PBE1PBE/Def2SVP td=(nstates=5) density=(transition=1)
 --------------------------------------------------------

 --------------------------------
 TDDFT excited states in gaussian
 --------------------------------
 Symbolic Z-matrix:
 Charge =  0 Multiplicity = 1

                         Standard orientation:
 ---------------------------------------------------------------------
 Center     Atomic      Atomic             Coordinates (Angstroms)
 Number     Number       Type             X           Y           Z
 ---------------------------------------------------------------------
      1         12           0       -9.985014    0.291994    0.132256
      2          6           0       -8.591103   -2.271876   -1.689131
      3          6           0       -8.564411   -0.852457    3.030449
      4          6           0      -11.254948    3.020122    1.925576
      5          6           0      -10.736808    1.982837   -2.783574
      6          7           0       -8.539896   -1.282917    0.496362
      7          6           0       -8.215292   -2.358191   -0.335207
      8          6           0       -7.272636   -3.341372    0.363384
      9          6           0       -7.490249   -2.899914    1.833002
     10          6           0       -8.183027   -1.521881    1.818530
     11          6           0       -8.180076   -3.980192    2.694527
     12          6           0       -5.816936   -3.201082   -0.124074
     13          6           0       -5.019512   -4.529666   -0.362238
     14          1           0       -3.561430   -4.467554   -0.123357
     15          7           0       -9.954850    0.927610    2.156554
     16          6           0       -9.400261    0.280649    3.207122
     17          6           0       -9.797223    0.824559    4.471240
     18          6           0      -10.691760    1.871395    4.194196
     19          6           0      -10.694711    1.972607    2.676080
     20          6           0       -9.424404    0.221714    5.827193
     21          6           0      -11.448896    2.772908    5.235478
     22          8           0      -11.190582    2.620744    6.456879
     23          6           0      -12.586488    3.810675    4.842345
     24          7           0      -10.601591    2.365154   -0.366373
     25          6           0      -11.198398    3.193626    0.524787
     26          6           0      -11.882732    4.366062   -0.129907
     27          6           0      -11.690935    4.087063   -1.636278
     28          6           0      -11.006849    2.717741   -1.617055
     29          6           0      -13.363116    4.594918    0.322343
     30          6           0      -10.928166    5.267328   -2.406880
     31          6           0      -11.827358    6.141415   -3.288784
     32          7           0       -9.787543   -0.059262   -1.844184
     33          6           0      -10.163259    0.695778   -2.977018
     34          6           0      -10.026098   -0.135703   -4.180085
     35          6           0       -9.487853   -1.316418   -3.687596
     36          6           0       -9.260733   -1.146219   -2.311975
     37          6           0      -10.338283    0.173629   -5.600470
     38          6           0       -9.005120   -2.645355   -4.089321
     39          8           0       -9.137320   -3.289808   -5.142817
     40          6           0       -8.438259   -3.345602   -2.789776
     41          6           0       -9.206879   -4.619570   -2.465531
     42          8           0      -10.431123   -4.782694   -2.466065
     43          8           0       -8.222496   -5.537310   -2.248203
     44          6           0       -8.647021   -6.917418   -2.083229
     45          1           0       -8.121913   -1.210680    3.962191
     46          1           0      -11.762828    3.878109    2.371088
     47          1           0      -10.958827    2.457327   -3.741530
     48          1           0       -7.592654   -4.363217    0.156927
     49          1           0       -6.474337   -2.782658    2.210068
     50          1           0       -8.149580   -5.022011    2.375566
     51          1           0       -9.240560   -3.729101    2.680309
     52          1           0       -7.809997   -3.988096    3.719481
     53          1           0       -5.222715   -2.536620    0.502626
     54          1           0       -5.883012   -2.594069   -1.027319
     55          1           0       -5.183068   -4.860521   -1.387816
     56          1           0       -5.382737   -5.279602    0.341835
     57          1           0      -10.371712    0.019394    6.326454
     58          1           0       -8.668428    0.841538    6.309447
     59          1           0       -8.999264   -0.751309    5.581217
     60          1           0      -12.071727    4.729481    4.563882
     61          1           0      -13.172794    3.972829    5.746507
     62          1           0      -13.249022    3.288366    4.151638
     63          1           0      -11.339122    5.268879    0.148800
     64          1           0      -12.587270    3.828187   -2.199413
     65          1           0      -14.018647    4.778129   -0.528573
     66          1           0      -13.467314    5.436761    1.006603
     67          1           0      -13.688185    3.742063    0.916789
     68          1           0      -10.176772    4.893349   -3.102207
     69          1           0      -10.360829    5.869977   -1.697708
     70          1           0      -11.513794    7.182822   -3.214197
     71          1           0      -12.862042    6.055906   -2.957492
     72          1           0      -11.817296    5.864271   -4.342753
     73          1           0      -10.820170    1.151101   -5.622233
     74          1           0      -10.812400   -0.686830   -6.073035
     75          1           0       -9.377094    0.352220   -6.083660
     76          1           0       -7.371241   -3.557380   -2.863472
     77          1           0       -9.510970   -7.039198   -1.428646
     78          1           0       -7.896974   -7.629324   -1.738726
     79          1           0       -8.925113   -7.333422   -3.051921
     80         12           0       10.180930    0.858242    0.091659
     81          6           0        8.883854   -2.303380    0.836424
     82          6           0        6.938451    2.048414    0.420013
     83          6           0       11.288494    3.708393   -1.013426
     84          6           0       13.341859   -0.660858   -0.402856
     85          7           0        8.033306   -0.116147    0.187234
     86          6           0        7.823238   -1.356261    0.640456
     87          6           0        6.359972   -1.506590    0.891261
     88          6           0        5.719106   -0.217135    0.321904
     89          6           0        6.950930    0.666270    0.325024
     90          6           0        5.004504   -0.254071   -1.030111
     91          6           0        6.044038   -1.690721    2.409530
     92          6           0        5.105083   -2.859112    2.852032
     93          1           0        3.989752   -3.349838    1.877032
     94          7           0        9.250272    2.711749   -0.113631
     95          6           0        7.944451    2.994394    0.264663
     96          6           0        7.767130    4.399390    0.091107
     97          6           0        9.004847    4.919236   -0.463294
     98          6           0        9.929596    3.798929   -0.550686
     99          6           0        6.439742    5.152423    0.327923
    100          6           0        9.348587    6.352166   -0.962373
    101          8           0       10.398624    6.671862   -1.422407
    102          6           0        8.267261    7.397841   -0.773474
    103          7           0       12.050541    1.402137   -0.584695
    104          6           0       12.241140    2.653822   -1.058339
    105          6           0       13.687840    2.926706   -1.554489
    106          6           0       14.392516    1.579856   -1.091514
    107          6           0       13.229479    0.706652   -0.635770
    108          6           0       13.699209    3.227959   -3.162516
    109          6           0       15.555624    1.797003   -0.073265
    110          6           0       15.253571    1.601982    1.401753
    111          7           0       11.042490   -1.083325    0.216024
    112          6           0       12.333296   -1.516835    0.076578
    113          6           0       12.365535   -2.992551    0.370761
    114          6           0       11.024284   -3.319887    0.672602
    115          6           0       10.220939   -2.140206    0.531184
    116          6           0       13.517620   -3.943366    0.190627
    117          6           0       10.120956   -4.404505    1.048983
    118          8           0       10.396850   -5.593781    1.230862
    119          6           0        8.772502   -3.742762    1.316984
    120          6           0        7.766379   -4.540246    0.537622
    121          8           0        7.581396   -4.455036   -0.662600
    122          8           0        7.297099   -5.447659    1.378102
    123          6           0        6.623020   -6.612662    0.826813
    124          1           0        5.906543    2.402109    0.380228
    125          1           0       11.722191    4.690305   -1.212390
    126          1           0       14.320743   -1.125360   -0.541059
    127          1           0        6.008145   -2.396092    0.369630
    128          1           0        4.940495    0.067406    1.029768
    129          1           0        4.942758   -1.226452   -1.519068
    130          1           0        5.480592    0.436417   -1.726853
    131          1           0        3.990704    0.099111   -0.842808
    132          1           0        5.711101   -0.775573    2.898737
    133          1           0        7.055057   -1.875726    2.772189
    134          1           0        4.628283   -2.470459    3.752756
    135          1           0        5.721406   -3.719699    3.110851
    136          1           0        6.124289    5.749094   -0.528039
    137          1           0        6.528001    5.912542    1.104306
    138          1           0        5.605422    4.515282    0.624252
    139          1           0        7.881550    7.428071    0.245762
    140          1           0        7.488599    7.212287   -1.513414
    141          1           0        8.626115    8.375695   -1.094553
    142          1           0       14.142867    3.787099   -1.064106
    143          1           0       14.907199    1.066576   -1.903638
    144          1           0       14.149079    2.336300   -3.599370
    145          1           0       14.388685    4.021671   -3.451024
    146          1           0       12.706763    3.304332   -3.608157
    147          1           0       15.772697    2.862275   -0.153083
    148          1           0       16.455225    1.243732   -0.342139
    149          1           0       14.291757    2.097315    1.540122
    150          1           0       16.091376    2.127656    1.859250
    151          1           0       15.084532    0.606260    1.810906
    152          1           0       14.435717   -3.572631   -0.265274
    153          1           0       13.198467   -4.776705   -0.435464
    154          1           0       13.687697   -4.369733    1.178753
    155          1           0        8.402824   -3.854943    2.336416
    156          1           0        6.599179   -6.771236   -0.250853
    157          1           0        5.583333   -6.435957    1.104069
    158          1           0        6.761472   -7.443035    1.519319
 ---------------------------------------------------------------------

 SCF Done:  E(RPBE1PBE) =  -4067.39191783     A.U. after   16 cycles

 Excitation energies and oscillator strengths:

 Excited State   1:      Singlet-A      1.8385 eV  674.37 nm  f=0.3483  <S**2>=0.000
     309 -> 315        0.16817
     311 -> 313        0.69270
     311 <- 313       -0.10470
 This state for optimization and/or second-order correction.
 Total Energy, E(TD-HF/TD-DFT) =  -4067.32435352
 Copying the excited state density for this state as the 1-particle RhoCI density.

 Excited State   2:      Singlet-A      1.8596 eV  666.71 nm  f=0.0000  <S**2>=0.000
     312 -> 313        0.70708

 Excited State   3:      Singlet-A      1.8763 eV  660.78 nm  f=0.3792  <S**2>=0.000
     310 -> 316        0.18224
     312 -> 314        0.69072
     312 <- 314       -0.10328

 Excited State   4:      Singlet-A      1.9534 eV  634.71 nm  f=0.0000  <S**2>=0.000
     311 -> 314        0.70710

 Excited State   5:      Singlet-A      2.2076 eV  561.62 nm  f=0.0973  <S**2>=0.000
     310 -> 314        0.65453
     312 -> 316       -0.25256

 The electronic state is 1-A.
 Alpha  occ. eigenvalues --  -46.92671 -46.92185 -19.27158 -19.26825 -19.20659
 Alpha  occ. eigenvalues --  -19.19787 -19.19765 -19.19400 -19.18994 -19.18992
 Alpha  occ. eigenvalues --  -14.42094 -14.41731 -14.41394 -14.40990 -14.39814
 Alpha  occ. eigenvalues --  -14.38977 -14.38884 -14.38538 -10.37131 -10.36042
 Alpha  occ. eigenvalues --  -10.33785 -10.32406 -10.32200 -10.31799 -10.29816
 Alpha  occ. eigenvalues --  -10.29379 -10.29235 -10.29110 -10.29100 -10.28845
 Alpha  occ. eigenvalues --  -10.28816 -10.28685 -10.28672 -10.28566 -10.28112
 Alpha  occ. eigenvalues --  -10.27894 -10.27813 -10.27623 -10.27458 -10.26975
 Alpha  occ. eigenvalues --  -10.26955 -10.26835 -10.26763 -10.26480 -10.26468
 Alpha  occ. eigenvalues --  -10.26317 -10.26061 -10.26037 -10.26015 -10.26004
 Alpha  occ. eigenvalues --  -10.25955 -10.25901 -10.25877 -10.25861 -10.25811
 Alpha  occ. eigenvalues --  -10.25793 -10.25766 -10.25558 -10.25407 -10.25349
 Alpha  occ. eigenvalues --  -10.24902 -10.24893 -10.24846 -10.24799 -10.24733
 Alpha  occ. eigenvalues --  -10.24718 -10.24699 -10.24342 -10.24330 -10.24323
 Alpha  occ. eigenvalues --  -10.24292 -10.24264 -10.24239 -10.23954 -10.23780
 Alpha  occ. eigenvalues --  -10.23760 -10.23662 -10.23622 -10.23560 -10.23537
 Alpha  occ. eigenvalues --  -10.23310 -10.23295 -10.22901 -10.22696 -10.22642
 Alpha  occ. eigenvalues --  -10.22464  -3.14782  -3.14225  -1.87588  -1.87143
 Alpha  occ. eigenvalues --   -1.87074  -1.87035  -1.86634  -1.86408  -1.13040
 Alpha  occ. eigenvalues --   -1.11766  -1.06299  -1.04128  -1.03365  -1.03338
 Alpha  occ. eigenvalues --   -1.03223  -1.02752  -0.99607  -0.99515  -0.98825
 Alpha  occ. eigenvalues --   -0.98402  -0.98110  -0.97185  -0.96841  -0.96693
 Alpha  occ. eigenvalues --   -0.87578  -0.85966  -0.83261  -0.83191  -0.83080
 Alpha  occ. eigenvalues --   -0.83025  -0.82874  -0.82412  -0.81861  -0.81430
 Alpha  occ. eigenvalues --   -0.81347  -0.80675  -0.80437  -0.79864  -0.78758
 Alpha  occ. eigenvalues --   -0.78670  -0.78305  -0.77999  -0.76885  -0.76882
 Alpha  occ. eigenvalues --   -0.75884  -0.75752  -0.75406  -0.75119  -0.74618
 Alpha  occ. eigenvalues --   -0.74309  -0.72417  -0.72246  -0.71816  -0.71621
 Alpha  occ. eigenvalues --   -0.71343  -0.71083  -0.70604  -0.70332  -0.69711
 Alpha  occ. eigenvalues --   -0.69508  -0.67297  -0.67090  -0.66241  -0.66196
 Alpha  occ. eigenvalues --   -0.63875  -0.63625  -0.63468  -0.63320  -0.62450
 Alpha  occ. eigenvalues --   -0.62395  -0.61669  -0.60659  -0.60631  -0.59760
 Alpha  occ. eigenvalues --   -0.59734  -0.59535  -0.59453  -0.59224  -0.59183
 Alpha  occ. eigenvalues --   -0.58882  -0.57423  -0.57315  -0.54587  -0.54412
 Alpha  occ. eigenvalues --   -0.54279  -0.54202  -0.53772  -0.53648  -0.53291
 Alpha  occ. eigenvalues --   -0.53112  -0.52434  -0.52389  -0.51876  -0.51857
 Alpha  occ. eigenvalues --   -0.51403  -0.50597  -0.50588  -0.50505  -0.49899
 Alpha  occ. eigenvalues --   -0.49663  -0.49494  -0.49388  -0.49217  -0.48496
 Alpha  occ. eigenvalues --   -0.48163  -0.48052  -0.47937  -0.47846  -0.47471
 Alpha  occ. eigenvalues --   -0.47372  -0.47215  -0.47062  -0.46688  -0.46526
 Alpha  occ. eigenvalues --   -0.46285  -0.46251  -0.45993  -0.45921  -0.45835
 Alpha  occ. eigenvalues --   -0.45757  -0.45648  -0.45569  -0.45507  -0.44671
 Alpha  occ. eigenvalues --   -0.44666  -0.44290  -0.44201  -0.44060  -0.43970
 Alpha  occ. eigenvalues --   -0.43792  -0.43769  -0.43477  -0.43295  -0.43283
 Alpha  occ. eigenvalues --   -0.43080  -0.42948  -0.42858  -0.42830  -0.42662
 Alpha  occ. eigenvalues --   -0.42608  -0.42331  -0.42202  -0.42074  -0.41934
 Alpha  occ. eigenvalues --   -0.41601  -0.41561  -0.41401  -0.41243  -0.41145
 Alpha  occ. eigenvalues --   -0.40860  -0.40789  -0.40709  -0.40626  -0.40475
 Alpha  occ. eigenvalues --   -0.40391  -0.40273  -0.40153  -0.39947  -0.39694
 Alpha  occ. eigenvalues --   -0.39627  -0.39580  -0.39288  -0.39192  -0.38836
 Alpha  occ. eigenvalues --   -0.38777  -0.38666  -0.38489  -0.38391  -0.38266
 Alpha  occ. eigenvalues --   -0.38136  -0.38051  -0.37935  -0.37811  -0.37721
 Alpha  occ. eigenvalues --   -0.37559  -0.37407  -0.37225  -0.37075  -0.37034
 Alpha  occ. eigenvalues --   -0.36854  -0.36692  -0.36602  -0.36522  -0.36173
 Alpha  occ. eigenvalues --   -0.36105  -0.35999  -0.35841  -0.35635  -0.35570
 Alpha  occ. eigenvalues --   -0.35151  -0.34765  -0.34556  -0.34336  -0.34282
 Alpha  occ. eigenvalues --   -0.33778  -0.33472  -0.33279  -0.33214  -0.32465
 Alpha  occ. eigenvalues --   -0.32193  -0.32142  -0.32017  -0.31741  -0.31565
 Alpha  occ. eigenvalues --   -0.31331  -0.31201  -0.30147  -0.29839  -0.29456
 Alpha  occ. eigenvalues --   -0.29110  -0.28760  -0.28539  -0.27052  -0.26490
 Alpha  occ. eigenvalues --   -0.26351  -0.26026  -0.25859  -0.25705  -0.25486
 Alpha  occ. eigenvalues --   -0.25416  -0.25378  -0.24744  -0.21180  -0.20724
 Alpha  occ. eigenvalues --   -0.18821  -0.18714
 Alpha virt. eigenvalues --   -0.11217  -0.10989  -0.05628  -0.05015  -0.04087
 Alpha virt. eigenvalues --   -0.03953  -0.02584  -0.01623  -0.01204  -0.00003
 Alpha virt. eigenvalues --    0.00151   0.00593   0.01050   0.01209   0.01493

 Mulliken charges:
               1
     1  Mg  12.001024
     2  C    5.972931
     3  C    6.009198
     4  C    6.024301
     5  C    6.000588
     6  N    6.984281
     7  C    6.034526
     8  C    5.992640
     9  C    6.008426
    10  C    5.969727
    11  C    6.002929
    12  C    6.000378
    13  C    5.998657
    14  H    1.003740
    15  N    7.004450
    16  C    5.967139
    17  C    5.979725
    18  C    5.987764
    19  C    5.962744
    20  C    6.001744
    21  C    5.988959
    22  O    7.979207
    23  C    5.998019
    24  N    7.006849
    25  C    5.965383
    26  C    6.010764
    27  C    5.992185
    28  C    6.031483
    29  C    6.000661
    30  C    5.996898
    31  C    5.999443
    32  N    6.999979
    33  C    6.035633
    34  C    6.024067
    35  C    6.003236
    36  C    6.026503
    37  C    5.998266
    38  C    6.017314
    39  O    8.030254
    40  C    6.000512
    41  C    6.005381
    42  O    8.002391
    43  O    8.001565
    44  C    5.998404
    45  H    0.989773
    46  H    0.994622
    47  H    1.012774
    48  H    0.998219
    49  H    0.994998
    50  H    0.987326
    51  H    0.999242
    52  H    1.000789
    53  H    1.008316
    54  H    0.992743
    55  H    0.995282
    56  H    1.003842
    57  H    0.986314
    58  H    0.983828
    59  H    0.985145
    60  H    0.990095
    61  H    0.989398
    62  H    0.991734
    63  H    0.999229
    64  H    0.997572
    65  H    0.990441
    66  H    1.002374
    67  H    1.003398
    68  H    0.996899
    69  H    1.011034
    70  H    1.005276
    71  H    1.005247
    72  H    0.997995
    73  H    1.014686
    74  H    1.015028
    75  H    1.018349
    76  H    1.007368
    77  H    1.004857
    78  H    1.005077
    79  H    1.000459
    80  Mg  12.000035
    81  C    6.000108
    82  C    6.000162
    83  C    5.999862
    84  C    6.000087
    85  N    6.999980
    86  C    5.999859
    87  C    5.999979
    88  C    6.000005
    89  C    6.000027
    90  C    6.000036
    91  C    5.999897
    92  C    6.000036
    93  H    0.999613
    94  N    6.999938
    95  C    6.000212
    96  C    6.000052
    97  C    6.000020
    98  C    6.000092
    99  C    5.999873
   100  C    5.999967
   101  O    8.000001
   102  C    6.000054
   103  N    7.000001
   104  C    6.000061
   105  C    6.000033
   106  C    6.000028
   107  C    5.999823
   108  C    6.000003
   109  C    5.999992
   110  C    6.000036
   111  N    7.000028
   112  C    5.999832
   113  C    5.999899
   114  C    6.000047
   115  C    5.999800
   116  C    6.000040
   117  C    5.999875
   118  O    7.999914
   119  C    6.000067
   120  C    6.000002
   121  O    7.999652
   122  O    8.000163
   123  C    6.000000
   124  H    1.000067
   125  H    1.000000
   126  H    0.999928
   127  H    0.999729
   128  H    1.000503
   129  H    0.999569
   130  H    0.999663
   131  H    0.999924
   132  H    1.000419
   133  H    1.000078
   134  H    1.000749
   135  H    0.999985
   136  H    0.999799
   137  H    1.000436
   138  H    1.000316
   139  H    1.000289
   140  H    0.999765
   141  H    1.000009
   142  H    1.000057
   143  H    0.999887
   144  H    0.999930
   145  H    0.999978
   146  H    0.999822
   147  H    0.999971
   148  H    0.999961
   149  H    1.000029
   150  H    1.000039
   151  H    1.000074
   152  H    0.999895
   153  H    0.999807
   154  H    1.000046
   155  H    1.000242
   156  H    0.999617
   157  H    1.000072
   158  H    1.000152
 Sum of Mulliken charges = 624.00000

 Dipole moment (field-independent basis, Debye):
    X=              0.2537    Y=             -1.7145    Z=             -9.8442  Tot=              9.9956
 Quadrupole moment (field-independent basis, Debye-Ang):
   XX=             -7.3550   YY=              2.9307   ZZ=             -3.7537
   XY=             18.5393   XZ=             99.9712   YZ=             -4.1245

 Normal termination of Gaussian 16 at Fri Oct 15 17:04:08 2021.
