 Gaussian 16, Revision A.03,
 Gaussian 16:  ES64L-G16RevA.03 25-Dec-2016

 --------------------------------------------------------
 #p PBE1PBE/Def2SVP td=(nstates=5) density=(transition=1)
 --------------------------------------------------------

 --------------------------------
 TDDFT excited states in gaussian
 --------------------------------
 Symbolic Z-matrix:
 Charge =  0 Multiplicity = 1

                         Standard orientation:
 ---------------------------------------------------------------------
 Center     Atomic      Atomic             Coordinates (Angstroms)
 Number     Number       Type             X           Y           Z
 ---------------------------------------------------------------------
      1         12           0      -32.099817    0.046738    0.489461
      2          6           0      -29.744744   -1.358340   -1.819729
      3          6           0      -33.546736    1.691465   -2.173776
      4          6           0      -33.804892    1.773274    2.677381
      5          6           0      -30.331209   -1.545784    3.008655
      6          7           0      -31.498157    0.372324   -1.772681
      7          6           0      -30.585945   -0.414264   -2.422501
      8          6           0      -30.784215   -0.277868   -3.955957
      9          6           0      -31.977626    0.758615   -4.085503
     10          6           0      -32.398838    1.012275   -2.592117
     11          6           0      -31.686617    2.137660   -4.814024
     12          6           0      -31.097162   -1.602445   -4.701857
     13          6           0      -30.377918   -1.867578   -5.976395
     14          1           0      -29.668830   -0.744465   -6.825513
     15          7           0      -33.523397    1.581879    0.309847
     16          6           0      -34.108409    2.049320   -0.866697
     17          6           0      -35.078419    3.108153   -0.527508
     18          6           0      -35.231999    3.044463    0.910676
     19          6           0      -34.167383    2.119914    1.364852
     20          6           0      -35.801609    3.987403   -1.502255
     21          6           0      -36.215960    3.767953    1.860004
     22          8           0      -36.466528    3.419026    3.032931
     23          6           0      -37.044436    4.846576    1.287052
     24          7           0      -32.010823    0.127445    2.482631
     25          6           0      -32.817656    1.011546    3.164643
     26          6           0      -32.778474    0.741483    4.694337
     27          6           0      -31.917708   -0.597954    4.737750
     28          6           0      -31.387598   -0.704570    3.318404
     29          6           0      -32.223078    1.881911    5.641559
     30          6           0      -32.640309   -1.871475    5.147431
     31          6           0      -32.177540   -2.503353    6.476958
     32          7           0      -30.514847   -1.347504    0.602669
     33          6           0      -29.889448   -1.878787    1.705734
     34          6           0      -28.747185   -2.701828    1.287274
     35          6           0      -28.714745   -2.554544   -0.088091
     36          6           0      -29.797363   -1.727618   -0.462293
     37          6           0      -27.775976   -3.463223    2.127716
     38          6           0      -27.994637   -2.991805   -1.229560
     39          8           0      -27.063326   -3.834097   -1.373528
     40          6           0      -28.594490   -2.266335   -2.358560
     41          6           0      -27.527246   -1.549445   -3.140521
     42          8           0      -26.927240   -0.599125   -2.769688
     43          8           0      -27.402278   -2.099871   -4.347950
     44          6           0      -26.259474   -1.795904   -5.140481
     45          1           0      -34.056874    2.258146   -2.955703
     46          1           0      -34.327876    2.238658    3.516501
     47          1           0      -29.735184   -1.978728    3.813726
     48          1           0      -29.850136    0.133759   -4.340057
     49          1           0      -32.819507    0.292471   -4.596528
     50          1           0      -30.718946    2.208443   -5.309929
     51          1           0      -31.656441    2.901550   -4.035702
     52          1           0      -32.493663    2.380653   -5.505872
     53          1           0      -32.146329   -1.690659   -4.986344
     54          1           0      -30.869765   -2.485667   -4.105632
     55          1           0      -31.075819   -2.259122   -6.717102
     56          1           0      -29.627973   -2.630658   -5.769934
     57          1           0      -35.634403    5.031824   -1.239854
     58          1           0      -36.861872    3.762310   -1.386988
     59          1           0      -35.596290    3.697532   -2.533269
     60          1           0      -36.370401    5.638827    0.961148
     61          1           0      -37.619802    5.241891    2.123829
     62          1           0      -37.764632    4.469380    0.561516
     63          1           0      -33.805082    0.498323    4.970146
     64          1           0      -31.112358   -0.428565    5.452397
     65          1           0      -31.938663    2.752936    5.052284
     66          1           0      -31.436923    1.535756    6.313651
     67          1           0      -33.027689    2.147333    6.327495
     68          1           0      -32.733584   -2.646847    4.386905
     69          1           0      -33.679028   -1.595280    5.325679
     70          1           0      -32.045556   -3.585061    6.490698
     71          1           0      -33.018837   -2.424886    7.166078
     72          1           0      -31.258688   -2.095030    6.895602
     73          1           0      -28.142814   -3.636452    3.139815
     74          1           0      -26.891553   -2.855588    2.318678
     75          1           0      -27.473069   -4.329333    1.539457
     76          1           0      -29.062868   -3.026224   -2.983541
     77          1           0      -25.426029   -2.337329   -4.690681
     78          1           0      -25.986861   -0.744767   -5.045009
     79          1           0      -26.377890   -2.163267   -6.160201
     80         12           0       31.961549    0.438930   -0.272251
     81          6           0       29.587564   -1.938200    0.556594
     82          6           0       29.547445    2.902308   -0.012197
     83          6           0       34.437264    2.732948   -0.328380
     84          6           0       34.324499   -2.176152   -0.147935
     85          7           0       29.859906    0.497835    0.500997
     86          6           0       29.114081   -0.608212    0.573279
     87          6           0       27.656040   -0.243183    0.991078
     88          6           0       27.584462    1.290398    0.535610
     89          6           0       29.100973    1.604513    0.240357
     90          6           0       26.576142    1.531680   -0.613556
     91          6           0       27.493559   -0.352873    2.490072
     92          6           0       26.181904   -0.958787    2.964455
     93          1           0       25.423251   -0.452427    4.248656
     94          7           0       31.925483    2.572159   -0.354639
     95          6           0       30.887087    3.404252   -0.164599
     96          6           0       31.372762    4.737928   -0.311536
     97          6           0       32.774344    4.719233   -0.583754
     98          6           0       33.128168    3.299002   -0.468868
     99          6           0       30.450879    5.899172   -0.374467
    100          6           0       33.618006    5.938310   -0.704183
    101          8           0       33.105002    7.044567   -0.673476
    102          6           0       35.121418    5.849311   -0.937453
    103          7           0       34.168841    0.262117   -0.327918
    104          6           0       34.910499    1.403745   -0.274191
    105          6           0       36.347964    1.087239   -0.017047
    106          6           0       36.291863   -0.512199    0.046296
    107          6           0       34.858669   -0.900120   -0.220640
    108          6           0       37.333453    1.680700   -1.041115
    109          6           0       36.870960   -1.178522    1.372041
    110          6           0       37.928751   -2.304023    1.288710
    111          7           0       31.992280   -1.598492    0.086503
    112          6           0       32.991821   -2.518295    0.030545
    113          6           0       32.455883   -3.805373   -0.030559
    114          6           0       31.086074   -3.672275    0.149244
    115          6           0       30.863966   -2.325263    0.289259
    116          6           0       33.300319   -5.109432   -0.131283
    117          6           0       29.870294   -4.335462    0.235972
    118          8           0       29.670579   -5.544279    0.280998
    119          6           0       28.733275   -3.251899    0.563354
    120          6           0       27.780327   -3.150062   -0.482318
    121          8           0       27.849044   -2.607730   -1.587873
    122          8           0       26.639410   -3.802308   -0.024997
    123          6           0       25.450668   -3.892595   -0.855414
    124          1           0       28.767431    3.662632   -0.086219
    125          1           0       35.337348    3.351548   -0.352058
    126          1           0       35.128302   -2.912053   -0.218804
    127          1           0       26.981356   -0.928941    0.479347
    128          1           0       27.379090    1.985940    1.348687
    129          1           0       26.161953    0.597132   -0.991420
    130          1           0       27.068993    2.072481   -1.422104
    131          1           0       25.797838    2.192045   -0.231808
    132          1           0       27.644941    0.549837    3.082281
    133          1           0       28.364412   -0.922804    2.813900
    134          1           0       26.345054   -2.034664    3.025138
    135          1           0       25.547104   -0.787007    2.095206
    136          1           0       30.352412    6.066798   -1.446828
    137          1           0       30.861645    6.765367    0.144614
    138          1           0       29.475534    5.697939    0.068732
    139          1           0       35.558245    5.645675    0.040323
    140          1           0       35.441054    6.864054   -1.173319
    141          1           0       35.352635    5.093198   -1.687631
    142          1           0       36.466034    1.541089    0.966384
    143          1           0       36.949143   -0.965684   -0.695639
    144          1           0       37.832329    2.504695   -0.529894
    145          1           0       36.845808    2.009702   -1.959336
    146          1           0       38.099725    0.941642   -1.273774
    147          1           0       36.037443   -1.605182    1.929809
    148          1           0       37.380794   -0.463131    2.017695
    149          1           0       37.266322   -3.168793    1.252737
    150          1           0       38.510231   -2.346403    2.208769
    151          1           0       38.510877   -2.443200    0.377840
    152          1           0       33.765322   -5.293447    0.836384
    153          1           0       34.146378   -5.081796   -0.818232
    154          1           0       32.669324   -5.963578   -0.378565
    155          1           0       28.316708   -3.544586    1.527276
    156          1           0       24.954833   -4.828158   -0.598466
    157          1           0       25.618793   -3.756894   -1.924117
    158          1           0       24.754448   -3.126932   -0.512865
 ---------------------------------------------------------------------

 SCF Done:  E(RPBE1PBE) =  -4067.35208371     A.U. after   16 cycles

 Excitation energies and oscillator strengths:

 Excited State   1:      Singlet-A      1.8605 eV  666.39 nm  f=0.3721  <S**2>=0.000
     309 -> 315       -0.17781
     311 -> 313        0.69191
     311 <- 313       -0.11019
 This state for optimization and/or second-order correction.
 Total Energy, E(TD-HF/TD-DFT) =  -4067.28371034
 Copying the excited state density for this state as the 1-particle RhoCI density.

 Excited State   2:      Singlet-A      1.8640 eV  665.15 nm  f=0.4213  <S**2>=0.000
     310 -> 316       -0.17326
     312 -> 314        0.69362
     312 <- 314       -0.11108

 Excited State   3:      Singlet-A      1.9265 eV  643.59 nm  f=0.0000  <S**2>=0.000
     312 -> 313        0.70711

 Excited State   4:      Singlet-A      2.0748 eV  597.57 nm  f=0.0000  <S**2>=0.000
     311 -> 314        0.70711

 Excited State   5:      Singlet-A      2.2041 eV  562.53 nm  f=0.1217  <S**2>=0.000
     310 -> 314        0.66067
     312 -> 316        0.24060

 The electronic state is 1-A.
 Alpha  occ. eigenvalues --  -46.93061 -46.92305 -19.25532 -19.25259 -19.20337
 Alpha  occ. eigenvalues --  -19.19732 -19.19510 -19.19026 -19.18989 -19.18600
 Alpha  occ. eigenvalues --  -14.41875 -14.41533 -14.41500 -14.41159 -14.39464
 Alpha  occ. eigenvalues --  -14.39341 -14.39221 -14.38876 -10.36513 -10.35910
 Alpha  occ. eigenvalues --  -10.32356 -10.32298 -10.31782 -10.31578 -10.29270
 Alpha  occ. eigenvalues --  -10.29260 -10.29146 -10.29040 -10.28883 -10.28867
 Alpha  occ. eigenvalues --  -10.28770 -10.28635 -10.28623 -10.28547 -10.28257
 Alpha  occ. eigenvalues --  -10.27958 -10.27583 -10.27480 -10.27477 -10.27115
 Alpha  occ. eigenvalues --  -10.26743 -10.26720 -10.26327 -10.26306 -10.26202
 Alpha  occ. eigenvalues --  -10.26145 -10.26135 -10.26117 -10.26091 -10.26078
 Alpha  occ. eigenvalues --  -10.25999 -10.25983 -10.25954 -10.25860 -10.25808
 Alpha  occ. eigenvalues --  -10.25659 -10.25658 -10.25472 -10.25455 -10.25422
 Alpha  occ. eigenvalues --  -10.25289 -10.25112 -10.25070 -10.24996 -10.24621
 Alpha  occ. eigenvalues --  -10.24605 -10.24460 -10.24368 -10.24355 -10.24298
 Alpha  occ. eigenvalues --  -10.24292 -10.23950 -10.23811 -10.23689 -10.23634
 Alpha  occ. eigenvalues --  -10.23445 -10.23437 -10.23354 -10.23349 -10.23306
 Alpha  occ. eigenvalues --  -10.23012 -10.22922 -10.22866 -10.22596 -10.22531
 Alpha  occ. eigenvalues --  -10.22390  -3.14970  -3.14462  -1.87823  -1.87338
 Alpha  occ. eigenvalues --   -1.87285  -1.87185  -1.86851  -1.86684  -1.13309
 Alpha  occ. eigenvalues --   -1.10428  -1.04789  -1.04751  -1.04426  -1.03221
 Alpha  occ. eigenvalues --   -1.02542  -1.02261  -1.00193  -0.99343  -0.98707
 Alpha  occ. eigenvalues --   -0.98480  -0.98365  -0.97308  -0.97240  -0.96537
 Alpha  occ. eigenvalues --   -0.88275  -0.87782  -0.83809  -0.83474  -0.83384
 Alpha  occ. eigenvalues --   -0.82737  -0.82697  -0.82689  -0.82243  -0.81897
 Alpha  occ. eigenvalues --   -0.81295  -0.81238  -0.80630  -0.80554  -0.79715
 Alpha  occ. eigenvalues --   -0.78900  -0.78842  -0.77803  -0.77327  -0.76871
 Alpha  occ. eigenvalues --   -0.76472  -0.76349  -0.76032  -0.75827  -0.75088
 Alpha  occ. eigenvalues --   -0.74855  -0.72684  -0.72522  -0.72001  -0.71930
 Alpha  occ. eigenvalues --   -0.71457  -0.70869  -0.70784  -0.70606  -0.69612
 Alpha  occ. eigenvalues --   -0.69535  -0.67934  -0.67547  -0.66872  -0.65972
 Alpha  occ. eigenvalues --   -0.64326  -0.63733  -0.63662  -0.63394  -0.62545
 Alpha  occ. eigenvalues --   -0.61870  -0.61769  -0.60766  -0.60555  -0.60363
 Alpha  occ. eigenvalues --   -0.60328  -0.60059  -0.59445  -0.59422  -0.59247
 Alpha  occ. eigenvalues --   -0.58968  -0.57516  -0.57235  -0.55053  -0.54740
 Alpha  occ. eigenvalues --   -0.54509  -0.54482  -0.53912  -0.53704  -0.53507
 Alpha  occ. eigenvalues --   -0.53491  -0.52824  -0.52800  -0.52618  -0.52370
 Alpha  occ. eigenvalues --   -0.50940  -0.50879  -0.50739  -0.50655  -0.50094
 Alpha  occ. eigenvalues --   -0.49647  -0.49503  -0.49367  -0.48917  -0.48327
 Alpha  occ. eigenvalues --   -0.48228  -0.47988  -0.47982  -0.47756  -0.47638
 Alpha  occ. eigenvalues --   -0.47313  -0.47165  -0.46969  -0.46904  -0.46720
 Alpha  occ. eigenvalues --   -0.46515  -0.46351  -0.46207  -0.46131  -0.46101
 Alpha  occ. eigenvalues --   -0.45939  -0.45849  -0.45825  -0.45006  -0.44753
 Alpha  occ. eigenvalues --   -0.44722  -0.44612  -0.44536  -0.44378  -0.44245
 Alpha  occ. eigenvalues --   -0.44076  -0.43882  -0.43713  -0.43710  -0.43670
 Alpha  occ. eigenvalues --   -0.43406  -0.43262  -0.43034  -0.42979  -0.42947
 Alpha  occ. eigenvalues --   -0.42936  -0.42406  -0.42205  -0.42103  -0.41596
 Alpha  occ. eigenvalues --   -0.41550  -0.41514  -0.41501  -0.41418  -0.41331
 Alpha  occ. eigenvalues --   -0.40933  -0.40899  -0.40833  -0.40679  -0.40620
 Alpha  occ. eigenvalues --   -0.40526  -0.40449  -0.40229  -0.40089  -0.40067
 Alpha  occ. eigenvalues --   -0.39790  -0.39543  -0.39489  -0.39298  -0.39276
 Alpha  occ. eigenvalues --   -0.39096  -0.38700  -0.38462  -0.38450  -0.38317
 Alpha  occ. eigenvalues --   -0.38264  -0.38011  -0.37967  -0.37787  -0.37606
 Alpha  occ. eigenvalues --   -0.37426  -0.37033  -0.36878  -0.36849  -0.36796
 Alpha  occ. eigenvalues --   -0.36676  -0.36602  -0.36507  -0.36378  -0.36301
 Alpha  occ. eigenvalues --   -0.36127  -0.35876  -0.35826  -0.35205  -0.35194
 Alpha  occ. eigenvalues --   -0.34957  -0.34646  -0.34639  -0.33938  -0.33260
 Alpha  occ. eigenvalues --   -0.33202  -0.33170  -0.32964  -0.32869  -0.32420
 Alpha  occ. eigenvalues --   -0.32242  -0.31993  -0.31373  -0.31245  -0.31146
 Alpha  occ. eigenvalues --   -0.30899  -0.30688  -0.29807  -0.29552  -0.29486
 Alpha  occ. eigenvalues --   -0.29253  -0.29039  -0.28496  -0.27438  -0.27095
 Alpha  occ. eigenvalues --   -0.26414  -0.26127  -0.26028  -0.25919  -0.25678
 Alpha  occ. eigenvalues --   -0.25496  -0.25323  -0.25087  -0.21504  -0.21009
 Alpha  occ. eigenvalues --   -0.19209  -0.18932
 Alpha virt. eigenvalues --   -0.11646  -0.11376  -0.05762  -0.05046  -0.04400
 Alpha virt. eigenvalues --   -0.04357  -0.02389  -0.02098  -0.00514  -0.00420
 Alpha virt. eigenvalues --   -0.00211   0.00486   0.01179   0.01379   0.01657

 Mulliken charges:
               1
     1  Mg  11.999999
     2  C    5.999296
     3  C    6.000176
     4  C    6.000912
     5  C    5.999776
     6  N    6.999778
     7  C    6.001024
     8  C    5.999693
     9  C    6.000189
    10  C    5.999120
    11  C    6.000087
    12  C    5.999920
    13  C    5.999971
    14  H    1.000162
    15  N    7.000096
    16  C    5.998586
    17  C    5.999322
    18  C    5.999500
    19  C    5.998893
    20  C    6.000124
    21  C    5.999463
    22  O    7.998947
    23  C    6.000254
    24  N    7.000298
    25  C    5.998739
    26  C    6.000425
    27  C    5.999724
    28  C    6.000988
    29  C    5.999964
    30  C    5.999681
    31  C    5.999949
    32  N    6.999911
    33  C    6.001147
    34  C    6.001139
    35  C    6.000065
    36  C    6.001030
    37  C    5.999908
    38  C    6.000593
    39  O    8.001060
    40  C    5.999826
    41  C    6.000195
    42  O    8.000164
    43  O    8.000055
    44  C    5.999950
    45  H    0.999631
    46  H    0.999820
    47  H    1.000445
    48  H    0.999977
    49  H    0.999953
    50  H    0.999589
    51  H    1.000135
    52  H    0.999963
    53  H    1.000296
    54  H    0.999759
    55  H    1.000118
    56  H    0.999833
    57  H    0.999382
    58  H    0.999382
    59  H    0.999423
    60  H    0.999729
    61  H    0.999490
    62  H    0.999755
    63  H    1.000030
    64  H    1.000064
    65  H    1.000100
    66  H    0.999677
    67  H    1.000025
    68  H    0.999945
    69  H    1.000473
    70  H    1.000005
    71  H    1.000222
    72  H    1.000024
    73  H    1.000632
    74  H    1.000778
    75  H    1.000531
    76  H    1.000359
    77  H    1.000013
    78  H    1.000159
    79  H    1.000187
    80  Mg  12.002421
    81  C    6.001381
    82  C    5.974009
    83  C    5.992481
    84  C    6.022767
    85  N    6.986437
    86  C    5.981386
    87  C    6.007208
    88  C    5.990839
    89  C    6.037879
    90  C    5.999538
    91  C    6.000706
    92  C    6.002498
    93  H    0.990865
    94  N    6.998233
    95  C    6.041953
    96  C    6.023224
    97  C    6.010453
    98  C    6.033381
    99  C    5.995729
   100  C    6.009827
   101  O    8.017157
   102  C    5.997749
   103  N    7.007936
   104  C    6.026445
   105  C    5.990347
   106  C    6.008899
   107  C    5.966538
   108  C    5.996562
   109  C    6.002247
   110  C    5.997637
   111  N    6.997386
   112  C    5.969744
   113  C    5.970405
   114  C    5.996302
   115  C    5.981475
   116  C    5.998847
   117  C    5.982734
   118  O    7.968545
   119  C    5.995751
   120  C    5.998918
   121  O    7.989034
   122  O    7.998139
   123  C    6.003440
   124  H    1.005057
   125  H    1.011324
   126  H    0.994309
   127  H    1.001730
   128  H    0.999203
   129  H    1.011137
   130  H    0.995721
   131  H    1.001290
   132  H    0.989286
   133  H    1.005984
   134  H    1.004675
   135  H    0.996393
   136  H    1.021035
   137  H    1.016741
   138  H    1.020753
   139  H    1.009422
   140  H    1.012154
   141  H    1.007488
   142  H    0.999483
   143  H    0.999370
   144  H    0.999206
   145  H    0.998998
   146  H    1.010985
   147  H    1.004818
   148  H    0.990834
   149  H    1.007265
   150  H    0.997389
   151  H    0.997452
   152  H    0.980863
   153  H    0.980770
   154  H    0.988907
   155  H    0.990531
   156  H    0.996086
   157  H    0.995616
   158  H    0.992270
 Sum of Mulliken charges = 624.00000

 Dipole moment (field-independent basis, Debye):
    X=              1.7587    Y=             10.0788    Z=             -0.8904  Tot=             10.2698
 Quadrupole moment (field-independent basis, Debye-Ang):
   XX=             73.1441   YY=              9.9217   ZZ=             -0.5527
   XY=            336.7176   XZ=            -30.3588   YZ=             -3.0564

 Normal termination of Gaussian 16 at Fri Oct 15 10:10:10 2021.
