 Gaussian 16, Revision A.03,
 Gaussian 16:  ES64L-G16RevA.03 25-Dec-2016

 --------------------------------------------------------
 #p PBE1PBE/Def2SVP td=(nstates=5) density=(transition=1)
 --------------------------------------------------------

 --------------------------------
 TDDFT excited states in gaussian
 --------------------------------
 Symbolic Z-matrix:
 Charge =  0 Multiplicity = 1

                         Standard orientation:
 ---------------------------------------------------------------------
 Center     Atomic      Atomic             Coordinates (Angstroms)
 Number     Number       Type             X           Y           Z
 ---------------------------------------------------------------------
      1         12           0      -30.903729   -0.053891   -0.143311
      2          6           0      -27.493167   -0.353543   -0.732731
      3          6           0      -30.424430   -2.438738    2.482394
      4          6           0      -33.990449    0.482948    0.851295
      5          6           0      -30.947452    2.751109   -2.261751
      6          7           0      -29.133580   -1.146787    0.824915
      7          6           0      -27.857036   -1.148407    0.308960
      8          6           0      -26.948799   -2.046453    1.153287
      9          6           0      -27.986319   -2.875360    1.959944
     10          6           0      -29.267531   -2.100982    1.795203
     11          6           0      -28.213356   -4.387783    1.566491
     12          6           0      -25.974038   -1.254970    2.040646
     13          6           0      -24.956008   -2.061195    2.752521
     14          1           0      -23.650651   -1.314622    3.225561
     15          7           0      -32.080313   -0.855814    1.470892
     16          6           0      -31.713500   -1.833226    2.409089
     17          6           0      -32.844556   -2.080139    3.259294
     18          6           0      -33.864453   -1.129842    2.883981
     19          6           0      -33.329022   -0.454535    1.651645
     20          6           0      -32.805285   -3.078506    4.449091
     21          6           0      -35.200302   -1.013590    3.624917
     22          8           0      -35.535692   -1.816611    4.479716
     23          6           0      -36.114147    0.101712    3.286573
     24          7           0      -32.327596    1.284253   -0.814005
     25          6           0      -33.545011    1.267510   -0.260746
     26          6           0      -34.396776    2.483573   -0.807959
     27          6           0      -33.439908    3.280380   -1.775795
     28          6           0      -32.087336    2.401602   -1.575200
     29          6           0      -35.793305    2.169562   -1.406086
     30          6           0      -33.260663    4.729891   -1.276007
     31          6           0      -32.986568    5.768837   -2.370154
     32          7           0      -29.545284    1.046246   -1.306869
     33          6           0      -29.715692    2.065364   -2.201569
     34          6           0      -28.450504    2.271246   -2.916682
     35          6           0      -27.612327    1.299571   -2.439517
     36          6           0      -28.263588    0.623373   -1.432908
     37          6           0      -28.209865    3.266441   -4.056433
     38          6           0      -26.280140    0.782069   -2.529532
     39          8           0      -25.348493    1.064794   -3.241908
     40          6           0      -26.151912   -0.326213   -1.431665
     41          6           0      -25.922571   -1.622224   -2.127514
     42          8           0      -26.549476   -2.074286   -3.045164
     43          8           0      -24.917992   -2.325718   -1.440605
     44          6           0      -24.629413   -3.640308   -1.939122
     45          1           0      -30.198155   -3.237795    3.190798
     46          1           0      -35.028369    0.756607    1.054292
     47          1           0      -30.943133    3.573016   -2.980886
     48          1           0      -26.459365   -2.717887    0.449089
     49          1           0      -27.843500   -2.895854    3.039787
     50          1           0      -28.109974   -4.921826    2.510821
     51          1           0      -27.761185   -4.747306    0.641772
     52          1           0      -29.272193   -4.484565    1.326947
     53          1           0      -26.424515   -0.729366    2.883053
     54          1           0      -25.474537   -0.488487    1.448002
     55          1           0      -24.685928   -2.880058    2.085722
     56          1           0      -25.424212   -2.537251    3.613889
     57          1           0      -32.744821   -2.334327    5.243861
     58          1           0      -31.885061   -3.652118    4.561652
     59          1           0      -33.596724   -3.798801    4.657032
     60          1           0      -35.482851    0.989830    3.314852
     61          1           0      -36.851680    0.195026    4.083880
     62          1           0      -36.477001   -0.162654    2.293017
     63          1           0      -34.616482    3.097382    0.066036
     64          1           0      -33.726872    3.267075   -2.826778
     65          1           0      -36.547193    2.502091   -0.691812
     66          1           0      -35.829655    1.111566   -1.663622
     67          1           0      -35.966979    2.794842   -2.281826
     68          1           0      -32.430444    4.679509   -0.571981
     69          1           0      -34.078829    5.089645   -0.651761
     70          1           0      -33.796810    6.485484   -2.231578
     71          1           0      -32.920433    5.359863   -3.378432
     72          1           0      -32.059228    6.302194   -2.160825
     73          1           0      -27.282712    3.837014   -4.013537
     74          1           0      -29.094194    3.900349   -3.987249
     75          1           0      -28.395656    2.714832   -4.978147
     76          1           0      -25.296189   -0.047856   -0.816440
     77          1           0      -23.646386   -3.581623   -2.406455
     78          1           0      -25.320938   -4.112447   -2.637375
     79          1           0      -24.602393   -4.311706   -1.081298
     80         12           0       29.973168    0.790915    0.282779
     81          6           0       30.493378   -2.545989   -1.022145
     82          6           0       28.702271    1.493014   -2.603267
     83          6           0       29.841243    3.827219    1.557925
     84          6           0       32.138171    0.020599    3.098631
     85          7           0       29.531861   -0.481935   -1.578104
     86          6           0       29.811978   -1.785945   -1.930159
     87          6           0       29.362128   -2.053542   -3.321165
     88          6           0       29.251531   -0.638490   -3.944881
     89          6           0       29.197935    0.204455   -2.648900
     90          6           0       30.458857   -0.229893   -4.817066
     91          6           0       27.950441   -2.715032   -3.298741
     92          6           0       27.730449   -3.934609   -4.275389
     93          1           0       26.550542   -4.953413   -4.014841
     94          7           0       29.267571    2.489910   -0.482430
     95          6           0       28.674498    2.590050   -1.642139
     96          6           0       28.159002    3.939935   -1.771591
     97          6           0       28.399400    4.529020   -0.507917
     98          6           0       29.220707    3.609351    0.231622
     99          6           0       27.372356    4.370194   -3.023019
    100          6           0       27.941712    5.887910   -0.056316
    101          8           0       28.235123    6.290775    1.029489
    102          6           0       27.033967    6.681819   -0.938128
    103          7           0       31.151612    1.840045    1.998971
    104          6           0       30.705979    3.053399    2.318059
    105          6           0       31.154816    3.475889    3.666446
    106          6           0       32.074637    2.275136    4.054423
    107          6           0       31.804017    1.256746    2.978612
    108          6           0       31.790734    4.904663    3.816306
    109          6           0       31.767886    1.772792    5.519159
    110          6           0       32.764492    2.093003    6.667933
    111          7           0       31.065612   -0.794287    0.946778
    112          6           0       31.828392   -1.033969    2.111582
    113          6           0       32.298907   -2.434564    2.110550
    114          6           0       31.787613   -3.006935    0.953482
    115          6           0       31.104755   -2.024109    0.257165
    116          6           0       33.293898   -3.042325    3.128737
    117          6           0       31.754743   -4.303340    0.203002
    118          8           0       32.183275   -5.411108    0.425206
    119          6           0       31.048139   -4.007929   -1.213396
    120          6           0       30.118346   -5.019625   -1.558890
    121          8           0       28.917049   -4.936136   -1.267418
    122          8           0       30.624487   -6.141336   -2.208187
    123          6           0       29.669320   -7.143833   -2.772207
    124          1           0       28.212356    1.850165   -3.510811
    125          1           0       29.743453    4.815606    2.011567
    126          1           0       32.782305   -0.229448    3.943039
    127          1           0       30.145401   -2.576675   -3.870346
    128          1           0       28.385753   -0.453377   -4.580400
    129          1           0       30.139830   -0.027000   -5.839827
    130          1           0       31.157053   -1.066272   -4.801886
    131          1           0       31.016758    0.630880   -4.447327
    132          1           0       27.267522   -1.916143   -3.588284
    133          1           0       27.761514   -2.973511   -2.257019
    134          1           0       28.672867   -4.477885   -4.339146
    135          1           0       27.551871   -3.433627   -5.227568
    136          1           0       26.343093    4.577292   -2.727191
    137          1           0       27.401098    3.680359   -3.865768
    138          1           0       27.706600    5.352335   -3.356129
    139          1           0       26.079085    6.185269   -1.108577
    140          1           0       27.356583    6.830981   -1.968491
    141          1           0       26.788258    7.617020   -0.434391
    142          1           0       30.284226    3.457772    4.322086
    143          1           0       33.116914    2.558797    3.906893
    144          1           0       31.674426    5.391641    2.848656
    145          1           0       32.806774    4.962317    4.208331
    146          1           0       31.225774    5.452776    4.570480
    147          1           0       31.704048    0.684346    5.511820
    148          1           0       30.718193    2.019717    5.678091
    149          1           0       32.219428    2.449977    7.541608
    150          1           0       33.486589    2.834572    6.325817
    151          1           0       33.298399    1.193089    6.975569
    152          1           0       33.125326   -2.553135    4.087689
    153          1           0       34.309173   -2.767534    2.841775
    154          1           0       33.177780   -4.122397    3.221471
    155          1           0       31.828774   -3.965514   -1.972374
    156          1           0       29.052710   -6.700831   -3.555559
    157          1           0       29.176878   -7.714074   -1.985449
    158          1           0       30.261558   -7.817947   -3.390888
 ---------------------------------------------------------------------

 SCF Done:  E(RPBE1PBE) =  -4067.34881906     A.U. after   16 cycles

 Excitation energies and oscillator strengths:

 Excited State   1:      Singlet-A      1.8807 eV  659.25 nm  f=0.3643  <S**2>=0.000
     310 -> 316        0.15943
     312 -> 314        0.69581
     312 <- 314       -0.11003
 This state for optimization and/or second-order correction.
 Total Energy, E(TD-HF/TD-DFT) =  -4067.27970485
 Copying the excited state density for this state as the 1-particle RhoCI density.

 Excited State   2:      Singlet-A      1.9036 eV  651.33 nm  f=0.3835  <S**2>=0.000
     309 -> 315       -0.17028
     311 -> 313        0.69343
     311 <- 313       -0.10645

 Excited State   3:      Singlet-A      2.0105 eV  616.67 nm  f=0.0000  <S**2>=0.000
     312 -> 313        0.70711

 Excited State   4:      Singlet-A      2.0772 eV  596.87 nm  f=0.0000  <S**2>=0.000
     311 -> 314        0.70711

 Excited State   5:      Singlet-A      2.3025 eV  538.49 nm  f=0.1136  <S**2>=0.000
     309 -> 313        0.64647
     311 -> 315        0.26939

 The electronic state is 1-A.
 Alpha  occ. eigenvalues --  -46.93047 -46.92834 -19.25676 -19.24663 -19.20751
 Alpha  occ. eigenvalues --  -19.20073 -19.19231 -19.18960 -19.18794 -19.18717
 Alpha  occ. eigenvalues --  -14.42229 -14.41797 -14.41188 -14.39738 -14.39736
 Alpha  occ. eigenvalues --  -14.39685 -14.39232 -14.38905 -10.36581 -10.35518
 Alpha  occ. eigenvalues --  -10.33332 -10.32022 -10.31813 -10.31494 -10.29899
 Alpha  occ. eigenvalues --  -10.29072 -10.28935 -10.28888 -10.28615 -10.28542
 Alpha  occ. eigenvalues --  -10.28507 -10.28507 -10.28501 -10.28458 -10.28005
 Alpha  occ. eigenvalues --  -10.27939 -10.27925 -10.27518 -10.27463 -10.27306
 Alpha  occ. eigenvalues --  -10.26906 -10.26656 -10.26642 -10.26474 -10.26336
 Alpha  occ. eigenvalues --  -10.26158 -10.26095 -10.26077 -10.25988 -10.25987
 Alpha  occ. eigenvalues --  -10.25943 -10.25914 -10.25819 -10.25758 -10.25754
 Alpha  occ. eigenvalues --  -10.25481 -10.25478 -10.25410 -10.25337 -10.25263
 Alpha  occ. eigenvalues --  -10.25246 -10.25188 -10.24686 -10.24680 -10.24606
 Alpha  occ. eigenvalues --  -10.24522 -10.24434 -10.24241 -10.23997 -10.23972
 Alpha  occ. eigenvalues --  -10.23934 -10.23930 -10.23748 -10.23725 -10.23711
 Alpha  occ. eigenvalues --  -10.23709 -10.23658 -10.23473 -10.23411 -10.23259
 Alpha  occ. eigenvalues --  -10.23255 -10.23175 -10.23138 -10.23128 -10.23013
 Alpha  occ. eigenvalues --  -10.21939  -3.15051  -3.14938  -1.87897  -1.87764
 Alpha  occ. eigenvalues --   -1.87429  -1.87318  -1.87260  -1.87162  -1.11429
 Alpha  occ. eigenvalues --   -1.08958  -1.06703  -1.05814  -1.05287  -1.04674
 Alpha  occ. eigenvalues --   -1.03728  -1.00902  -1.00495  -0.99616  -0.99479
 Alpha  occ. eigenvalues --   -0.99300  -0.98446  -0.98301  -0.97462  -0.95928
 Alpha  occ. eigenvalues --   -0.87766  -0.85707  -0.83664  -0.83544  -0.83488
 Alpha  occ. eigenvalues --   -0.83245  -0.83118  -0.82458  -0.82297  -0.81972
 Alpha  occ. eigenvalues --   -0.81782  -0.80882  -0.80201  -0.79731  -0.79426
 Alpha  occ. eigenvalues --   -0.78660  -0.78361  -0.77392  -0.77341  -0.76776
 Alpha  occ. eigenvalues --   -0.76328  -0.76056  -0.75690  -0.75320  -0.75239
 Alpha  occ. eigenvalues --   -0.74719  -0.72937  -0.72103  -0.71716  -0.71456
 Alpha  occ. eigenvalues --   -0.71278  -0.71074  -0.70553  -0.70513  -0.69842
 Alpha  occ. eigenvalues --   -0.69742  -0.67794  -0.67368  -0.66495  -0.65537
 Alpha  occ. eigenvalues --   -0.63786  -0.63519  -0.63431  -0.63218  -0.62403
 Alpha  occ. eigenvalues --   -0.62316  -0.61689  -0.61064  -0.60507  -0.60484
 Alpha  occ. eigenvalues --   -0.60126  -0.60074  -0.59605  -0.59435  -0.59126
 Alpha  occ. eigenvalues --   -0.58826  -0.57321  -0.55887  -0.55643  -0.54715
 Alpha  occ. eigenvalues --   -0.54689  -0.54558  -0.53879  -0.53661  -0.53347
 Alpha  occ. eigenvalues --   -0.53121  -0.52566  -0.52253  -0.52203  -0.51798
 Alpha  occ. eigenvalues --   -0.51115  -0.51058  -0.50420  -0.50332  -0.50124
 Alpha  occ. eigenvalues --   -0.49946  -0.49494  -0.48974  -0.48615  -0.48566
 Alpha  occ. eigenvalues --   -0.48442  -0.48162  -0.47942  -0.47835  -0.47536
 Alpha  occ. eigenvalues --   -0.47367  -0.47341  -0.47108  -0.47006  -0.46659
 Alpha  occ. eigenvalues --   -0.46574  -0.46357  -0.46323  -0.46141  -0.45975
 Alpha  occ. eigenvalues --   -0.45474  -0.45335  -0.44984  -0.44961  -0.44925
 Alpha  occ. eigenvalues --   -0.44884  -0.44631  -0.44531  -0.44452  -0.44292
 Alpha  occ. eigenvalues --   -0.44037  -0.43975  -0.43856  -0.43771  -0.43542
 Alpha  occ. eigenvalues --   -0.43386  -0.43367  -0.43001  -0.42884  -0.42781
 Alpha  occ. eigenvalues --   -0.42494  -0.42374  -0.42254  -0.42232  -0.42117
 Alpha  occ. eigenvalues --   -0.42038  -0.41930  -0.41776  -0.41138  -0.41138
 Alpha  occ. eigenvalues --   -0.41116  -0.40950  -0.40881  -0.40600  -0.40577
 Alpha  occ. eigenvalues --   -0.40380  -0.40234  -0.40139  -0.39872  -0.39677
 Alpha  occ. eigenvalues --   -0.39622  -0.39394  -0.39377  -0.39079  -0.39051
 Alpha  occ. eigenvalues --   -0.38799  -0.38661  -0.38402  -0.38265  -0.38203
 Alpha  occ. eigenvalues --   -0.38181  -0.38034  -0.37948  -0.37807  -0.37666
 Alpha  occ. eigenvalues --   -0.37646  -0.37320  -0.37269  -0.37175  -0.37158
 Alpha  occ. eigenvalues --   -0.36839  -0.36736  -0.36691  -0.36408  -0.36233
 Alpha  occ. eigenvalues --   -0.35916  -0.35479  -0.35430  -0.35302  -0.35236
 Alpha  occ. eigenvalues --   -0.35109  -0.34846  -0.34774  -0.34757  -0.34665
 Alpha  occ. eigenvalues --   -0.33746  -0.33296  -0.33056  -0.32696  -0.32660
 Alpha  occ. eigenvalues --   -0.32063  -0.31968  -0.31549  -0.31524  -0.31186
 Alpha  occ. eigenvalues --   -0.31149  -0.30694  -0.30160  -0.29579  -0.29264
 Alpha  occ. eigenvalues --   -0.28800  -0.28353  -0.27710  -0.27406  -0.27247
 Alpha  occ. eigenvalues --   -0.26578  -0.26141  -0.26038  -0.26023  -0.25814
 Alpha  occ. eigenvalues --   -0.25613  -0.25502  -0.25133  -0.21567  -0.20532
 Alpha  occ. eigenvalues --   -0.19285  -0.19125
 Alpha virt. eigenvalues --   -0.11521  -0.11432  -0.05490  -0.04031  -0.03329
 Alpha virt. eigenvalues --   -0.03326  -0.01806  -0.01733  -0.00744  -0.00480
 Alpha virt. eigenvalues --   -0.00058   0.00280   0.00660   0.01029   0.01814

 Mulliken charges:
               1
     1  Mg  11.999995
     2  C    6.000185
     3  C    5.999924
     4  C    5.999797
     5  C    6.000126
     6  N    7.000027
     7  C    5.999785
     8  C    6.000045
     9  C    5.999964
    10  C    6.000176
    11  C    5.999988
    12  C    6.000014
    13  C    6.000008
    14  H    0.999974
    15  N    6.999946
    16  C    6.000286
    17  C    6.000145
    18  C    6.000119
    19  C    6.000248
    20  C    5.999945
    21  C    6.000099
    22  O    8.000161
    23  C    5.999983
    24  N    7.000034
    25  C    6.000257
    26  C    5.999944
    27  C    6.000027
    28  C    5.999779
    29  C    5.999990
    30  C    6.000026
    31  C    6.000022
    32  N    6.999973
    33  C    5.999735
    34  C    5.999786
    35  C    5.999998
    36  C    5.999753
    37  C    6.000033
    38  C    5.999862
    39  O    7.999788
    40  C    5.999996
    41  C    5.999974
    42  O    7.999980
    43  O    7.999978
    44  C    6.000016
    45  H    1.000103
    46  H    1.000057
    47  H    0.999920
    48  H    1.000009
    49  H    1.000003
    50  H    1.000033
    51  H    1.000098
    52  H    0.999979
    53  H    0.999942
    54  H    1.000046
    55  H    1.000007
    56  H    0.999963
    57  H    1.000109
    58  H    1.000127
    59  H    1.000129
    60  H    1.000055
    61  H    1.000095
    62  H    1.000062
    63  H    0.999994
    64  H    0.999990
    65  H    0.999996
    66  H    0.999998
    67  H    1.000060
    68  H    0.999992
    69  H    0.999935
    70  H    0.999964
    71  H    1.000010
    72  H    1.000000
    73  H    0.999856
    74  H    0.999883
    75  H    0.999858
    76  H    0.999927
    77  H    0.999969
    78  H    0.999982
    79  H    0.999959
    80  Mg  11.996885
    81  C    6.020859
    82  C    6.002519
    83  C    5.984222
    84  C    6.007254
    85  N    7.017348
    86  C    5.971264
    87  C    6.006346
    88  C    5.993670
    89  C    6.022221
    90  C    5.995372
    91  C    6.002847
    92  C    6.001791
    93  H    0.998931
    94  N    6.990346
    95  C    6.031923
    96  C    6.022662
    97  C    6.010537
    98  C    6.032818
    99  C    5.997290
   100  C    6.012318
   101  O    8.024163
   102  C    5.994249
   103  N    6.999821
   104  C    6.030238
   105  C    5.988310
   106  C    6.009620
   107  C    5.978414
   108  C    6.000282
   109  C    6.001739
   110  C    5.999553
   111  N    6.997400
   112  C    5.962002
   113  C    5.966305
   114  C    6.002276
   115  C    5.964564
   116  C    5.998931
   117  C    5.984964
   118  O    7.976889
   119  C    5.995044
   120  C    5.996940
   121  O    7.991547
   122  O    8.000062
   123  C    6.002311
   124  H    1.011892
   125  H    1.006010
   126  H    0.990006
   127  H    1.001720
   128  H    1.000995
   129  H    1.002725
   130  H    1.014159
   131  H    0.997977
   132  H    0.986534
   133  H    1.004026
   134  H    1.003471
   135  H    0.994346
   136  H    1.017843
   137  H    1.016288
   138  H    1.017284
   139  H    1.007178
   140  H    1.005666
   141  H    1.013853
   142  H    1.001018
   143  H    0.997348
   144  H    0.993703
   145  H    1.008003
   146  H    1.001406
   147  H    1.007480
   148  H    0.992735
   149  H    0.995622
   150  H    0.995991
   151  H    1.002976
   152  H    0.983000
   153  H    0.978565
   154  H    0.984064
   155  H    0.992295
   156  H    0.994396
   157  H    0.998199
   158  H    0.996177
 Sum of Mulliken charges = 624.00000

 Dipole moment (field-independent basis, Debye):
    X=             -4.5108    Y=              8.3218    Z=             -3.5434  Tot=             10.1072
 Quadrupole moment (field-independent basis, Debye-Ang):
   XX=           -267.3359   YY=             10.8210   ZZ=             -1.5224
   XY=            248.0438   XZ=           -112.4822   YZ=             -2.1898

 Normal termination of Gaussian 16 at Fri Oct 15 16:24:50 2021.
