 Gaussian 16, Revision A.03,
 Gaussian 16:  ES64L-G16RevA.03 25-Dec-2016

 --------------------------------------------------------
 #p PBE1PBE/Def2SVP td=(nstates=5) density=(transition=1)
 --------------------------------------------------------

 --------------------------------
 TDDFT excited states in gaussian
 --------------------------------
 Symbolic Z-matrix:
 Charge =  0 Multiplicity = 1

                         Standard orientation:
 ---------------------------------------------------------------------
 Center     Atomic      Atomic             Coordinates (Angstroms)
 Number     Number       Type             X           Y           Z
 ---------------------------------------------------------------------
      1         12           0       16.558600   -0.611503    0.442313
      2          6           0       15.692391    2.261394   -1.336526
      3          6           0       17.627509    1.271244    2.970073
      4          6           0       18.509398   -3.244905    1.414259
      5          6           0       15.473416   -2.537137   -2.250376
      6          7           0       16.494557    1.548355    0.846466
      7          6           0       16.092232    2.487427   -0.001159
      8          6           0       16.097723    3.875676    0.735375
      9          6           0       16.822921    3.538210    2.060113
     10          6           0       17.028842    2.029083    1.970542
     11          6           0       18.285906    4.194710    2.191330
     12          6           0       14.658143    4.514324    0.994346
     13          6           0       14.637540    5.983369    0.744567
     14          1           0       14.075493    6.916184    1.806263
     15          7           0       17.861598   -0.930666    1.997151
     16          6           0       18.163155   -0.018867    2.973819
     17          6           0       18.850838   -0.716156    4.069456
     18          6           0       19.102921   -2.035771    3.600851
     19          6           0       18.515756   -2.085673    2.251574
     20          6           0       19.293802   -0.006594    5.388676
     21          6           0       19.896463   -3.181781    4.297811
     22          8           0       20.059706   -4.297426    3.816626
     23          6           0       20.467932   -2.914956    5.638886
     24          7           0       16.960124   -2.532929   -0.289895
     25          6           0       17.862792   -3.465949    0.229132
     26          6           0       18.013400   -4.649161   -0.762456
     27          6           0       16.612609   -4.658107   -1.517795
     28          6           0       16.342592   -3.140225   -1.314716
     29          6           0       19.269028   -4.540714   -1.654073
     30          6           0       15.515130   -5.492387   -0.920714
     31          6           0       14.735390   -5.011689    0.266952
     32          7           0       15.563115   -0.309952   -1.341983
     33          6           0       15.215843   -1.164092   -2.363008
     34          6           0       14.565635   -0.459724   -3.470458
     35          6           0       14.817011    0.952746   -3.162843
     36          6           0       15.438418    0.953755   -1.853592
     37          6           0       14.061562   -1.048464   -4.686739
     38          6           0       14.693085    2.324412   -3.640848
     39          8           0       14.327235    2.779911   -4.658839
     40          6           0       15.197720    3.241162   -2.408352
     41          6           0       16.176348    4.320558   -2.796617
     42          8           0       17.398518    4.207913   -2.779765
     43          8           0       15.463000    5.484820   -3.079953
     44          6           0       16.234743    6.683777   -3.454142
     45          1           0       17.858563    1.695783    3.949644
     46          1           0       19.168501   -4.037562    1.775492
     47          1           0       15.069203   -3.205476   -3.013042
     48          1           0       16.715093    4.611917    0.220083
     49          1           0       16.318687    3.840648    2.977907
     50          1           0       18.156656    5.147987    2.704234
     51          1           0       18.769604    4.448557    1.248444
     52          1           0       18.894228    3.532275    2.808258
     53          1           0       14.326667    4.358791    2.021142
     54          1           0       13.841079    4.081465    0.416989
     55          1           0       13.939565    6.079681   -0.086643
     56          1           0       15.564281    6.461164    0.428057
     57          1           0       20.301055    0.363161    5.198839
     58          1           0       19.216693   -0.672210    6.248730
     59          1           0       18.808323    0.954592    5.560909
     60          1           0       20.940120   -1.962907    5.880743
     61          1           0       21.217629   -3.670118    5.873772
     62          1           0       19.751532   -3.225091    6.400139
     63          1           0       18.069660   -5.518784   -0.108340
     64          1           0       16.707680   -4.951418   -2.563124
     65          1           0       19.110519   -4.603140   -2.730696
     66          1           0       20.099292   -5.161823   -1.317189
     67          1           0       19.722095   -3.556571   -1.535834
     68          1           0       15.829224   -6.487293   -0.607429
     69          1           0       14.779400   -5.676910   -1.703632
     70          1           0       13.859229   -4.562796   -0.200614
     71          1           0       15.207971   -4.231076    0.863517
     72          1           0       14.465876   -5.865712    0.889168
     73          1           0       13.178471   -0.466827   -4.951844
     74          1           0       13.759338   -2.067710   -4.447398
     75          1           0       14.807484   -0.975853   -5.477596
     76          1           0       14.316686    3.739967   -2.004506
     77          1           0       16.894378    6.392785   -4.272088
     78          1           0       16.865753    7.012233   -2.628701
     79          1           0       15.709488    7.588489   -3.760699
     80         12           0      -16.292050   -0.638192    0.012866
     81          6           0      -18.444042    1.766518    1.162590
     82          6           0      -13.988049    1.705189   -0.619201
     83          6           0      -14.388249   -3.084997   -1.310705
     84          6           0      -19.011558   -3.041230    0.234126
     85          7           0      -16.358172    1.577098    0.012018
     86          6           0      -17.274226    2.340411    0.620097
     87          6           0      -16.808297    3.885836    0.636376
     88          6           0      -15.356050    3.735796    0.046929
     89          6           0      -15.196706    2.233722   -0.263193
     90          6           0      -15.060847    4.692911   -1.124282
     91          6           0      -16.843630    4.537357    2.047966
     92          6           0      -16.087528    5.889532    2.259731
     93          1           0      -16.948887    7.207577    2.323850
     94          7           0      -14.442312   -0.672334   -0.899420
     95          6           0      -13.613643    0.348205   -0.975437
     96          6           0      -12.368067   -0.108510   -1.573045
     97          6           0      -12.465890   -1.493978   -1.901955
     98          6           0      -13.806292   -1.811396   -1.362203
     99          6           0      -11.197185    0.779779   -1.959866
    100          6           0      -11.501364   -2.411723   -2.645937
    101          8           0      -11.873309   -3.493187   -3.092167
    102          6           0      -10.091287   -1.970761   -2.828606
    103          7           0      -16.676770   -2.760171   -0.510143
    104          6           0      -15.714676   -3.538548   -0.991103
    105          6           0      -16.137665   -5.016059   -1.041514
    106          6           0      -17.498456   -4.947217   -0.353317
    107          6           0      -17.748210   -3.489784   -0.238224
    108          6           0      -16.147357   -5.717509   -2.407872
    109          6           0      -17.618261   -5.827344    0.865033
    110          6           0      -18.678548   -6.982910    0.784496
    111          7           0      -18.247491   -0.684576    0.607548
    112          6           0      -19.222283   -1.730717    0.731466
    113          6           0      -20.426793   -1.249386    1.371412
    114          6           0      -20.102981    0.124101    1.552191
    115          6           0      -18.814802    0.395157    1.073965
    116          6           0      -21.626213   -1.964346    1.885735
    117          6           0      -20.623365    1.275808    2.244787
    118          8           0      -21.574129    1.463582    3.018507
    119          6           0      -19.695796    2.428054    1.950160
    120          6           0      -20.406754    3.387508    0.970429
    121          8           0      -21.083134    3.088329   -0.025578
    122          8           0      -20.154711    4.660784    1.387307
    123          6           0      -20.773209    5.782677    0.612219
    124          1           0      -13.114908    2.346631   -0.755786
    125          1           0      -13.929741   -3.884154   -1.896861
    126          1           0      -19.731487   -3.845088    0.397971
    127          1           0      -17.480252    4.364788   -0.074866
    128          1           0      -14.653480    3.940678    0.854685
    129          1           0      -14.059238    5.089756   -0.962386
    130          1           0      -15.737296    5.547638   -1.133109
    131          1           0      -15.117925    4.169464   -2.078742
    132          1           0      -16.270092    3.862807    2.683663
    133          1           0      -17.875877    4.708450    2.353198
    134          1           0      -15.480524    6.052618    1.368605
    135          1           0      -15.532798    5.835323    3.195813
    136          1           0      -11.385547    1.821512   -1.700322
    137          1           0      -11.030553    0.716505   -3.034919
    138          1           0      -10.273919    0.469757   -1.472058
    139          1           0       -9.763175   -1.652571   -1.838665
    140          1           0       -9.802589   -1.169646   -3.508345
    141          1           0       -9.441134   -2.770649   -3.181338
    142          1           0      -15.444766   -5.577045   -0.415318
    143          1           0      -18.233217   -5.340175   -1.055810
    144          1           0      -15.767818   -6.716044   -2.192541
    145          1           0      -15.570188   -5.148072   -3.136231
    146          1           0      -17.120842   -5.735003   -2.897793
    147          1           0      -17.999507   -5.152398    1.630662
    148          1           0      -16.681045   -6.300554    1.156525
    149          1           0      -19.198155   -6.945517   -0.173325
    150          1           0      -19.409922   -6.803924    1.573231
    151          1           0      -18.299226   -7.982260    0.998315
    152          1           0      -21.464086   -3.041367    1.851872
    153          1           0      -22.406270   -1.776134    1.148945
    154          1           0      -21.760502   -1.586132    2.900185
    155          1           0      -19.528458    2.889715    2.923466
    156          1           0      -20.676595    5.706714   -0.471106
    157          1           0      -20.446743    6.775615    0.919637
    158          1           0      -21.844780    5.699673    0.792929
 ---------------------------------------------------------------------

 SCF Done:  E(RPBE1PBE) =  -4067.38707589     A.U. after   16 cycles

 Excitation energies and oscillator strengths:

 Excited State   1:      Singlet-A      1.8399 eV  673.86 nm  f=0.3674  <S**2>=0.000
     309 -> 316       -0.17099
     312 -> 314        0.69420
     312 <- 314       -0.11323
 This state for optimization and/or second-order correction.
 Total Energy, E(TD-HF/TD-DFT) =  -4067.31946072
 Copying the excited state density for this state as the 1-particle RhoCI density.

 Excited State   2:      Singlet-A      1.8791 eV  659.81 nm  f=0.3866  <S**2>=0.000
     310 -> 315       -0.16667
     311 -> 313        0.69038
     311 <- 313       -0.10561

 Excited State   3:      Singlet-A      1.9184 eV  646.29 nm  f=0.0000  <S**2>=0.000
     312 -> 313        0.70710

 Excited State   4:      Singlet-A      2.0004 eV  619.79 nm  f=0.0000  <S**2>=0.000
     311 -> 314        0.70710

 Excited State   5:      Singlet-A      2.2623 eV  548.04 nm  f=0.1055  <S**2>=0.000
     309 -> 314        0.64514
     312 -> 316        0.27997

 The electronic state is 1-A.
 Alpha  occ. eigenvalues --  -46.92590 -46.91389 -19.26302 -19.25672 -19.20283
 Alpha  occ. eigenvalues --  -19.19817 -19.19735 -19.19671 -19.19510 -19.18009
 Alpha  occ. eigenvalues --  -14.41681 -14.41455 -14.41386 -14.41076 -14.39643
 Alpha  occ. eigenvalues --  -14.38981 -14.38970 -14.38962 -10.36668 -10.36640
 Alpha  occ. eigenvalues --  -10.33156 -10.32882 -10.32586 -10.30544 -10.29417
 Alpha  occ. eigenvalues --  -10.29417 -10.29066 -10.29018 -10.28656 -10.28446
 Alpha  occ. eigenvalues --  -10.28345 -10.28257 -10.28110 -10.27920 -10.27879
 Alpha  occ. eigenvalues --  -10.27812 -10.27805 -10.27704 -10.27409 -10.27278
 Alpha  occ. eigenvalues --  -10.27181 -10.26882 -10.26632 -10.26440 -10.26289
 Alpha  occ. eigenvalues --  -10.26288 -10.26209 -10.26150 -10.26146 -10.26020
 Alpha  occ. eigenvalues --  -10.25998 -10.25833 -10.25805 -10.25793 -10.25600
 Alpha  occ. eigenvalues --  -10.25588 -10.25567 -10.25439 -10.25193 -10.25090
 Alpha  occ. eigenvalues --  -10.24966 -10.24959 -10.24839 -10.24520 -10.24511
 Alpha  occ. eigenvalues --  -10.24451 -10.24368 -10.24367 -10.24057 -10.23965
 Alpha  occ. eigenvalues --  -10.23908 -10.23844 -10.23780 -10.23777 -10.23655
 Alpha  occ. eigenvalues --  -10.23638 -10.23514 -10.23491 -10.23219 -10.23193
 Alpha  occ. eigenvalues --  -10.23169 -10.23155 -10.23151 -10.23077 -10.22209
 Alpha  occ. eigenvalues --  -10.22008  -3.14696  -3.13666  -1.87527  -1.87064
 Alpha  occ. eigenvalues --   -1.86931  -1.86512  -1.86018  -1.85918  -1.10356
 Alpha  occ. eigenvalues --   -1.09880  -1.07680  -1.05044  -1.04993  -1.02759
 Alpha  occ. eigenvalues --   -1.02252  -1.01384  -1.00343  -0.99847  -0.99050
 Alpha  occ. eigenvalues --   -0.98575  -0.98267  -0.97683  -0.97629  -0.96851
 Alpha  occ. eigenvalues --   -0.86191  -0.85677  -0.84236  -0.83371  -0.83008
 Alpha  occ. eigenvalues --   -0.82908  -0.82492  -0.82422  -0.81788  -0.81487
 Alpha  occ. eigenvalues --   -0.81478  -0.81318  -0.81293  -0.80656  -0.78509
 Alpha  occ. eigenvalues --   -0.78475  -0.77907  -0.77608  -0.76872  -0.76510
 Alpha  occ. eigenvalues --   -0.76401  -0.76119  -0.75406  -0.75335  -0.74770
 Alpha  occ. eigenvalues --   -0.74429  -0.72871  -0.72626  -0.71846  -0.71609
 Alpha  occ. eigenvalues --   -0.71093  -0.71046  -0.70405  -0.70153  -0.69709
 Alpha  occ. eigenvalues --   -0.69280  -0.67113  -0.66740  -0.66153  -0.65972
 Alpha  occ. eigenvalues --   -0.63789  -0.63646  -0.63460  -0.62989  -0.62220
 Alpha  occ. eigenvalues --   -0.62156  -0.61996  -0.61201  -0.60303  -0.60181
 Alpha  occ. eigenvalues --   -0.59471  -0.59230  -0.58928  -0.58852  -0.58605
 Alpha  occ. eigenvalues --   -0.58441  -0.57219  -0.56415  -0.55243  -0.54803
 Alpha  occ. eigenvalues --   -0.54243  -0.54151  -0.53499  -0.53484  -0.53271
 Alpha  occ. eigenvalues --   -0.52810  -0.52626  -0.52359  -0.51887  -0.51676
 Alpha  occ. eigenvalues --   -0.50906  -0.50491  -0.50243  -0.50122  -0.49875
 Alpha  occ. eigenvalues --   -0.49673  -0.49377  -0.49123  -0.48652  -0.48652
 Alpha  occ. eigenvalues --   -0.48317  -0.48231  -0.48010  -0.47975  -0.47528
 Alpha  occ. eigenvalues --   -0.47155  -0.47109  -0.47096  -0.46782  -0.46779
 Alpha  occ. eigenvalues --   -0.46386  -0.46285  -0.46215  -0.45939  -0.45805
 Alpha  occ. eigenvalues --   -0.45771  -0.45673  -0.45340  -0.45037  -0.45029
 Alpha  occ. eigenvalues --   -0.44801  -0.44677  -0.44587  -0.44390  -0.44226
 Alpha  occ. eigenvalues --   -0.44216  -0.44190  -0.43973  -0.43879  -0.43618
 Alpha  occ. eigenvalues --   -0.43568  -0.43326  -0.43206  -0.43032  -0.42867
 Alpha  occ. eigenvalues --   -0.42707  -0.42498  -0.42470  -0.42298  -0.41957
 Alpha  occ. eigenvalues --   -0.41704  -0.41477  -0.41457  -0.41379  -0.41181
 Alpha  occ. eigenvalues --   -0.41054  -0.40912  -0.40848  -0.40679  -0.40493
 Alpha  occ. eigenvalues --   -0.40278  -0.39858  -0.39747  -0.39719  -0.39566
 Alpha  occ. eigenvalues --   -0.39522  -0.39282  -0.39206  -0.39147  -0.39007
 Alpha  occ. eigenvalues --   -0.38864  -0.38811  -0.38680  -0.38631  -0.38377
 Alpha  occ. eigenvalues --   -0.38236  -0.38142  -0.37768  -0.37748  -0.37686
 Alpha  occ. eigenvalues --   -0.37563  -0.37015  -0.36858  -0.36806  -0.36802
 Alpha  occ. eigenvalues --   -0.36748  -0.36461  -0.36390  -0.36370  -0.36231
 Alpha  occ. eigenvalues --   -0.36068  -0.35962  -0.35692  -0.35452  -0.35404
 Alpha  occ. eigenvalues --   -0.35222  -0.34233  -0.34093  -0.34017  -0.33676
 Alpha  occ. eigenvalues --   -0.33245  -0.33048  -0.32883  -0.32743  -0.32099
 Alpha  occ. eigenvalues --   -0.31986  -0.31678  -0.31676  -0.31493  -0.31216
 Alpha  occ. eigenvalues --   -0.31030  -0.30994  -0.29576  -0.29511  -0.29297
 Alpha  occ. eigenvalues --   -0.29146  -0.28685  -0.28415  -0.26851  -0.26789
 Alpha  occ. eigenvalues --   -0.26635  -0.26266  -0.26151  -0.26080  -0.25722
 Alpha  occ. eigenvalues --   -0.25375  -0.25204  -0.24804  -0.20961  -0.20870
 Alpha  occ. eigenvalues --   -0.18741  -0.18489
 Alpha virt. eigenvalues --   -0.11040  -0.10991  -0.05344  -0.04959  -0.03887
 Alpha virt. eigenvalues --   -0.03596  -0.01985  -0.01887  -0.00853  -0.00215
 Alpha virt. eigenvalues --    0.00099   0.00774   0.00938   0.01356   0.02041

 Mulliken charges:
               1
     1  Mg  12.001659
     2  C    5.976165
     3  C    5.995465
     4  C    6.028770
     5  C    6.007181
     6  N    6.988282
     7  C    6.033375
     8  C    5.990397
     9  C    6.008056
    10  C    5.973961
    11  C    6.006265
    12  C    5.998341
    13  C    6.000004
    14  H    1.005161
    15  N    7.004379
    16  C    5.966982
    17  C    5.977957
    18  C    5.988676
    19  C    5.960668
    20  C    6.001411
    21  C    5.986099
    22  O    7.972294
    23  C    6.009589
    24  N    7.017909
    25  C    5.963760
    26  C    6.003976
    27  C    5.991907
    28  C    6.020733
    29  C    5.998886
    30  C    5.994537
    31  C    5.996835
    32  N    6.998202
    33  C    6.023621
    34  C    6.035875
    35  C    6.003490
    36  C    6.027089
    37  C    5.995242
    38  C    6.015076
    39  O    8.023725
    40  C    6.004211
    41  C    6.002768
    42  O    8.008699
    43  O    8.000145
    44  C    5.997951
    45  H    0.988582
    46  H    0.996162
    47  H    1.014241
    48  H    1.000187
    49  H    0.995652
    50  H    0.990225
    51  H    0.988083
    52  H    1.007012
    53  H    1.007064
    54  H    0.993224
    55  H    0.995455
    56  H    1.001022
    57  H    0.982724
    58  H    0.985207
    59  H    0.983818
    60  H    0.994400
    61  H    0.986049
    62  H    0.989257
    63  H    1.003650
    64  H    1.001913
    65  H    0.989439
    66  H    1.003011
    67  H    1.001581
    68  H    1.011528
    69  H    0.998611
    70  H    0.993579
    71  H    1.011964
    72  H    1.007243
    73  H    1.017953
    74  H    1.015511
    75  H    1.023413
    76  H    1.006199
    77  H    1.000792
    78  H    1.006104
    79  H    1.003371
    80  Mg  12.000045
    81  C    5.999614
    82  C    6.000643
    83  C    6.000047
    84  C    5.999745
    85  N    6.999998
    86  C    6.000911
    87  C    5.999810
    88  C    6.000291
    89  C    5.999038
    90  C    6.000045
    91  C    5.999853
    92  C    6.000020
    93  H    1.000063
    94  N    7.000023
    95  C    5.998824
    96  C    5.999320
    97  C    5.999465
    98  C    5.999378
    99  C    6.000160
   100  C    5.999565
   101  O    7.999208
   102  C    6.000280
   103  N    6.999941
   104  C    5.999081
   105  C    6.000286
   106  C    5.999658
   107  C    6.000906
   108  C    6.000056
   109  C    5.999985
   110  C    5.999968
   111  N    7.000004
   112  C    6.001065
   113  C    6.000819
   114  C    6.000298
   115  C    6.000613
   116  C    5.999944
   117  C    6.000520
   118  O    8.001156
   119  C    5.999918
   120  C    6.000163
   121  O    8.000082
   122  O    8.000076
   123  C    5.999947
   124  H    0.999787
   125  H    0.999729
   126  H    1.000402
   127  H    0.999990
   128  H    0.999975
   129  H    0.999978
   130  H    0.999742
   131  H    1.000014
   132  H    1.000115
   133  H    0.999871
   134  H    1.000130
   135  H    1.000096
   136  H    0.999404
   137  H    0.999359
   138  H    0.999345
   139  H    0.999855
   140  H    0.999568
   141  H    0.999388
   142  H    1.000024
   143  H    1.000021
   144  H    0.999882
   145  H    1.000134
   146  H    0.999745
   147  H    0.999871
   148  H    1.000345
   149  H    1.000059
   150  H    0.999976
   151  H    1.000193
   152  H    1.000506
   153  H    1.000517
   154  H    1.000412
   155  H    1.000329
   156  H    1.000117
   157  H    1.000200
   158  H    1.000090
 Sum of Mulliken charges = 624.00000

 Dipole moment (field-independent basis, Debye):
    X=             -5.5389    Y=              0.8561    Z=             -8.5964  Tot=             10.2621
 Quadrupole moment (field-independent basis, Debye-Ang):
   XX=           -166.5802   YY=              1.8689   ZZ=             -4.8388
   XY=             18.9036   XZ=           -151.3669   YZ=              3.8019

 Normal termination of Gaussian 16 at Thu Oct 14 03:36:27 2021.
