 Gaussian 16, Revision A.03,
 Gaussian 16:  ES64L-G16RevA.03 25-Dec-2016

 --------------------------------------------------------
 #p PBE1PBE/Def2SVP td=(nstates=5) density=(transition=1)
 --------------------------------------------------------

 --------------------------------
 TDDFT excited states in gaussian
 --------------------------------
 Symbolic Z-matrix:
 Charge =  0 Multiplicity = 1

                         Standard orientation:
 ---------------------------------------------------------------------
 Center     Atomic      Atomic             Coordinates (Angstroms)
 Number     Number       Type             X           Y           Z
 ---------------------------------------------------------------------
      1         12           0       32.276169   -0.038102   -0.436415
      2          6           0       29.470015   -0.688367    1.912238
      3          6           0       32.954140    2.562541    1.613200
      4          6           0       34.451122    0.590823   -2.654896
      5          6           0       30.656468   -2.329736   -2.627055
      6          7           0       31.275439    0.829879    1.484426
      7          6           0       30.303160    0.294286    2.312065
      8          6           0       30.192916    0.966253    3.685501
      9          6           0       30.991375    2.269592    3.373869
     10          6           0       31.806628    1.907976    2.072482
     11          6           0       30.157834    3.496756    3.178460
     12          6           0       30.681668    0.144978    4.925475
     13          6           0       30.015489    0.390968    6.237884
     14          1           0       30.932382    0.334004    7.455618
     15          7           0       33.609296    1.390579   -0.509404
     16          6           0       33.804604    2.382251    0.474598
     17          6           0       35.005901    3.093075    0.143719
     18          6           0       35.515646    2.389049   -1.032365
     19          6           0       34.529846    1.441159   -1.408571
     20          6           0       35.656277    4.227424    1.018996
     21          6           0       36.832595    2.654940   -1.695137
     22          8           0       37.184673    2.057216   -2.741163
     23          6           0       37.842288    3.597770   -1.149988
     24          7           0       32.473556   -0.608546   -2.417743
     25          6           0       33.508946   -0.220545   -3.164985
     26          6           0       33.541295   -0.866200   -4.587360
     27          6           0       32.587435   -2.088497   -4.315136
     28          6           0       31.805321   -1.641399   -3.049857
     29          6           0       32.961000    0.085783   -5.682251
     30          6           0       33.389426   -3.423977   -4.015113
     31          6           0       34.460318   -3.906424   -5.016028
     32          7           0       30.477095   -1.299508   -0.385318
     33          6           0       30.024889   -2.206273   -1.337168
     34          6           0       28.796992   -2.815154   -0.881918
     35          6           0       28.567625   -2.281064    0.392500
     36          6           0       29.562761   -1.294210    0.632921
     37          6           0       28.031048   -3.901250   -1.559456
     38          6           0       27.667571   -2.331130    1.537182
     39          8           0       26.684585   -3.004678    1.816513
     40          6           0       28.344784   -1.316121    2.596681
     41          6           0       27.278349   -0.424797    3.019727
     42          8           0       26.645069    0.370241    2.307581
     43          8           0       26.784326   -0.900409    4.200511
     44          6           0       25.674573   -0.241786    4.811352
     45          1           0       33.202858    3.287434    2.391326
     46          1           0       35.183118    0.772396   -3.444386
     47          1           0       30.215394   -3.034266   -3.335796
     48          1           0       29.143478    1.222541    3.832308
     49          1           0       31.769244    2.429053    4.120004
     50          1           0       30.164569    3.717972    2.111145
     51          1           0       30.630227    4.344107    3.675183
     52          1           0       29.116915    3.450553    3.497939
     53          1           0       31.728096    0.405590    5.081551
     54          1           0       30.650636   -0.908251    4.647758
     55          1           0       29.284354   -0.414383    6.305328
     56          1           0       29.346634    1.251400    6.213837
     57          1           0       36.553486    3.941894    1.567370
     58          1           0       34.926158    4.679526    1.689752
     59          1           0       35.889595    4.972885    0.257750
     60          1           0       37.504765    4.614275   -1.353830
     61          1           0       38.764162    3.384547   -1.691770
     62          1           0       37.965444    3.343374   -0.097794
     63          1           0       34.587467   -1.106375   -4.779912
     64          1           0       31.856153   -2.299729   -5.094745
     65          1           0       33.797638    0.359078   -6.325733
     66          1           0       32.426456    0.962106   -5.317051
     67          1           0       32.289236   -0.586146   -6.218311
     68          1           0       32.679828   -4.250334   -3.981371
     69          1           0       33.776735   -3.319907   -3.001729
     70          1           0       35.379917   -3.952529   -4.432858
     71          1           0       34.527630   -3.095770   -5.742135
     72          1           0       34.234377   -4.888307   -5.431637
     73          1           0       28.711293   -4.269902   -2.327565
     74          1           0       27.161977   -3.420211   -2.008162
     75          1           0       27.662634   -4.674048   -0.884827
     76          1           0       28.737783   -1.880941    3.441844
     77          1           0       25.358948    0.632330    4.241363
     78          1           0       26.049025    0.105952    5.774223
     79          1           0       24.874899   -0.944440    5.041292
     80         12           0      -32.037234    0.597249    0.400780
     81          6           0      -29.562989   -1.899788   -0.206353
     82          6           0      -30.027783    2.688647   -1.211718
     83          6           0      -34.645938    2.710987    0.015718
     84          6           0      -34.218819   -2.116384    1.160439
     85          7           0      -30.051834    0.448404   -0.452261
     86          6           0      -29.157110   -0.641019   -0.527352
     87          6           0      -27.803755   -0.277250   -1.215432
     88          6           0      -27.994595    1.244793   -1.470319
     89          6           0      -29.415311    1.522169   -0.934978
     90          6           0      -26.832974    1.977459   -0.778544
     91          6           0      -27.414795   -1.064582   -2.540446
     92          6           0      -26.193627   -1.973700   -2.464453
     93          1           0      -25.060431   -1.727190   -3.481296
     94          7           0      -32.305173    2.442750   -0.366376
     95          6           0      -31.305138    3.161116   -1.021467
     96          6           0      -31.748717    4.461873   -1.322990
     97          6           0      -33.043945    4.591664   -0.856786
     98          6           0      -33.414573    3.270325   -0.391957
     99          6           0      -30.964156    5.634683   -2.020029
    100          6           0      -33.818197    5.887061   -0.925870
    101          8           0      -33.352267    6.930905   -1.274372
    102          6           0      -35.319372    5.825599   -0.354571
    103          7           0      -34.144328    0.335954    0.490231
    104          6           0      -34.997284    1.393419    0.328071
    105          6           0      -36.468583    0.809630    0.370148
    106          6           0      -36.371147   -0.649085    0.847095
    107          6           0      -34.808181   -0.851784    0.821674
    108          6           0      -37.470809    1.670707    1.085044
    109          6           0      -37.015037   -1.565351   -0.186013
    110          6           0      -37.492701   -2.912374    0.287639
    111          7           0      -31.883165   -1.556807    0.714631
    112          6           0      -32.839368   -2.488913    1.040313
    113          6           0      -32.247948   -3.769694    1.181478
    114          6           0      -30.899300   -3.639167    0.773643
    115          6           0      -30.789004   -2.273431    0.387668
    116          6           0      -32.921583   -5.040482    1.513243
    117          6           0      -29.596617   -4.267085    0.514523
    118          8           0      -29.245705   -5.434726    0.731306
    119          6           0      -28.650796   -3.171149   -0.110776
    120          6           0      -27.614112   -2.848654    0.833125
    121          8           0      -27.852863   -2.144204    1.842442
    122          8           0      -26.490654   -3.469365    0.422762
    123          6           0      -25.209150   -3.150456    1.109831
    124          1           0      -29.376589    3.414358   -1.704100
    125          1           0      -35.453144    3.442824   -0.058572
    126          1           0      -34.811077   -2.965754    1.506274
    127          1           0      -26.983795   -0.421627   -0.511993
    128          1           0      -28.004032    1.511497   -2.526709
    129          1           0      -27.063302    3.041590   -0.821445
    130          1           0      -25.846619    1.828719   -1.217749
    131          1           0      -26.729068    1.694454    0.269538
    132          1           0      -27.098569   -0.277862   -3.225442
    133          1           0      -28.285591   -1.589680   -2.933134
    134          1           0      -26.549360   -3.000471   -2.556484
    135          1           0      -25.720635   -1.855534   -1.488921
    136          1           0      -31.594595    5.955514   -2.849567
    137          1           0      -29.998606    5.307434   -2.405359
    138          1           0      -30.663368    6.457467   -1.371502
    139          1           0      -35.680800    6.853349   -0.372053
    140          1           0      -35.182777    5.404609    0.641810
    141          1           0      -35.798672    5.146465   -1.059595
    142          1           0      -36.767423    0.820433   -0.678624
    143          1           0      -36.805571   -0.879182    1.819893
    144          1           0      -38.237504    1.022452    1.508484
    145          1           0      -37.877558    2.343155    0.329487
    146          1           0      -37.039757    2.348912    1.820553
    147          1           0      -36.381272   -1.742081   -1.055525
    148          1           0      -37.865345   -1.094787   -0.679578
    149          1           0      -37.497335   -3.003542    1.373657
    150          1           0      -36.821246   -3.665932   -0.124447
    151          1           0      -38.440365   -3.173223   -0.183420
    152          1           0      -33.806796   -4.878767    2.129160
    153          1           0      -32.181353   -5.628060    2.056842
    154          1           0      -33.231462   -5.460970    0.556274
    155          1           0      -28.282547   -3.401901   -1.110411
    156          1           0      -24.713570   -4.120113    1.043548
    157          1           0      -25.331002   -2.780637    2.127486
    158          1           0      -24.564480   -2.530799    0.485601
 ---------------------------------------------------------------------

 SCF Done:  E(RPBE1PBE) =  -4067.37294976     A.U. after   16 cycles

 Excitation energies and oscillator strengths:

 Excited State   1:      Singlet-A      1.8125 eV  684.05 nm  f=0.0000  <S**2>=0.000
     312 -> 313        0.70711
 This state for optimization and/or second-order correction.
 Total Energy, E(TD-HF/TD-DFT) =  -4067.30634149
 Copying the excited state density for this state as the 1-particle RhoCI density.

 Excited State   2:      Singlet-A      1.8204 eV  681.10 nm  f=0.3627  <S**2>=0.000
     309 -> 316       -0.15128
     311 -> 313        0.70061
     311 <- 313       -0.12604

 Excited State   3:      Singlet-A      1.8689 eV  663.41 nm  f=0.3698  <S**2>=0.000
     310 -> 315        0.16692
     312 -> 314        0.69418
     312 <- 314       -0.10955

 Excited State   4:      Singlet-A      2.1419 eV  578.86 nm  f=0.0000  <S**2>=0.000
     311 -> 314        0.70711

 Excited State   5:      Singlet-A      2.2657 eV  547.23 nm  f=0.1130  <S**2>=0.000
     310 -> 314        0.64685
     312 -> 315       -0.26705

 The electronic state is 1-A.
 Alpha  occ. eigenvalues --  -46.92334 -46.91938 -19.27157 -19.25380 -19.20040
 Alpha  occ. eigenvalues --  -19.19931 -19.19725 -19.19554 -19.19140 -19.17800
 Alpha  occ. eigenvalues --  -14.41966 -14.41772 -14.41673 -14.41091 -14.39413
 Alpha  occ. eigenvalues --  -14.39220 -14.39092 -14.38243 -10.36507 -10.36039
 Alpha  occ. eigenvalues --  -10.33052 -10.32699 -10.32505 -10.31234 -10.30064
 Alpha  occ. eigenvalues --  -10.29478 -10.29244 -10.29123 -10.28575 -10.28498
 Alpha  occ. eigenvalues --  -10.28444 -10.28441 -10.28379 -10.28323 -10.28285
 Alpha  occ. eigenvalues --  -10.27997 -10.27971 -10.27656 -10.27035 -10.26862
 Alpha  occ. eigenvalues --  -10.26718 -10.26680 -10.26517 -10.26396 -10.26172
 Alpha  occ. eigenvalues --  -10.26067 -10.26029 -10.26017 -10.25927 -10.25862
 Alpha  occ. eigenvalues --  -10.25773 -10.25737 -10.25663 -10.25642 -10.25625
 Alpha  occ. eigenvalues --  -10.25511 -10.25462 -10.25392 -10.25253 -10.25128
 Alpha  occ. eigenvalues --  -10.25070 -10.25036 -10.25035 -10.25029 -10.24725
 Alpha  occ. eigenvalues --  -10.24597 -10.24575 -10.24542 -10.24344 -10.24055
 Alpha  occ. eigenvalues --  -10.23840 -10.23586 -10.23586 -10.23553 -10.23492
 Alpha  occ. eigenvalues --  -10.23472 -10.23439 -10.23435 -10.23264 -10.23188
 Alpha  occ. eigenvalues --  -10.23156 -10.23085 -10.23033 -10.22875 -10.22830
 Alpha  occ. eigenvalues --  -10.22649  -3.14572  -3.14110  -1.87381  -1.86942
 Alpha  occ. eigenvalues --   -1.86926  -1.86818  -1.86464  -1.86360  -1.11419
 Alpha  occ. eigenvalues --   -1.11225  -1.06603  -1.04893  -1.03545  -1.02285
 Alpha  occ. eigenvalues --   -1.02196  -1.01716  -0.99674  -0.98676  -0.98607
 Alpha  occ. eigenvalues --   -0.98353  -0.97868  -0.97480  -0.97171  -0.96377
 Alpha  occ. eigenvalues --   -0.87980  -0.86627  -0.83969  -0.83755  -0.83564
 Alpha  occ. eigenvalues --   -0.83136  -0.82972  -0.82383  -0.81810  -0.81642
 Alpha  occ. eigenvalues --   -0.81167  -0.81022  -0.80829  -0.80547  -0.79048
 Alpha  occ. eigenvalues --   -0.78993  -0.78572  -0.78313  -0.77530  -0.77425
 Alpha  occ. eigenvalues --   -0.76374  -0.76155  -0.75497  -0.75479  -0.75111
 Alpha  occ. eigenvalues --   -0.74513  -0.72903  -0.72088  -0.71751  -0.71650
 Alpha  occ. eigenvalues --   -0.71611  -0.70907  -0.70567  -0.70556  -0.69834
 Alpha  occ. eigenvalues --   -0.69437  -0.67774  -0.67260  -0.66168  -0.65371
 Alpha  occ. eigenvalues --   -0.63656  -0.63542  -0.63045  -0.63028  -0.62565
 Alpha  occ. eigenvalues --   -0.62221  -0.61619  -0.61417  -0.60096  -0.60070
 Alpha  occ. eigenvalues --   -0.59998  -0.59598  -0.59515  -0.59508  -0.59149
 Alpha  occ. eigenvalues --   -0.58983  -0.56848  -0.56585  -0.55414  -0.54646
 Alpha  occ. eigenvalues --   -0.54356  -0.54223  -0.53978  -0.53904  -0.53322
 Alpha  occ. eigenvalues --   -0.53027  -0.52904  -0.52822  -0.52367  -0.51823
 Alpha  occ. eigenvalues --   -0.50936  -0.50560  -0.50407  -0.50149  -0.49576
 Alpha  occ. eigenvalues --   -0.49429  -0.49280  -0.49213  -0.48890  -0.48742
 Alpha  occ. eigenvalues --   -0.48432  -0.48246  -0.47849  -0.47753  -0.47441
 Alpha  occ. eigenvalues --   -0.47315  -0.47051  -0.47020  -0.46932  -0.46742
 Alpha  occ. eigenvalues --   -0.46461  -0.46248  -0.46103  -0.46022  -0.45839
 Alpha  occ. eigenvalues --   -0.45776  -0.45537  -0.45180  -0.45041  -0.44900
 Alpha  occ. eigenvalues --   -0.44812  -0.44554  -0.44485  -0.44409  -0.44358
 Alpha  occ. eigenvalues --   -0.44352  -0.44041  -0.43866  -0.43753  -0.43568
 Alpha  occ. eigenvalues --   -0.43449  -0.43065  -0.42995  -0.42941  -0.42810
 Alpha  occ. eigenvalues --   -0.42690  -0.42520  -0.42293  -0.42205  -0.41997
 Alpha  occ. eigenvalues --   -0.41957  -0.41661  -0.41263  -0.41116  -0.41057
 Alpha  occ. eigenvalues --   -0.41002  -0.40894  -0.40777  -0.40730  -0.40311
 Alpha  occ. eigenvalues --   -0.40096  -0.40040  -0.39927  -0.39902  -0.39640
 Alpha  occ. eigenvalues --   -0.39564  -0.39531  -0.39497  -0.39264  -0.39097
 Alpha  occ. eigenvalues --   -0.38880  -0.38795  -0.38498  -0.38386  -0.38312
 Alpha  occ. eigenvalues --   -0.38148  -0.38117  -0.37897  -0.37885  -0.37660
 Alpha  occ. eigenvalues --   -0.37646  -0.37522  -0.37370  -0.37159  -0.37042
 Alpha  occ. eigenvalues --   -0.36857  -0.36811  -0.36586  -0.36520  -0.36384
 Alpha  occ. eigenvalues --   -0.36140  -0.35709  -0.35526  -0.35526  -0.35191
 Alpha  occ. eigenvalues --   -0.35090  -0.34702  -0.34371  -0.34223  -0.34075
 Alpha  occ. eigenvalues --   -0.33560  -0.33382  -0.33166  -0.33114  -0.32772
 Alpha  occ. eigenvalues --   -0.32615  -0.32250  -0.32200  -0.31764  -0.31501
 Alpha  occ. eigenvalues --   -0.31059  -0.30684  -0.29839  -0.29415  -0.29104
 Alpha  occ. eigenvalues --   -0.29092  -0.28669  -0.28580  -0.27385  -0.27219
 Alpha  occ. eigenvalues --   -0.26275  -0.26147  -0.25771  -0.25751  -0.25513
 Alpha  occ. eigenvalues --   -0.25501  -0.24746  -0.24721  -0.21244  -0.21166
 Alpha  occ. eigenvalues --   -0.19310  -0.18870
 Alpha virt. eigenvalues --   -0.12002  -0.11231  -0.05245  -0.04428  -0.03932
 Alpha virt. eigenvalues --   -0.03710  -0.02240  -0.01676  -0.01024  -0.00514
 Alpha virt. eigenvalues --   -0.00471   0.00011   0.00566   0.00930   0.01394

 Mulliken charges:
               1
     1  Mg  12.000000
     2  C    6.000000
     3  C    6.000000
     4  C    6.000000
     5  C    6.000000
     6  N    7.000000
     7  C    6.000000
     8  C    6.000000
     9  C    6.000000
    10  C    6.000000
    11  C    6.000000
    12  C    6.000000
    13  C    6.000000
    14  H    1.000000
    15  N    7.000000
    16  C    6.000000
    17  C    6.000000
    18  C    6.000000
    19  C    6.000000
    20  C    6.000000
    21  C    6.000000
    22  O    8.000000
    23  C    6.000000
    24  N    7.000000
    25  C    6.000000
    26  C    6.000000
    27  C    6.000000
    28  C    6.000000
    29  C    6.000000
    30  C    6.000000
    31  C    6.000000
    32  N    7.000000
    33  C    6.000000
    34  C    6.000000
    35  C    6.000000
    36  C    6.000000
    37  C    6.000000
    38  C    6.000000
    39  O    8.000000
    40  C    6.000000
    41  C    6.000000
    42  O    8.000000
    43  O    8.000000
    44  C    6.000000
    45  H    1.000000
    46  H    1.000000
    47  H    1.000000
    48  H    1.000000
    49  H    1.000000
    50  H    1.000000
    51  H    1.000000
    52  H    1.000000
    53  H    1.000000
    54  H    1.000000
    55  H    1.000000
    56  H    1.000000
    57  H    1.000000
    58  H    1.000000
    59  H    1.000000
    60  H    1.000000
    61  H    1.000000
    62  H    1.000000
    63  H    1.000000
    64  H    1.000000
    65  H    1.000000
    66  H    1.000000
    67  H    1.000000
    68  H    1.000000
    69  H    1.000000
    70  H    1.000000
    71  H    1.000000
    72  H    1.000000
    73  H    1.000000
    74  H    1.000000
    75  H    1.000000
    76  H    1.000000
    77  H    1.000000
    78  H    1.000000
    79  H    1.000000
    80  Mg  12.000000
    81  C    6.000000
    82  C    6.000000
    83  C    6.000000
    84  C    6.000000
    85  N    7.000000
    86  C    6.000000
    87  C    6.000000
    88  C    6.000000
    89  C    6.000000
    90  C    6.000000
    91  C    6.000000
    92  C    6.000000
    93  H    1.000000
    94  N    7.000000
    95  C    6.000000
    96  C    6.000000
    97  C    6.000000
    98  C    6.000000
    99  C    6.000000
   100  C    6.000000
   101  O    8.000000
   102  C    6.000000
   103  N    7.000000
   104  C    6.000000
   105  C    6.000000
   106  C    6.000000
   107  C    6.000000
   108  C    6.000000
   109  C    6.000000
   110  C    6.000000
   111  N    7.000000
   112  C    6.000000
   113  C    6.000000
   114  C    6.000000
   115  C    6.000000
   116  C    6.000000
   117  C    6.000000
   118  O    8.000000
   119  C    6.000000
   120  C    6.000000
   121  O    8.000000
   122  O    8.000000
   123  C    6.000000
   124  H    1.000000
   125  H    1.000000
   126  H    1.000000
   127  H    1.000000
   128  H    1.000000
   129  H    1.000000
   130  H    1.000000
   131  H    1.000000
   132  H    1.000000
   133  H    1.000000
   134  H    1.000000
   135  H    1.000000
   136  H    1.000000
   137  H    1.000000
   138  H    1.000000
   139  H    1.000000
   140  H    1.000000
   141  H    1.000000
   142  H    1.000000
   143  H    1.000000
   144  H    1.000000
   145  H    1.000000
   146  H    1.000000
   147  H    1.000000
   148  H    1.000000
   149  H    1.000000
   150  H    1.000000
   151  H    1.000000
   152  H    1.000000
   153  H    1.000000
   154  H    1.000000
   155  H    1.000000
   156  H    1.000000
   157  H    1.000000
   158  H    1.000000
 Sum of Mulliken charges = 624.00000

 Dipole moment (field-independent basis, Debye):
    X=             -0.0000    Y=             -0.0000    Z=             -0.0000  Tot=              0.0000
 Quadrupole moment (field-independent basis, Debye-Ang):
   XX=             -0.0000   YY=             -0.0000   ZZ=              0.0000
   XY=             -0.0000   XZ=             -0.0000   YZ=              0.0000

 Normal termination of Gaussian 16 at Thu Oct 14 02:01:47 2021.
