 Gaussian 16, Revision A.03,
 Gaussian 16:  ES64L-G16RevA.03 25-Dec-2016

 --------------------------------------------------------
 #p PBE1PBE/Def2SVP td=(nstates=5) density=(transition=1)
 --------------------------------------------------------

 --------------------------------
 TDDFT excited states in gaussian
 --------------------------------
 Symbolic Z-matrix:
 Charge =  0 Multiplicity = 1

                         Standard orientation:
 ---------------------------------------------------------------------
 Center     Atomic      Atomic             Coordinates (Angstroms)
 Number     Number       Type             X           Y           Z
 ---------------------------------------------------------------------
      1         12           0      -20.956536   -0.534054   -0.184457
      2          6           0      -18.954391    2.245847   -0.001841
      3          6           0      -23.557557    1.336764    1.037080
      4          6           0      -22.965620   -3.360134   -0.255197
      5          6           0      -18.197143   -2.472460   -0.989875
      6          7           0      -21.243754    1.579324    0.512755
      7          6           0      -20.265609    2.524345    0.387879
      8          6           0      -20.746831    3.830656    0.799887
      9          6           0      -22.145759    3.594011    1.346715
     10          6           0      -22.366355    2.058948    0.990785
     11          6           0      -22.427742    3.904163    2.857419
     12          6           0      -20.692890    4.865434   -0.375212
     13          6           0      -20.402470    6.358933    0.003057
     14          1           0      -20.845433    6.830034    1.402158
     15          7           0      -23.025676   -0.895755    0.223957
     16          6           0      -23.921101    0.042715    0.707596
     17          6           0      -25.239394   -0.600395    0.880785
     18          6           0      -25.082649   -2.000873    0.493632
     19          6           0      -23.667396   -2.140772    0.108911
     20          6           0      -26.480586    0.100120    1.409026
     21          6           0      -26.162859   -3.050621    0.375378
     22          8           0      -25.862763   -4.180397   -0.048874
     23          6           0      -27.580055   -2.852933    0.764649
     24          7           0      -20.629472   -2.639792   -0.490092
     25          6           0      -21.613789   -3.542812   -0.518861
     26          6           0      -21.086611   -4.909389   -0.987128
     27          6           0      -19.569943   -4.610172   -1.488043
     28          6           0      -19.483334   -3.111765   -1.029738
     29          6           0      -21.203919   -5.980697    0.140483
     30          6           0      -19.334788   -4.732654   -3.018569
     31          6           0      -18.441181   -5.900049   -3.463587
     32          7           0      -18.937373   -0.242229   -0.389626
     33          6           0      -17.908402   -1.130858   -0.709921
     34          6           0      -16.615631   -0.413257   -0.769353
     35          6           0      -17.024251    0.908685   -0.473852
     36          6           0      -18.425468    0.955942   -0.244943
     37          6           0      -15.307969   -0.935531   -1.111047
     38          6           0      -16.539436    2.302916   -0.408865
     39          8           0      -15.457986    2.783583   -0.621385
     40          6           0      -17.774042    3.207258   -0.057308
     41          6           0      -17.440755    4.007010    1.132267
     42          8           0      -17.363771    3.468075    2.248130
     43          8           0      -17.372258    5.349878    0.919714
     44          6           0      -17.249607    6.236789    2.072320
     45          1           0      -24.365020    1.960441    1.426310
     46          1           0      -23.605127   -4.245337   -0.235504
     47          1           0      -17.385030   -3.095716   -1.369713
     48          1           0      -20.103129    4.184266    1.606049
     49          1           0      -22.902139    4.068529    0.720473
     50          1           0      -21.658795    4.310815    3.515075
     51          1           0      -22.789529    2.988112    3.323747
     52          1           0      -23.284164    4.560624    3.013339
     53          1           0      -21.595818    4.779299   -0.979816
     54          1           0      -19.997545    4.500704   -1.130999
     55          1           0      -20.858265    7.024634   -0.730422
     56          1           0      -19.337651    6.581582    0.064810
     57          1           0      -26.350507    1.174704    1.532570
     58          1           0      -26.749314   -0.270871    2.398493
     59          1           0      -27.268927    0.080654    0.656750
     60          1           0      -28.106724   -3.760985    0.472669
     61          1           0      -28.043147   -1.982649    0.297784
     62          1           0      -27.634800   -2.621393    1.828503
     63          1           0      -21.634653   -5.163487   -1.894516
     64          1           0      -18.826839   -5.186596   -0.937125
     65          1           0      -21.671079   -6.908893   -0.188898
     66          1           0      -21.804706   -5.606540    0.969884
     67          1           0      -20.178699   -6.107162    0.489191
     68          1           0      -18.892261   -3.840007   -3.459086
     69          1           0      -20.271493   -4.840496   -3.565868
     70          1           0      -18.517561   -6.711371   -2.739600
     71          1           0      -17.410371   -5.547330   -3.474937
     72          1           0      -18.723214   -6.132850   -4.489582
     73          1           0      -14.607192   -0.156681   -1.410906
     74          1           0      -15.335635   -1.681911   -1.904688
     75          1           0      -14.839801   -1.278493   -0.188274
     76          1           0      -17.859952    3.799087   -0.969236
     77          1           0      -16.309052    6.139359    2.615190
     78          1           0      -18.116850    6.149066    2.726695
     79          1           0      -17.241329    7.272468    1.732970
     80         12           0       20.764782   -0.709241    0.397454
     81          6           0       20.312873    2.176721   -1.547299
     82          6           0       22.412454    1.028187    2.718668
     83          6           0       21.152099   -3.488846    2.009102
     84          6           0       19.913573   -2.549385   -2.598875
     85          7           0       21.367791    1.358109    0.466205
     86          6           0       20.965639    2.384958   -0.293181
     87          6           0       21.570882    3.689726    0.156368
     88          6           0       22.575293    3.226034    1.286373
     89          6           0       22.097666    1.806993    1.526770
     90          6           0       24.109679    3.310244    0.999804
     91          6           0       20.439277    4.649586    0.790062
     92          6           0       20.489205    6.114399    0.244556
     93          1           0       19.162358    6.952280    0.661477
     94          7           0       21.414577   -1.112169    2.184800
     95          6           0       22.047577   -0.248677    3.062554
     96          6           0       22.148789   -0.894063    4.342512
     97          6           0       21.747002   -2.287251    4.223273
     98          6           0       21.292897   -2.354597    2.781536
     99          6           0       22.797081   -0.119343    5.525672
    100          6           0       21.675867   -3.488448    5.159212
    101          8           0       21.207574   -4.608971    4.888303
    102          6           0       22.134361   -3.166032    6.537309
    103          7           0       20.694196   -2.686329   -0.322493
    104          6           0       20.918072   -3.644457    0.635167
    105          6           0       20.908568   -5.044677    0.020782
    106          6           0       20.213837   -4.775226   -1.339787
    107          6           0       20.322640   -3.255847   -1.482452
    108          6           0       22.370380   -5.644887    0.020883
    109          6           0       18.715683   -5.283971   -1.471249
    110          6           0       18.200710   -5.559683   -2.893004
    111          7           0       20.181501   -0.318852   -1.661095
    112          6           0       19.884596   -1.157979   -2.691975
    113          6           0       19.415943   -0.423482   -3.845742
    114          6           0       19.511810    0.901126   -3.381364
    115          6           0       20.037944    0.923877   -2.081797
    116          6           0       18.925824   -0.882313   -5.238382
    117          6           0       19.257876    2.260908   -3.767990
    118          8           0       18.676025    2.762876   -4.693769
    119          6           0       19.945222    3.158618   -2.613294
    120          6           0       18.912221    4.177770   -2.410035
    121          8           0       17.869551    4.119723   -1.710379
    122          8           0       19.304374    5.222517   -3.159418
    123          6           0       18.445977    6.407242   -3.199841
    124          1           0       22.871886    1.604448    3.524641
    125          1           0       21.209038   -4.423458    2.571338
    126          1           0       19.575189   -3.155816   -3.441604
    127          1           0       22.051740    4.273586   -0.628970
    128          1           0       22.460073    3.708777    2.257013
    129          1           0       24.485896    2.291084    0.911229
    130          1           0       24.534871    3.790093    1.881139
    131          1           0       24.446219    3.826875    0.101635
    132          1           0       20.402172    4.687008    1.879429
    133          1           0       19.485264    4.159003    0.596639
    134          1           0       20.564498    6.115227   -0.842644
    135          1           0       21.292291    6.732077    0.645866
    136          1           0       22.004522    0.410731    6.052052
    137          1           0       23.381957    0.746875    5.213908
    138          1           0       23.532510   -0.654730    6.125722
    139          1           0       21.550337   -2.397421    7.042287
    140          1           0       23.176216   -2.890888    6.368716
    141          1           0       22.167979   -4.030163    7.201424
    142          1           0       20.291507   -5.645007    0.689447
    143          1           0       20.754688   -5.299185   -2.127799
    144          1           0       22.773991   -5.653962   -0.991519
    145          1           0       22.517117   -6.665375    0.373732
    146          1           0       23.137399   -5.067619    0.537584
    147          1           0       18.141265   -4.415415   -1.147998
    148          1           0       18.423800   -6.153193   -0.881486
    149          1           0       17.409548   -4.867782   -3.184761
    150          1           0       17.807530   -6.547561   -3.133892
    151          1           0       19.027454   -5.298318   -3.552032
    152          1           0       19.387641   -1.855165   -5.406871
    153          1           0       19.218834   -0.171212   -6.011902
    154          1           0       17.844648   -0.995188   -5.158954
    155          1           0       20.832337    3.650476   -3.012689
    156          1           0       18.950820    7.216774   -2.672976
    157          1           0       17.430208    6.192508   -2.869581
    158          1           0       18.396608    6.754813   -4.231686
 ---------------------------------------------------------------------

 SCF Done:  E(RPBE1PBE) =  -4067.40820497     A.U. after   16 cycles

 Excitation energies and oscillator strengths:

 Excited State   1:      Singlet-A      1.8754 eV  661.09 nm  f=0.3732  <S**2>=0.000
     309 -> 315        0.18959
     311 -> 313        0.68776
 This state for optimization and/or second-order correction.
 Total Energy, E(TD-HF/TD-DFT) =  -4067.33928392
 Copying the excited state density for this state as the 1-particle RhoCI density.

 Excited State   2:      Singlet-A      1.8897 eV  656.09 nm  f=0.3712  <S**2>=0.000
     310 -> 316        0.18002
     312 -> 314        0.68936
     312 <- 314       -0.10433

 Excited State   3:      Singlet-A      1.9509 eV  635.54 nm  f=0.0000  <S**2>=0.000
     312 -> 313        0.70711

 Excited State   4:      Singlet-A      2.0945 eV  591.94 nm  f=0.0000  <S**2>=0.000
     311 -> 314        0.70710

 Excited State   5:      Singlet-A      2.2462 eV  551.98 nm  f=0.0662  <S**2>=0.000
     309 -> 313        0.63542
     311 -> 315       -0.29950

 The electronic state is 1-A.
 Alpha  occ. eigenvalues --  -46.92253 -46.90967 -19.26550 -19.25493 -19.19794
 Alpha  occ. eigenvalues --  -19.19498 -19.19271 -19.19232 -19.18661 -19.18539
 Alpha  occ. eigenvalues --  -14.42044 -14.41290 -14.41265 -14.41195 -14.39158
 Alpha  occ. eigenvalues --  -14.39099 -14.38871 -14.38072 -10.36524 -10.35534
 Alpha  occ. eigenvalues --  -10.33009 -10.32027 -10.31994 -10.31820 -10.29501
 Alpha  occ. eigenvalues --  -10.29422 -10.28964 -10.28715 -10.28467 -10.28300
 Alpha  occ. eigenvalues --  -10.28300 -10.28204 -10.28201 -10.28096 -10.28051
 Alpha  occ. eigenvalues --  -10.27800 -10.27702 -10.27679 -10.27648 -10.27585
 Alpha  occ. eigenvalues --  -10.27004 -10.26939 -10.26791 -10.26780 -10.26551
 Alpha  occ. eigenvalues --  -10.26349 -10.26198 -10.26159 -10.26051 -10.26039
 Alpha  occ. eigenvalues --  -10.25774 -10.25647 -10.25614 -10.25585 -10.25579
 Alpha  occ. eigenvalues --  -10.25558 -10.25525 -10.25487 -10.25223 -10.25196
 Alpha  occ. eigenvalues --  -10.25178 -10.25058 -10.25033 -10.24967 -10.24910
 Alpha  occ. eigenvalues --  -10.24752 -10.24598 -10.24426 -10.24111 -10.24092
 Alpha  occ. eigenvalues --  -10.24084 -10.23959 -10.23920 -10.23670 -10.23641
 Alpha  occ. eigenvalues --  -10.23512 -10.23476 -10.23467 -10.23357 -10.23317
 Alpha  occ. eigenvalues --  -10.23239 -10.22990 -10.22988 -10.22816 -10.22772
 Alpha  occ. eigenvalues --  -10.22212  -3.14260  -3.13381  -1.87123  -1.86618
 Alpha  occ. eigenvalues --   -1.86490  -1.86208  -1.85768  -1.85620  -1.11160
 Alpha  occ. eigenvalues --   -1.10685  -1.05682  -1.05543  -1.04006  -1.03574
 Alpha  occ. eigenvalues --   -1.01877  -1.00292  -0.99828  -0.99715  -0.98967
 Alpha  occ. eigenvalues --   -0.98693  -0.98252  -0.98032  -0.97016  -0.95571
 Alpha  occ. eigenvalues --   -0.87083  -0.86810  -0.83405  -0.83394  -0.82553
 Alpha  occ. eigenvalues --   -0.82512  -0.82334  -0.81990  -0.81773  -0.81484
 Alpha  occ. eigenvalues --   -0.81151  -0.81049  -0.80601  -0.80435  -0.78794
 Alpha  occ. eigenvalues --   -0.78224  -0.78098  -0.77807  -0.76671  -0.76555
 Alpha  occ. eigenvalues --   -0.76440  -0.75975  -0.75610  -0.75492  -0.74875
 Alpha  occ. eigenvalues --   -0.74605  -0.72730  -0.72441  -0.71828  -0.71615
 Alpha  occ. eigenvalues --   -0.71588  -0.71189  -0.70521  -0.70217  -0.69717
 Alpha  occ. eigenvalues --   -0.69219  -0.67228  -0.67039  -0.66578  -0.65955
 Alpha  occ. eigenvalues --   -0.63575  -0.63525  -0.63184  -0.62718  -0.62442
 Alpha  occ. eigenvalues --   -0.62285  -0.61601  -0.61338  -0.60459  -0.60235
 Alpha  occ. eigenvalues --   -0.59985  -0.59826  -0.59581  -0.59413  -0.58992
 Alpha  occ. eigenvalues --   -0.58857  -0.57288  -0.56333  -0.54758  -0.54368
 Alpha  occ. eigenvalues --   -0.54356  -0.54088  -0.53752  -0.53741  -0.53245
 Alpha  occ. eigenvalues --   -0.53193  -0.52881  -0.52607  -0.51840  -0.51540
 Alpha  occ. eigenvalues --   -0.50888  -0.50662  -0.50374  -0.50291  -0.50025
 Alpha  occ. eigenvalues --   -0.49891  -0.49243  -0.48859  -0.48495  -0.48471
 Alpha  occ. eigenvalues --   -0.48037  -0.47914  -0.47646  -0.47586  -0.47437
 Alpha  occ. eigenvalues --   -0.47338  -0.47074  -0.46911  -0.46748  -0.46583
 Alpha  occ. eigenvalues --   -0.46225  -0.46206  -0.46087  -0.45933  -0.45792
 Alpha  occ. eigenvalues --   -0.45705  -0.45570  -0.45204  -0.45017  -0.44839
 Alpha  occ. eigenvalues --   -0.44743  -0.44552  -0.44495  -0.44392  -0.44006
 Alpha  occ. eigenvalues --   -0.43900  -0.43700  -0.43527  -0.43496  -0.43118
 Alpha  occ. eigenvalues --   -0.43058  -0.43026  -0.42739  -0.42688  -0.42618
 Alpha  occ. eigenvalues --   -0.42566  -0.42100  -0.42094  -0.41945  -0.41832
 Alpha  occ. eigenvalues --   -0.41746  -0.41573  -0.41332  -0.41181  -0.41080
 Alpha  occ. eigenvalues --   -0.40929  -0.40626  -0.40581  -0.40457  -0.40429
 Alpha  occ. eigenvalues --   -0.40251  -0.40245  -0.39924  -0.39888  -0.39716
 Alpha  occ. eigenvalues --   -0.39628  -0.39294  -0.39109  -0.38893  -0.38573
 Alpha  occ. eigenvalues --   -0.38559  -0.38398  -0.38371  -0.38292  -0.38261
 Alpha  occ. eigenvalues --   -0.37958  -0.37913  -0.37804  -0.37686  -0.37635
 Alpha  occ. eigenvalues --   -0.37494  -0.37405  -0.37020  -0.36950  -0.36843
 Alpha  occ. eigenvalues --   -0.36664  -0.36575  -0.36320  -0.36209  -0.35992
 Alpha  occ. eigenvalues --   -0.35958  -0.35734  -0.35672  -0.35518  -0.35498
 Alpha  occ. eigenvalues --   -0.35242  -0.35178  -0.34835  -0.34495  -0.34488
 Alpha  occ. eigenvalues --   -0.33657  -0.33133  -0.32808  -0.32452  -0.32417
 Alpha  occ. eigenvalues --   -0.32165  -0.31995  -0.31698  -0.31632  -0.31051
 Alpha  occ. eigenvalues --   -0.30451  -0.30334  -0.29434  -0.29234  -0.29159
 Alpha  occ. eigenvalues --   -0.28890  -0.28466  -0.27846  -0.26960  -0.26665
 Alpha  occ. eigenvalues --   -0.26384  -0.25949  -0.25770  -0.25648  -0.25549
 Alpha  occ. eigenvalues --   -0.25519  -0.25188  -0.25098  -0.21088  -0.20785
 Alpha  occ. eigenvalues --   -0.18768  -0.18471
 Alpha virt. eigenvalues --   -0.10985  -0.10755  -0.05721  -0.05185  -0.04446
 Alpha virt. eigenvalues --   -0.03621  -0.01927  -0.01794  -0.00204   0.00194
 Alpha virt. eigenvalues --    0.00376   0.00866   0.00978   0.01345   0.01514

 Mulliken charges:
               1
     1  Mg  12.000022
     2  C    6.000618
     3  C    5.999952
     4  C    5.999281
     5  C    5.999968
     6  N    7.000309
     7  C    5.999161
     8  C    6.000337
     9  C    5.999895
    10  C    6.000696
    11  C    5.999961
    12  C    6.000111
    13  C    5.999995
    14  H    0.999875
    15  N    6.999830
    16  C    6.000876
    17  C    6.000716
    18  C    6.000352
    19  C    6.000895
    20  C    5.999890
    21  C    6.000270
    22  O    8.000802
    23  C    5.999897
    24  N    6.999602
    25  C    6.000929
    26  C    5.999752
    27  C    6.000278
    28  C    5.999211
    29  C    5.999927
    30  C    6.000205
    31  C    5.999977
    32  N    7.000124
    33  C    5.999148
    34  C    5.999269
    35  C    5.999957
    36  C    5.999208
    37  C    6.000091
    38  C    5.999483
    39  O    7.999218
    40  C    5.999902
    41  C    5.999957
    42  O    7.999944
    43  O    7.999943
    44  C    6.000051
    45  H    1.000365
    46  H    1.000066
    47  H    0.999595
    48  H    0.999992
    49  H    0.999991
    50  H    1.000343
    51  H    0.999918
    52  H    1.000103
    53  H    0.999756
    54  H    1.000121
    55  H    0.999931
    56  H    1.000092
    57  H    1.000424
    58  H    1.000541
    59  H    1.000482
    60  H    1.000374
    61  H    1.000153
    62  H    1.000197
    63  H    0.999946
    64  H    0.999962
    65  H    1.000022
    66  H    0.999859
    67  H    1.000264
    68  H    1.000036
    69  H    0.999672
    70  H    0.999888
    71  H    1.000037
    72  H    0.999838
    73  H    0.999539
    74  H    0.999546
    75  H    0.999481
    76  H    0.999834
    77  H    0.999979
    78  H    0.999880
    79  H    0.999886
    80  Mg  12.002230
    81  C    5.984542
    82  C    6.012951
    83  C    6.009267
    84  C    5.983963
    85  N    6.995593
    86  C    6.034327
    87  C    5.987515
    88  C    6.007634
    89  C    5.964586
    90  C    6.001690
    91  C    5.997817
    92  C    5.998716
    93  H    1.003109
    94  N    7.004899
    95  C    5.967623
    96  C    5.978463
    97  C    5.979888
    98  C    5.980083
    99  C    6.002960
   100  C    5.985939
   101  O    7.968277
   102  C    6.005534
   103  N    6.994827
   104  C    5.975894
   105  C    6.005444
   106  C    5.992386
   107  C    6.033287
   108  C    6.004664
   109  C    5.997659
   110  C    5.999212
   111  N    6.998714
   112  C    6.035060
   113  C    6.030348
   114  C    6.000585
   115  C    6.028737
   116  C    6.001725
   117  C    6.015992
   118  O    8.027887
   119  C    6.002282
   120  C    6.002660
   121  O    8.007890
   122  O    8.000286
   123  C    5.997546
   124  H    0.992158
   125  H    0.994475
   126  H    1.008135
   127  H    1.001449
   128  H    1.002220
   129  H    1.000524
   130  H    0.998799
   131  H    0.987276
   132  H    1.012107
   133  H    0.997080
   134  H    0.995476
   135  H    1.005352
   136  H    0.981932
   137  H    0.982817
   138  H    0.984957
   139  H    0.991474
   140  H    0.994087
   141  H    0.985248
   142  H    1.002372
   143  H    1.003632
   144  H    0.988347
   145  H    0.998098
   146  H    1.005301
   147  H    1.001244
   148  H    1.011227
   149  H    0.996950
   150  H    1.005176
   151  H    0.997399
   152  H    1.014912
   153  H    1.013061
   154  H    1.016760
   155  H    1.007479
   156  H    1.006347
   157  H    1.002675
   158  H    1.002763
 Sum of Mulliken charges = 624.00000

 Dipole moment (field-independent basis, Debye):
    X=             -3.7062    Y=              2.4463    Z=             -9.2324  Tot=             10.2448
 Quadrupole moment (field-independent basis, Debye-Ang):
   XX=           -130.7175   YY=              0.6711   ZZ=             -8.4757
   XY=             51.9329   XZ=           -194.6236   YZ=              8.3995

 Normal termination of Gaussian 16 at Fri Oct 15 02:05:01 2021.
