 Gaussian 16, Revision A.03,
 Gaussian 16:  ES64L-G16RevA.03 25-Dec-2016

 --------------------------------------------------------
 #p PBE1PBE/Def2SVP td=(nstates=5) density=(transition=1)
 --------------------------------------------------------

 --------------------------------
 TDDFT excited states in gaussian
 --------------------------------
 Symbolic Z-matrix:
 Charge =  0 Multiplicity = 1

                         Standard orientation:
 ---------------------------------------------------------------------
 Center     Atomic      Atomic             Coordinates (Angstroms)
 Number     Number       Type             X           Y           Z
 ---------------------------------------------------------------------
      1         12           0      -30.594416    0.136826    0.376492
      2          6           0      -28.312129   -1.728740   -1.378673
      3          6           0      -31.195564    1.959093   -2.465231
      4          6           0      -32.821753    2.105983    2.162420
      5          6           0      -29.629143   -1.437209    3.310947
      6          7           0      -29.803296    0.170757   -1.723018
      7          6           0      -28.933405   -0.774709   -2.186495
      8          6           0      -28.675310   -0.595822   -3.603943
      9          6           0      -29.392663    0.688597   -3.988253
     10          6           0      -30.179632    1.022187   -2.646177
     11          6           0      -28.543450    1.902585   -4.501096
     12          6           0      -29.123183   -1.844874   -4.436896
     13          6           0      -28.282367   -2.188089   -5.714864
     14          1           0      -27.579021   -1.018040   -6.430355
     15          7           0      -31.916007    1.735229   -0.150267
     16          6           0      -32.005805    2.318665   -1.402448
     17          6           0      -33.011094    3.399663   -1.354283
     18          6           0      -33.511382    3.453274    0.017807
     19          6           0      -32.775922    2.400712    0.740119
     20          6           0      -33.383106    4.287642   -2.530472
     21          6           0      -34.638389    4.304166    0.555066
     22          8           0      -34.988905    4.163596    1.739895
     23          6           0      -35.357296    5.343245   -0.221173
     24          7           0      -31.102998    0.376197    2.454607
     25          6           0      -32.065234    1.194999    2.889140
     26          6           0      -32.342086    0.966000    4.384344
     27          6           0      -31.494134   -0.369810    4.754910
     28          6           0      -30.747351   -0.537920    3.384937
     29          6           0      -31.979894    2.226250    5.229066
     30          6           0      -32.341023   -1.630948    5.079134
     31          6           0      -32.287222   -2.112416    6.536762
     32          7           0      -29.196266   -1.256554    0.931420
     33          6           0      -28.892267   -1.806915    2.178704
     34          6           0      -27.812824   -2.810040    2.043489
     35          6           0      -27.573310   -2.765992    0.649747
     36          6           0      -28.422966   -1.811152    0.029743
     37          6           0      -27.226608   -3.649313    3.068904
     38          6           0      -26.819797   -3.427177   -0.435703
     39          8           0      -26.052622   -4.352977   -0.426907
     40          6           0      -27.247704   -2.741207   -1.781816
     41          6           0      -26.034597   -2.273980   -2.471630
     42          8           0      -25.401594   -1.299253   -2.034887
     43          8           0      -25.772785   -2.894277   -3.654783
     44          6           0      -24.712494   -2.362901   -4.505417
     45          1           0      -31.364590    2.519027   -3.387388
     46          1           0      -33.499849    2.760451    2.714507
     47          1           0      -29.450619   -1.992759    4.233848
     48          1           0      -27.601253   -0.457473   -3.732588
     49          1           0      -30.216812    0.492556   -4.675132
     50          1           0      -27.460913    1.840153   -4.616733
     51          1           0      -28.742285    2.749319   -3.844586
     52          1           0      -28.889270    2.302328   -5.454681
     53          1           0      -30.184749   -1.766118   -4.671673
     54          1           0      -29.203334   -2.701313   -3.767691
     55          1           0      -28.909289   -2.696135   -6.448183
     56          1           0      -27.417857   -2.814909   -5.498194
     57          1           0      -32.930534    3.972242   -3.469948
     58          1           0      -33.036714    5.309815   -2.375334
     59          1           0      -34.439788    4.168044   -2.769009
     60          1           0      -36.160527    5.703380    0.420941
     61          1           0      -35.764796    4.978534   -1.164965
     62          1           0      -34.652268    6.112419   -0.536927
     63          1           0      -33.386478    0.665161    4.468075
     64          1           0      -30.754493   -0.191782    5.535432
     65          1           0      -32.769559    2.530414    5.916227
     66          1           0      -31.781843    3.082159    4.583278
     67          1           0      -31.050122    1.949565    5.726696
     68          1           0      -32.073523   -2.496532    4.474226
     69          1           0      -33.395702   -1.482588    4.846276
     70          1           0      -32.087549   -1.264089    7.191518
     71          1           0      -31.460402   -2.816257    6.626680
     72          1           0      -33.210778   -2.661228    6.716358
     73          1           0      -26.712236   -4.518757    2.660126
     74          1           0      -27.951068   -4.005039    3.801250
     75          1           0      -26.385102   -3.104907    3.497628
     76          1           0      -27.742214   -3.572035   -2.286234
     77          1           0      -23.711267   -2.452696   -4.083129
     78          1           0      -24.939024   -1.344819   -4.821967
     79          1           0      -24.655484   -2.949652   -5.422112
     80         12           0       30.556430    0.462985   -0.350116
     81          6           0       27.882245   -1.765744    0.229434
     82          6           0       28.302201    3.119874   -0.185585
     83          6           0       33.220177    2.536303    0.119124
     84          6           0       32.724166   -2.361424    0.041671
     85          7           0       28.388717    0.620968   -0.055874
     86          6           0       27.525813   -0.389194    0.183476
     87          6           0       26.094285    0.156646    0.494876
     88          6           0       26.242963    1.658472   -0.029642
     89          6           0       27.789967    1.849324   -0.145618
     90          6           0       25.639121    2.087786   -1.386026
     91          6           0       25.826382    0.030772    2.042329
     92          6           0       24.356762   -0.321344    2.404141
     93          1           0       23.762371    0.435920    3.660685
     94          7           0       30.769920    2.614481   -0.269685
     95          6           0       29.705247    3.476152   -0.267728
     96          6           0       30.243064    4.783420   -0.266002
     97          6           0       31.658656    4.702182   -0.109070
     98          6           0       31.976807    3.235114   -0.129669
     99          6           0       29.429048    6.054578   -0.320672
    100          6           0       32.592985    5.827700    0.178120
    101          8           0       32.193506    6.964339    0.373600
    102          6           0       34.019447    5.696935    0.322809
    103          7           0       32.687581    0.083560    0.141891
    104          6           0       33.586369    1.159966    0.107795
    105          6           0       34.999229    0.667068    0.142029
    106          6           0       34.874383   -0.900897    0.184905
    107          6           0       33.370122   -1.102394    0.123069
    108          6           0       35.746906    1.209580   -1.082684
    109          6           0       35.719057   -1.573304    1.331829
    110          6           0       36.723602   -2.605335    0.917348
    111          7           0       30.392537   -1.688555    0.022424
    112          6           0       31.359943   -2.660825    0.091397
    113          6           0       30.739855   -4.003004    0.144129
    114          6           0       29.371882   -3.641232    0.265085
    115          6           0       29.224271   -2.276777    0.100188
    116          6           0       31.396938   -5.369235    0.262588
    117          6           0       28.075611   -4.191191    0.560717
    118          8           0       27.747148   -5.358559    0.823816
    119          6           0       27.042615   -3.064853    0.539567
    120          6           0       25.956401   -3.353075   -0.415512
    121          8           0       24.827607   -3.424830   -0.088008
    122          8           0       26.354549   -3.330149   -1.720860
    123          6           0       25.184932   -3.363194   -2.625523
    124          1           0       27.616733    3.969886   -0.217033
    125          1           0       34.034327    3.260845    0.171757
    126          1           0       33.215877   -3.321811    0.213321
    127          1           0       25.376531   -0.433992   -0.074669
    128          1           0       26.095651    2.431269    0.724625
    129          1           0       25.555678    1.228987   -2.053035
    130          1           0       26.154028    2.890641   -1.913756
    131          1           0       24.624735    2.417115   -1.163476
    132          1           0       26.144180    0.933466    2.564878
    133          1           0       26.485543   -0.774222    2.367422
    134          1           0       24.395866   -1.394653    2.590924
    135          1           0       23.832798   -0.149604    1.463632
    136          1           0       29.947254    6.945817   -0.674818
    137          1           0       29.103825    6.189572    0.710530
    138          1           0       28.438146    5.980627   -0.768759
    139          1           0       34.398046    5.320968   -0.628534
    140          1           0       34.273045    5.052622    1.165112
    141          1           0       34.436749    6.683243    0.525888
    142          1           0       35.469326    0.916372    1.093020
    143          1           0       35.062720   -1.448206   -0.738981
    144          1           0       35.222881    2.025575   -1.580922
    145          1           0       35.882822    0.442562   -1.845121
    146          1           0       36.636418    1.747334   -0.755867
    147          1           0       34.973922   -2.010513    1.996462
    148          1           0       36.382706   -0.884976    1.853887
    149          1           0       36.503648   -3.510532    1.482694
    150          1           0       37.739353   -2.314007    1.185351
    151          1           0       36.781087   -2.739727   -0.162850
    152          1           0       31.663951   -5.620450    1.289286
    153          1           0       32.249798   -5.496057   -0.405418
    154          1           0       30.558270   -6.020325    0.016283
    155          1           0       26.514473   -3.034948    1.491734
    156          1           0       25.558814   -3.342525   -3.649518
    157          1           0       24.527816   -2.514291   -2.437190
    158          1           0       24.629105   -4.300012   -2.607091
 ---------------------------------------------------------------------

 SCF Done:  E(RPBE1PBE) =  -4067.39140089     A.U. after   16 cycles

 Excitation energies and oscillator strengths:

 Excited State   1:      Singlet-A      1.7663 eV  701.93 nm  f=0.0000  <S**2>=0.000
     312 -> 313        0.70711
 This state for optimization and/or second-order correction.
 Total Energy, E(TD-HF/TD-DFT) =  -4067.32648970
 Copying the excited state density for this state as the 1-particle RhoCI density.

 Excited State   2:      Singlet-A      1.8469 eV  671.32 nm  f=0.3901  <S**2>=0.000
     309 -> 315       -0.16872
     311 -> 313        0.69417
     311 <- 313       -0.11313

 Excited State   3:      Singlet-A      1.8897 eV  656.09 nm  f=0.3748  <S**2>=0.000
     310 -> 316       -0.18006
     312 -> 314        0.68961
     312 <- 314       -0.10437

 Excited State   4:      Singlet-A      2.2121 eV  560.47 nm  f=0.1078  <S**2>=0.000
     309 -> 313        0.65186
     311 -> 315        0.25467

 Excited State   5:      Singlet-A      2.2472 eV  551.73 nm  f=0.0000  <S**2>=0.000
     311 -> 314        0.70711

 The electronic state is 1-A.
 Alpha  occ. eigenvalues --  -46.94193 -46.92272 -19.26571 -19.25705 -19.20105
 Alpha  occ. eigenvalues --  -19.19518 -19.19253 -19.18981 -19.18556 -19.17627
 Alpha  occ. eigenvalues --  -14.42419 -14.42295 -14.41308 -14.41214 -14.39588
 Alpha  occ. eigenvalues --  -14.39176 -14.38890 -14.38879 -10.36544 -10.35704
 Alpha  occ. eigenvalues --  -10.32043 -10.32015 -10.31826 -10.30691 -10.29925
 Alpha  occ. eigenvalues --  -10.29672 -10.29652 -10.29521 -10.29023 -10.28898
 Alpha  occ. eigenvalues --  -10.28797 -10.28734 -10.28318 -10.28318 -10.28115
 Alpha  occ. eigenvalues --  -10.27819 -10.27795 -10.27698 -10.27674 -10.27666
 Alpha  occ. eigenvalues --  -10.26862 -10.26848 -10.26842 -10.26809 -10.26799
 Alpha  occ. eigenvalues --  -10.26618 -10.26368 -10.26288 -10.26284 -10.26267
 Alpha  occ. eigenvalues --  -10.26099 -10.26070 -10.26057 -10.26018 -10.25819
 Alpha  occ. eigenvalues --  -10.25792 -10.25634 -10.25598 -10.25564 -10.25311
 Alpha  occ. eigenvalues --  -10.25241 -10.25213 -10.25076 -10.24985 -10.24981
 Alpha  occ. eigenvalues --  -10.24768 -10.24616 -10.24578 -10.24514 -10.24407
 Alpha  occ. eigenvalues --  -10.24377 -10.24110 -10.24033 -10.23907 -10.23688
 Alpha  occ. eigenvalues --  -10.23660 -10.23529 -10.23489 -10.23332 -10.23156
 Alpha  occ. eigenvalues --  -10.23042 -10.23010 -10.23005 -10.22821 -10.22792
 Alpha  occ. eigenvalues --  -10.22647  -3.15932  -3.14279  -1.88783  -1.88285
 Alpha  occ. eigenvalues --   -1.88147  -1.87141  -1.86636  -1.86508  -1.12715
 Alpha  occ. eigenvalues --   -1.11181  -1.05703  -1.04366  -1.03860  -1.03590
 Alpha  occ. eigenvalues --   -1.03588  -1.01897  -0.99733  -0.99731  -0.98711
 Alpha  occ. eigenvalues --   -0.98397  -0.98050  -0.98023  -0.97265  -0.95589
 Alpha  occ. eigenvalues --   -0.86931  -0.86830  -0.83703  -0.83413  -0.83360
 Alpha  occ. eigenvalues --   -0.82572  -0.82553  -0.82345  -0.82009  -0.81503
 Alpha  occ. eigenvalues --   -0.81267  -0.81068  -0.80452  -0.80213  -0.79168
 Alpha  occ. eigenvalues --   -0.78926  -0.78243  -0.77825  -0.77007  -0.76747
 Alpha  occ. eigenvalues --   -0.76574  -0.75991  -0.75511  -0.75218  -0.74916
 Alpha  occ. eigenvalues --   -0.74893  -0.72992  -0.72749  -0.71896  -0.71848
 Alpha  occ. eigenvalues --   -0.71607  -0.71187  -0.70784  -0.70539  -0.69809
 Alpha  occ. eigenvalues --   -0.69237  -0.67596  -0.67058  -0.66982  -0.65974
 Alpha  occ. eigenvalues --   -0.63785  -0.63631  -0.63543  -0.62737  -0.62461
 Alpha  occ. eigenvalues --   -0.62413  -0.61356  -0.61325  -0.60766  -0.60253
 Alpha  occ. eigenvalues --   -0.60149  -0.59844  -0.59600  -0.59587  -0.59218
 Alpha  occ. eigenvalues --   -0.58876  -0.57820  -0.57307  -0.54672  -0.54551
 Alpha  occ. eigenvalues --   -0.54387  -0.54106  -0.53771  -0.53581  -0.53492
 Alpha  occ. eigenvalues --   -0.53213  -0.52899  -0.52856  -0.51858  -0.51661
 Alpha  occ. eigenvalues --   -0.51006  -0.50681  -0.50609  -0.50311  -0.50172
 Alpha  occ. eigenvalues --   -0.49908  -0.49630  -0.49263  -0.49105  -0.48513
 Alpha  occ. eigenvalues --   -0.48206  -0.48056  -0.47985  -0.47774  -0.47604
 Alpha  occ. eigenvalues --   -0.47401  -0.47358  -0.47091  -0.46929  -0.46877
 Alpha  occ. eigenvalues --   -0.46600  -0.46306  -0.46244  -0.46107  -0.46016
 Alpha  occ. eigenvalues --   -0.45876  -0.45812  -0.45724  -0.45566  -0.44858
 Alpha  occ. eigenvalues --   -0.44714  -0.44513  -0.44513  -0.44410  -0.44214
 Alpha  occ. eigenvalues --   -0.43919  -0.43900  -0.43676  -0.43545  -0.43246
 Alpha  occ. eigenvalues --   -0.43137  -0.43083  -0.43044  -0.42782  -0.42757
 Alpha  occ. eigenvalues --   -0.42584  -0.42247  -0.42112  -0.41994  -0.41851
 Alpha  occ. eigenvalues --   -0.41765  -0.41658  -0.41568  -0.41429  -0.41350
 Alpha  occ. eigenvalues --   -0.41083  -0.41015  -0.40947  -0.40644  -0.40502
 Alpha  occ. eigenvalues --   -0.40448  -0.40264  -0.39930  -0.39908  -0.39805
 Alpha  occ. eigenvalues --   -0.39736  -0.39661  -0.39482  -0.39312  -0.39149
 Alpha  occ. eigenvalues --   -0.39128  -0.38837  -0.38592  -0.38466  -0.38416
 Alpha  occ. eigenvalues --   -0.38309  -0.38230  -0.37976  -0.37857  -0.37823
 Alpha  occ. eigenvalues --   -0.37664  -0.37512  -0.37499  -0.37059  -0.36969
 Alpha  occ. eigenvalues --   -0.36630  -0.36595  -0.36338  -0.36163  -0.35975
 Alpha  occ. eigenvalues --   -0.35927  -0.35752  -0.35588  -0.35536  -0.35261
 Alpha  occ. eigenvalues --   -0.35019  -0.34853  -0.34570  -0.34507  -0.34153
 Alpha  occ. eigenvalues --   -0.33641  -0.33151  -0.32887  -0.32548  -0.32471
 Alpha  occ. eigenvalues --   -0.32233  -0.32184  -0.31948  -0.31716  -0.31652
 Alpha  occ. eigenvalues --   -0.31433  -0.31069  -0.29807  -0.29353  -0.29252
 Alpha  occ. eigenvalues --   -0.29051  -0.28909  -0.28486  -0.27139  -0.26684
 Alpha  occ. eigenvalues --   -0.25975  -0.25790  -0.25708  -0.25664  -0.25539
 Alpha  occ. eigenvalues --   -0.25116  -0.25056  -0.24604  -0.21448  -0.20804
 Alpha  occ. eigenvalues --   -0.19248  -0.18490
 Alpha virt. eigenvalues --   -0.11781  -0.10773  -0.05756  -0.05203  -0.03900
 Alpha virt. eigenvalues --   -0.03639  -0.02005  -0.01812  -0.01528  -0.00225
 Alpha virt. eigenvalues --    0.00358   0.00583   0.01296   0.01327   0.01428

 Mulliken charges:
               1
     1  Mg  12.000000
     2  C    6.000000
     3  C    6.000000
     4  C    6.000000
     5  C    6.000000
     6  N    7.000000
     7  C    6.000000
     8  C    6.000000
     9  C    6.000000
    10  C    6.000000
    11  C    6.000000
    12  C    6.000000
    13  C    6.000000
    14  H    1.000000
    15  N    7.000000
    16  C    6.000000
    17  C    6.000000
    18  C    6.000000
    19  C    6.000000
    20  C    6.000000
    21  C    6.000000
    22  O    8.000000
    23  C    6.000000
    24  N    7.000000
    25  C    6.000000
    26  C    6.000000
    27  C    6.000000
    28  C    6.000000
    29  C    6.000000
    30  C    6.000000
    31  C    6.000000
    32  N    7.000000
    33  C    6.000000
    34  C    6.000000
    35  C    6.000000
    36  C    6.000000
    37  C    6.000000
    38  C    6.000000
    39  O    8.000000
    40  C    6.000000
    41  C    6.000000
    42  O    8.000000
    43  O    8.000000
    44  C    6.000000
    45  H    1.000000
    46  H    1.000000
    47  H    1.000000
    48  H    1.000000
    49  H    1.000000
    50  H    1.000000
    51  H    1.000000
    52  H    1.000000
    53  H    1.000000
    54  H    1.000000
    55  H    1.000000
    56  H    1.000000
    57  H    1.000000
    58  H    1.000000
    59  H    1.000000
    60  H    1.000000
    61  H    1.000000
    62  H    1.000000
    63  H    1.000000
    64  H    1.000000
    65  H    1.000000
    66  H    1.000000
    67  H    1.000000
    68  H    1.000000
    69  H    1.000000
    70  H    1.000000
    71  H    1.000000
    72  H    1.000000
    73  H    1.000000
    74  H    1.000000
    75  H    1.000000
    76  H    1.000000
    77  H    1.000000
    78  H    1.000000
    79  H    1.000000
    80  Mg  12.000000
    81  C    6.000000
    82  C    6.000000
    83  C    6.000000
    84  C    6.000000
    85  N    7.000000
    86  C    6.000000
    87  C    6.000000
    88  C    6.000000
    89  C    6.000000
    90  C    6.000000
    91  C    6.000000
    92  C    6.000000
    93  H    1.000000
    94  N    7.000000
    95  C    6.000000
    96  C    6.000000
    97  C    6.000000
    98  C    6.000000
    99  C    6.000000
   100  C    6.000000
   101  O    8.000000
   102  C    6.000000
   103  N    7.000000
   104  C    6.000000
   105  C    6.000000
   106  C    6.000000
   107  C    6.000000
   108  C    6.000000
   109  C    6.000000
   110  C    6.000000
   111  N    7.000000
   112  C    6.000000
   113  C    6.000000
   114  C    6.000000
   115  C    6.000000
   116  C    6.000000
   117  C    6.000000
   118  O    8.000000
   119  C    6.000000
   120  C    6.000000
   121  O    8.000000
   122  O    8.000000
   123  C    6.000000
   124  H    1.000000
   125  H    1.000000
   126  H    1.000000
   127  H    1.000000
   128  H    1.000000
   129  H    1.000000
   130  H    1.000000
   131  H    1.000000
   132  H    1.000000
   133  H    1.000000
   134  H    1.000000
   135  H    1.000000
   136  H    1.000000
   137  H    1.000000
   138  H    1.000000
   139  H    1.000000
   140  H    1.000000
   141  H    1.000000
   142  H    1.000000
   143  H    1.000000
   144  H    1.000000
   145  H    1.000000
   146  H    1.000000
   147  H    1.000000
   148  H    1.000000
   149  H    1.000000
   150  H    1.000000
   151  H    1.000000
   152  H    1.000000
   153  H    1.000000
   154  H    1.000000
   155  H    1.000000
   156  H    1.000000
   157  H    1.000000
   158  H    1.000000
 Sum of Mulliken charges = 624.00000

 Dipole moment (field-independent basis, Debye):
    X=              0.0000    Y=             -0.0000    Z=              0.0000  Tot=              0.0000
 Quadrupole moment (field-independent basis, Debye-Ang):
   XX=              0.0000   YY=             -0.0000   ZZ=              0.0000
   XY=             -0.0000   XZ=              0.0000   YZ=              0.0000

 Normal termination of Gaussian 16 at Fri Oct 15 01:10:55 2021.
