 Gaussian 16, Revision A.03,
 Gaussian 16:  ES64L-G16RevA.03 25-Dec-2016

 --------------------------------------------------------
 #p PBE1PBE/Def2SVP td=(nstates=5) density=(transition=1)
 --------------------------------------------------------

 --------------------------------
 TDDFT excited states in gaussian
 --------------------------------
 Symbolic Z-matrix:
 Charge =  0 Multiplicity = 1

                         Standard orientation:
 ---------------------------------------------------------------------
 Center     Atomic      Atomic             Coordinates (Angstroms)
 Number     Number       Type             X           Y           Z
 ---------------------------------------------------------------------
      1         12           0      -27.287087   -0.409312   -0.113145
      2          6           0      -25.492939    2.479718   -0.862858
      3          6           0      -28.733337    1.210643    2.554992
      4          6           0      -28.737800   -3.363582    0.641886
      5          6           0      -25.425580   -2.091834   -2.657476
      6          7           0      -27.023067    1.560366    0.771251
      7          6           0      -26.272447    2.593675    0.301920
      8          6           0      -26.512581    3.873914    1.112480
      9          6           0      -27.454639    3.338790    2.279745
     10          6           0      -27.766419    1.914180    1.809468
     11          6           0      -26.751236    3.343186    3.631622
     12          6           0      -27.290070    5.019775    0.372102
     13          6           0      -27.018542    6.435528    0.810094
     14          1           0      -26.339367    6.681110    2.082549
     15          7           0      -28.603906   -0.952026    1.311905
     16          6           0      -29.078761   -0.119254    2.344852
     17          6           0      -30.111546   -0.862698    3.017672
     18          6           0      -30.189327   -2.168745    2.471343
     19          6           0      -29.143874   -2.217246    1.419693
     20          6           0      -30.803861   -0.370236    4.270499
     21          6           0      -31.089766   -3.293768    2.768020
     22          8           0      -30.908171   -4.419110    2.354506
     23          6           0      -32.269482   -3.119880    3.792004
     24          7           0      -27.259460   -2.468772   -0.998915
     25          6           0      -27.917075   -3.462428   -0.480362
     26          6           0      -27.628411   -4.793760   -1.237178
     27          6           0      -26.645908   -4.405420   -2.327064
     28          6           0      -26.344983   -2.900859   -1.989181
     29          6           0      -27.173958   -5.934057   -0.209360
     30          6           0      -27.187414   -4.658662   -3.749923
     31          6           0      -26.776707   -6.009550   -4.446566
     32          7           0      -26.014714    0.071886   -1.613589
     33          6           0      -25.328007   -0.705827   -2.578774
     34          6           0      -24.499142    0.100656   -3.391106
     35          6           0      -24.490511    1.365671   -2.663204
     36          6           0      -25.464058    1.251127   -1.629992
     37          6           0      -23.543445   -0.395556   -4.460705
     38          6           0      -23.843584    2.625582   -2.680713
     39          8           0      -23.012329    3.113445   -3.436143
     40          6           0      -24.595040    3.486978   -1.466518
     41          6           0      -23.479414    4.005553   -0.607434
     42          8           0      -22.648801    3.293000   -0.034025
     43          8           0      -23.387732    5.428977   -0.625290
     44          6           0      -22.288978    6.020327    0.200729
     45          1           0      -29.150925    1.785777    3.384895
     46          1           0      -29.097996   -4.304407    1.062409
     47          1           0      -24.868098   -2.543624   -3.480182
     48          1           0      -25.536031    4.183263    1.485641
     49          1           0      -28.355551    3.938856    2.407053
     50          1           0      -25.844193    3.946347    3.602648
     51          1           0      -26.568486    2.339173    4.015553
     52          1           0      -27.286369    3.895127    4.404374
     53          1           0      -28.353975    4.803645    0.463087
     54          1           0      -27.104164    4.879648   -0.692972
     55          1           0      -27.987988    6.911568    0.955621
     56          1           0      -26.439959    6.941558    0.037217
     57          1           0      -30.559606   -0.958052    5.155258
     58          1           0      -31.877604   -0.358632    4.078678
     59          1           0      -30.551577    0.639897    4.592719
     60          1           0      -31.821621   -3.229976    4.779968
     61          1           0      -32.951546   -3.967600    3.725333
     62          1           0      -32.708712   -2.126020    3.714940
     63          1           0      -28.607147   -5.063049   -1.634680
     64          1           0      -25.673199   -4.872324   -2.180197
     65          1           0      -26.202098   -6.339056   -0.491096
     66          1           0      -27.812474   -6.817474   -0.228382
     67          1           0      -27.108501   -5.421764    0.751407
     68          1           0      -26.817872   -3.834858   -4.361583
     69          1           0      -28.271817   -4.564729   -3.690170
     70          1           0      -25.811148   -5.851038   -4.928144
     71          1           0      -27.477966   -6.484411   -5.133012
     72          1           0      -26.574222   -6.625969   -3.571357
     73          1           0      -24.180257   -0.477594   -5.341135
     74          1           0      -23.142098   -1.377229   -4.211824
     75          1           0      -22.599377    0.142416   -4.555964
     76          1           0      -25.198751    4.274913   -1.918541
     77          1           0      -21.307173    5.717272   -0.161242
     78          1           0      -22.289251    5.833716    1.274966
     79          1           0      -22.440916    7.071209   -0.045562
     80         12           0       26.270363   -0.762882    0.215691
     81          6           0       26.840614    2.554132   -1.017936
     82          6           0       25.565749    0.505109    3.161417
     83          6           0       26.587184   -3.865417    1.337445
     84          6           0       27.466736   -1.914668   -3.066201
     85          7           0       26.169409    1.305435    0.956069
     86          6           0       26.467163    2.524985    0.316079
     87          6           0       26.298025    3.787510    1.243202
     88          6           0       25.800712    3.006023    2.608335
     89          6           0       25.818124    1.520422    2.262372
     90          6           0       26.744310    3.303996    3.851432
     91          6           0       25.336316    4.904805    0.707734
     92          6           0       24.847399    5.910364    1.743333
     93          1           0       25.356893    7.348104    1.533809
     94          7           0       25.999831   -1.577083    1.997073
     95          6           0       25.677266   -0.934531    3.169248
     96          6           0       25.504056   -1.854609    4.273466
     97          6           0       25.802573   -3.151112    3.694163
     98          6           0       26.082624   -2.888131    2.237656
     99          6           0       25.058345   -1.528321    5.620780
    100          6           0       25.794099   -4.530100    4.330714
    101          8           0       25.944411   -5.552268    3.722194
    102          6           0       25.668190   -4.529858    5.831079
    103          7           0       26.996950   -2.626169   -0.717241
    104          6           0       26.981048   -3.779353   -0.002387
    105          6           0       27.388902   -4.987445   -0.887418
    106          6           0       27.525642   -4.332675   -2.305908
    107          6           0       27.266334   -2.862065   -2.041231
    108          6           0       28.661507   -5.805931   -0.481026
    109          6           0       26.552286   -4.871157   -3.413083
    110          6           0       26.981137   -6.237009   -3.993378
    111          7           0       27.021344    0.052911   -1.647447
    112          6           0       27.373179   -0.503039   -2.855808
    113          6           0       27.612260    0.530204   -3.783186
    114          6           0       27.486114    1.710530   -3.151949
    115          6           0       27.135629    1.407432   -1.801360
    116          6           0       27.884974    0.226090   -5.250523
    117          6           0       27.594616    3.172208   -3.196688
    118          8           0       27.905208    3.907002   -4.098479
    119          6           0       27.188683    3.760590   -1.762137
    120          6           0       28.428197    4.332108   -1.151124
    121          8           0       29.306776    3.828695   -0.488018
    122          8           0       28.381107    5.677100   -1.460000
    123          6           0       29.490707    6.522446   -0.958579
    124          1           0       25.369266    0.827453    4.185969
    125          1           0       26.816259   -4.828662    1.799594
    126          1           0       27.696746   -2.418159   -4.008050
    127          1           0       27.294385    4.172077    1.461716
    128          1           0       24.811494    3.384026    2.867579
    129          1           0       26.131102    3.499468    4.730993
    130          1           0       27.497502    4.087156    3.769262
    131          1           0       27.280385    2.401099    4.142225
    132          1           0       24.560482    4.281266    0.261553
    133          1           0       25.656173    5.497942   -0.149274
    134          1           0       25.166270    5.584312    2.732939
    135          1           0       23.770470    6.030737    1.629006
    136          1           0       24.104651   -2.056065    5.622274
    137          1           0       24.988211   -0.449637    5.761704
    138          1           0       25.641583   -1.908495    6.459225
    139          1           0       24.618704   -4.639082    6.104155
    140          1           0       26.339964   -3.828268    6.326490
    141          1           0       26.297365   -5.369372    6.125466
    142          1           0       26.473929   -5.568403   -1.007015
    143          1           0       28.573773   -4.353656   -2.605195
    144          1           0       29.459635   -5.858144   -1.222111
    145          1           0       28.326600   -6.841461   -0.425174
    146          1           0       29.143247   -5.492056    0.444986
    147          1           0       26.529712   -4.167842   -4.244759
    148          1           0       25.570545   -4.886668   -2.937709
    149          1           0       28.044824   -6.405407   -3.823995
    150          1           0       26.710000   -6.208749   -5.048673
    151          1           0       26.501869   -7.094170   -3.519488
    152          1           0       27.584483    1.057707   -5.887970
    153          1           0       27.369759   -0.696406   -5.518400
    154          1           0       28.934757   -0.029635   -5.395964
    155          1           0       26.388364    4.496892   -1.839694
    156          1           0       29.713712    7.218252   -1.767323
    157          1           0       30.391096    5.969583   -0.691143
    158          1           0       28.984880    6.989501   -0.112966
 ---------------------------------------------------------------------

 SCF Done:  E(RPBE1PBE) =  -4067.41487606     A.U. after   16 cycles

 Excitation energies and oscillator strengths:

 Excited State   1:      Singlet-A      1.8446 eV  672.16 nm  f=0.0000  <S**2>=0.000
     312 -> 313        0.70711
 This state for optimization and/or second-order correction.
 Total Energy, E(TD-HF/TD-DFT) =  -4067.34709003
 Copying the excited state density for this state as the 1-particle RhoCI density.

 Excited State   2:      Singlet-A      1.8459 eV  671.68 nm  f=0.3547  <S**2>=0.000
     309 -> 315        0.17462
     311 -> 313        0.69229
     311 <- 313       -0.10446

 Excited State   3:      Singlet-A      1.8601 eV  666.54 nm  f=0.3887  <S**2>=0.000
     310 -> 316        0.16839
     312 -> 314        0.69337
     312 <- 314       -0.10831

 Excited State   4:      Singlet-A      2.1647 eV  572.74 nm  f=0.0000  <S**2>=0.000
     311 -> 314        0.70711

 Excited State   5:      Singlet-A      2.2119 eV  560.54 nm  f=0.1385  <S**2>=0.000
     309 -> 313        0.66069
     311 -> 315       -0.23957

 The electronic state is 1-A.
 Alpha  occ. eigenvalues --  -46.91973 -46.91415 -19.24922 -19.24476 -19.20063
 Alpha  occ. eigenvalues --  -19.19785 -19.19273 -19.19187 -19.19158 -19.18891
 Alpha  occ. eigenvalues --  -14.42153 -14.41687 -14.41218 -14.40855 -14.39747
 Alpha  occ. eigenvalues --  -14.39259 -14.39225 -14.38500 -10.36206 -10.35918
 Alpha  occ. eigenvalues --  -10.32393 -10.32304 -10.31882 -10.31824 -10.29101
 Alpha  occ. eigenvalues --  -10.29018 -10.28817 -10.28787 -10.28658 -10.28590
 Alpha  occ. eigenvalues --  -10.28502 -10.28403 -10.28393 -10.28334 -10.28097
 Alpha  occ. eigenvalues --  -10.27944 -10.27843 -10.27807 -10.27125 -10.26905
 Alpha  occ. eigenvalues --  -10.26868 -10.26852 -10.26778 -10.26723 -10.26670
 Alpha  occ. eigenvalues --  -10.26427 -10.26177 -10.26023 -10.25983 -10.25867
 Alpha  occ. eigenvalues --  -10.25800 -10.25644 -10.25499 -10.25492 -10.25457
 Alpha  occ. eigenvalues --  -10.25422 -10.25327 -10.25267 -10.25153 -10.24902
 Alpha  occ. eigenvalues --  -10.24742 -10.24693 -10.24680 -10.24620 -10.24574
 Alpha  occ. eigenvalues --  -10.24514 -10.24420 -10.24414 -10.24413 -10.24377
 Alpha  occ. eigenvalues --  -10.24363 -10.24114 -10.23944 -10.23640 -10.23608
 Alpha  occ. eigenvalues --  -10.23480 -10.23394 -10.23372 -10.23318 -10.23247
 Alpha  occ. eigenvalues --  -10.23246 -10.23009 -10.23000 -10.22994 -10.22784
 Alpha  occ. eigenvalues --  -10.22377  -3.14095  -3.13687  -1.86932  -1.86541
 Alpha  occ. eigenvalues --   -1.86450  -1.86342  -1.86054  -1.85931  -1.10389
 Alpha  occ. eigenvalues --   -1.08283  -1.06118  -1.05578  -1.05507  -1.03757
 Alpha  occ. eigenvalues --   -1.02234  -1.00759  -0.99814  -0.98754  -0.98454
 Alpha  occ. eigenvalues --   -0.98178  -0.97976  -0.97113  -0.96862  -0.96186
 Alpha  occ. eigenvalues --   -0.87332  -0.86632  -0.83586  -0.83253  -0.83208
 Alpha  occ. eigenvalues --   -0.82667  -0.82521  -0.82289  -0.82043  -0.81760
 Alpha  occ. eigenvalues --   -0.81469  -0.81175  -0.80759  -0.80359  -0.78566
 Alpha  occ. eigenvalues --   -0.78178  -0.77448  -0.77396  -0.76487  -0.76427
 Alpha  occ. eigenvalues --   -0.76213  -0.75740  -0.75028  -0.74613  -0.74411
 Alpha  occ. eigenvalues --   -0.74314  -0.72860  -0.72416  -0.71674  -0.71277
 Alpha  occ. eigenvalues --   -0.71205  -0.70909  -0.70226  -0.69828  -0.69429
 Alpha  occ. eigenvalues --   -0.69186  -0.67668  -0.67191  -0.66071  -0.65719
 Alpha  occ. eigenvalues --   -0.63945  -0.63849  -0.63389  -0.63109  -0.62608
 Alpha  occ. eigenvalues --   -0.62176  -0.61681  -0.61423  -0.60206  -0.59746
 Alpha  occ. eigenvalues --   -0.59510  -0.59496  -0.59256  -0.59123  -0.58798
 Alpha  occ. eigenvalues --   -0.58443  -0.56087  -0.55998  -0.54811  -0.54618
 Alpha  occ. eigenvalues --   -0.54287  -0.54055  -0.53958  -0.53341  -0.53254
 Alpha  occ. eigenvalues --   -0.52651  -0.52478  -0.52438  -0.51896  -0.51512
 Alpha  occ. eigenvalues --   -0.50839  -0.50687  -0.50145  -0.49578  -0.49556
 Alpha  occ. eigenvalues --   -0.49233  -0.49000  -0.48805  -0.48636  -0.48509
 Alpha  occ. eigenvalues --   -0.48250  -0.47870  -0.47740  -0.47392  -0.47288
 Alpha  occ. eigenvalues --   -0.47068  -0.46936  -0.46854  -0.46767  -0.46681
 Alpha  occ. eigenvalues --   -0.46511  -0.46235  -0.46226  -0.45908  -0.45781
 Alpha  occ. eigenvalues --   -0.45456  -0.45304  -0.45113  -0.44813  -0.44685
 Alpha  occ. eigenvalues --   -0.44461  -0.44410  -0.44224  -0.44208  -0.44044
 Alpha  occ. eigenvalues --   -0.43896  -0.43856  -0.43744  -0.43649  -0.43390
 Alpha  occ. eigenvalues --   -0.43182  -0.43062  -0.43048  -0.42879  -0.42638
 Alpha  occ. eigenvalues --   -0.42468  -0.42398  -0.42389  -0.42261  -0.41915
 Alpha  occ. eigenvalues --   -0.41800  -0.41751  -0.41678  -0.41584  -0.41410
 Alpha  occ. eigenvalues --   -0.41002  -0.40569  -0.40512  -0.40390  -0.40210
 Alpha  occ. eigenvalues --   -0.40005  -0.39977  -0.39904  -0.39870  -0.39758
 Alpha  occ. eigenvalues --   -0.39615  -0.39523  -0.39474  -0.39300  -0.38915
 Alpha  occ. eigenvalues --   -0.38844  -0.38745  -0.38717  -0.38631  -0.38292
 Alpha  occ. eigenvalues --   -0.38267  -0.37994  -0.37956  -0.37792  -0.37616
 Alpha  occ. eigenvalues --   -0.37583  -0.37412  -0.37049  -0.36909  -0.36868
 Alpha  occ. eigenvalues --   -0.36759  -0.36712  -0.36511  -0.36428  -0.36219
 Alpha  occ. eigenvalues --   -0.35924  -0.35770  -0.35739  -0.35605  -0.35350
 Alpha  occ. eigenvalues --   -0.35111  -0.34741  -0.34444  -0.34335  -0.33772
 Alpha  occ. eigenvalues --   -0.33623  -0.33085  -0.32826  -0.32759  -0.32311
 Alpha  occ. eigenvalues --   -0.32067  -0.32063  -0.31479  -0.31412  -0.31263
 Alpha  occ. eigenvalues --   -0.30804  -0.30643  -0.29736  -0.29387  -0.29208
 Alpha  occ. eigenvalues --   -0.29110  -0.28598  -0.28242  -0.27022  -0.26852
 Alpha  occ. eigenvalues --   -0.26056  -0.25762  -0.25740  -0.25732  -0.25519
 Alpha  occ. eigenvalues --   -0.25466  -0.25338  -0.25107  -0.21130  -0.20553
 Alpha  occ. eigenvalues --   -0.19162  -0.18581
 Alpha virt. eigenvalues --   -0.11559  -0.10960  -0.05258  -0.04704  -0.04002
 Alpha virt. eigenvalues --   -0.03294  -0.02060  -0.01758  -0.00218  -0.00022
 Alpha virt. eigenvalues --    0.00835   0.01117   0.01299   0.01422   0.02088

 Mulliken charges:
               1
     1  Mg  12.000000
     2  C    6.000000
     3  C    6.000000
     4  C    6.000000
     5  C    6.000000
     6  N    7.000000
     7  C    6.000000
     8  C    6.000000
     9  C    6.000000
    10  C    6.000000
    11  C    6.000000
    12  C    6.000000
    13  C    6.000000
    14  H    1.000000
    15  N    7.000000
    16  C    6.000000
    17  C    6.000000
    18  C    6.000000
    19  C    6.000000
    20  C    6.000000
    21  C    6.000000
    22  O    8.000000
    23  C    6.000000
    24  N    7.000000
    25  C    6.000000
    26  C    6.000000
    27  C    6.000000
    28  C    6.000000
    29  C    6.000000
    30  C    6.000000
    31  C    6.000000
    32  N    7.000000
    33  C    6.000000
    34  C    6.000000
    35  C    6.000000
    36  C    6.000000
    37  C    6.000000
    38  C    6.000000
    39  O    8.000000
    40  C    6.000000
    41  C    6.000000
    42  O    8.000000
    43  O    8.000000
    44  C    6.000000
    45  H    1.000000
    46  H    1.000000
    47  H    1.000000
    48  H    1.000000
    49  H    1.000000
    50  H    1.000000
    51  H    1.000000
    52  H    1.000000
    53  H    1.000000
    54  H    1.000000
    55  H    1.000000
    56  H    1.000000
    57  H    1.000000
    58  H    1.000000
    59  H    1.000000
    60  H    1.000000
    61  H    1.000000
    62  H    1.000000
    63  H    1.000000
    64  H    1.000000
    65  H    1.000000
    66  H    1.000000
    67  H    1.000000
    68  H    1.000000
    69  H    1.000000
    70  H    1.000000
    71  H    1.000000
    72  H    1.000000
    73  H    1.000000
    74  H    1.000000
    75  H    1.000000
    76  H    1.000000
    77  H    1.000000
    78  H    1.000000
    79  H    1.000000
    80  Mg  12.000000
    81  C    6.000000
    82  C    6.000000
    83  C    6.000000
    84  C    6.000000
    85  N    7.000000
    86  C    6.000000
    87  C    6.000000
    88  C    6.000000
    89  C    6.000000
    90  C    6.000000
    91  C    6.000000
    92  C    6.000000
    93  H    1.000000
    94  N    7.000000
    95  C    6.000000
    96  C    6.000000
    97  C    6.000000
    98  C    6.000000
    99  C    6.000000
   100  C    6.000000
   101  O    8.000000
   102  C    6.000000
   103  N    7.000000
   104  C    6.000000
   105  C    6.000000
   106  C    6.000000
   107  C    6.000000
   108  C    6.000000
   109  C    6.000000
   110  C    6.000000
   111  N    7.000000
   112  C    6.000000
   113  C    6.000000
   114  C    6.000000
   115  C    6.000000
   116  C    6.000000
   117  C    6.000000
   118  O    8.000000
   119  C    6.000000
   120  C    6.000000
   121  O    8.000000
   122  O    8.000000
   123  C    6.000000
   124  H    1.000000
   125  H    1.000000
   126  H    1.000000
   127  H    1.000000
   128  H    1.000000
   129  H    1.000000
   130  H    1.000000
   131  H    1.000000
   132  H    1.000000
   133  H    1.000000
   134  H    1.000000
   135  H    1.000000
   136  H    1.000000
   137  H    1.000000
   138  H    1.000000
   139  H    1.000000
   140  H    1.000000
   141  H    1.000000
   142  H    1.000000
   143  H    1.000000
   144  H    1.000000
   145  H    1.000000
   146  H    1.000000
   147  H    1.000000
   148  H    1.000000
   149  H    1.000000
   150  H    1.000000
   151  H    1.000000
   152  H    1.000000
   153  H    1.000000
   154  H    1.000000
   155  H    1.000000
   156  H    1.000000
   157  H    1.000000
   158  H    1.000000
 Sum of Mulliken charges = 624.00000

 Dipole moment (field-independent basis, Debye):
    X=              0.0000    Y=             -0.0000    Z=              0.0000  Tot=              0.0000
 Quadrupole moment (field-independent basis, Debye-Ang):
   XX=             -0.0000   YY=              0.0000   ZZ=              0.0000
   XY=             -0.0000   XZ=              0.0000   YZ=             -0.0000

 Normal termination of Gaussian 16 at Fri Oct 15 10:25:28 2021.
