 Gaussian 16, Revision A.03,
 Gaussian 16:  ES64L-G16RevA.03 25-Dec-2016

 --------------------------------------------------------
 #p PBE1PBE/Def2SVP td=(nstates=5) density=(transition=1)
 --------------------------------------------------------

 --------------------------------
 TDDFT excited states in gaussian
 --------------------------------
 Symbolic Z-matrix:
 Charge =  0 Multiplicity = 1

                         Standard orientation:
 ---------------------------------------------------------------------
 Center     Atomic      Atomic             Coordinates (Angstroms)
 Number     Number       Type             X           Y           Z
 ---------------------------------------------------------------------
      1         12           0       30.927887   -0.121394    0.221064
      2          6           0       27.600219    0.645439    0.129089
      3          6           0       30.029253   -3.444617   -0.679640
      4          6           0       34.213787   -0.823838   -0.087718
      5          6           0       31.681966    3.279560    0.176172
      6          7           0       28.959110   -1.200496   -0.609771
      7          6           0       27.728299   -0.705749   -0.298249
      8          6           0       26.666265   -1.692033   -0.698598
      9          6           0       27.465672   -3.034139   -0.997337
     10          6           0       28.942410   -2.593325   -0.746104
     11          6           0       26.855323   -4.292896   -0.498810
     12          6           0       25.584348   -1.291556   -1.809659
     13          6           0       26.003140   -0.350393   -2.899977
     14          1           0       25.661272   -0.750580   -4.328357
     15          7           0       31.951925   -1.933593   -0.073441
     16          6           0       31.437885   -3.152693   -0.390165
     17          6           0       32.460959   -4.141110   -0.563293
     18          6           0       33.718928   -3.398585   -0.270928
     19          6           0       33.327501   -1.979904   -0.121362
     20          6           0       32.317336   -5.549608   -0.894178
     21          6           0       35.137581   -3.935924   -0.148281
     22          8           0       35.383438   -5.052286   -0.439814
     23          6           0       36.361748   -3.149483    0.230859
     24          7           0       32.647150    1.045822   -0.061140
     25          6           0       33.872656    0.506586    0.026676
     26          6           0       35.009950    1.625224   -0.242024
     27          6           0       34.182832    2.918204    0.230771
     28          6           0       32.778461    2.392695    0.051433
     29          6           0       36.327292    1.432407    0.514362
     30          6           0       34.584563    4.194892   -0.529700
     31          6           0       34.872365    5.498890    0.223689
     32          7           0       29.870540    1.631369    0.053282
     33          6           0       30.274409    2.960275    0.087561
     34          6           0       29.171563    3.836265    0.176770
     35          6           0       28.067106    3.003888    0.253473
     36          6           0       28.533770    1.644021    0.174115
     37          6           0       29.189912    5.331260    0.261244
     38          6           0       26.680206    2.867716    0.420348
     39          8           0       25.853424    3.770166    0.535640
     40          6           0       26.283625    1.383558    0.177741
     41          6           0       25.417083    1.056751    1.385056
     42          8           0       24.273501    0.558929    1.313160
     43          8           0       26.178028    1.273455    2.509595
     44          6           0       25.740727    0.826643    3.854811
     45          1           0       29.698552   -4.406629   -1.076504
     46          1           0       35.243288   -1.029211   -0.387990
     47          1           0       31.929901    4.341143    0.233658
     48          1           0       25.994107   -1.834801    0.148316
     49          1           0       27.467346   -3.143445   -2.081457
     50          1           0       27.555404   -4.930528    0.040888
     51          1           0       26.309082   -4.823720   -1.278534
     52          1           0       26.108517   -4.054008    0.258424
     53          1           0       24.695826   -0.798432   -1.415207
     54          1           0       25.315010   -2.176825   -2.386576
     55          1           0       27.019376    0.031552   -2.808463
     56          1           0       25.359636    0.526471   -2.821242
     57          1           0       31.371534   -5.908725   -0.489680
     58          1           0       33.123279   -6.179542   -0.519583
     59          1           0       32.298069   -5.613539   -1.982729
     60          1           0       35.832923   -2.464646    0.894193
     61          1           0       36.802104   -2.616563   -0.611286
     62          1           0       37.164849   -3.688882    0.733302
     63          1           0       35.123762    1.673352   -1.325423
     64          1           0       34.209357    3.199205    1.283305
     65          1           0       36.342911    2.173227    1.314229
     66          1           0       37.162602    1.388095   -0.183884
     67          1           0       36.397699    0.466017    1.012707
     68          1           0       33.782881    4.396133   -1.240770
     69          1           0       35.422302    3.943924   -1.180494
     70          1           0       35.789174    6.042581   -0.004763
     71          1           0       34.763033    5.399055    1.304382
     72          1           0       33.978500    6.082201    0.004976
     73          1           0       28.398854    5.763213    0.874698
     74          1           0       29.106268    5.733735   -0.748536
     75          1           0       30.098290    5.726025    0.718213
     76          1           0       25.730506    1.434512   -0.759319
     77          1           0       26.563618    0.440347    4.455996
     78          1           0       24.994727    0.042525    3.724405
     79          1           0       25.251307    1.518595    4.539067
     80         12           0      -30.890832    0.259999    0.290435
     81          6           0      -28.016400   -1.651509   -0.130503
     82          6           0      -28.970828    3.082199   -0.319855
     83          6           0      -33.606446    2.136397    0.117850
     84          6           0      -32.774825   -2.641736    0.385507
     85          7           0      -28.794172    0.662412   -0.327932
     86          6           0      -27.768481   -0.260137   -0.300439
     87          6           0      -26.416137    0.367412   -0.466729
     88          6           0      -26.729831    1.894172   -0.141315
     89          6           0      -28.243651    1.923155   -0.304918
     90          6           0      -26.115377    2.634277    1.140007
     91          6           0      -25.695478    0.081632   -1.864939
     92          6           0      -26.597338   -0.088375   -3.123583
     93          1           0      -26.063857    0.584956   -4.365205
     94          7           0      -31.264959    2.314040   -0.170507
     95          6           0      -30.318323    3.324722   -0.379369
     96          6           0      -30.946480    4.581031   -0.683912
     97          6           0      -32.335989    4.330929   -0.584936
     98          6           0      -32.488413    2.888575   -0.229499
     99          6           0      -30.113854    5.862070   -0.755370
    100          6           0      -33.381376    5.450050   -0.794375
    101          8           0      -33.060699    6.588230   -1.151412
    102          6           0      -34.775264    5.094188   -0.488478
    103          7           0      -32.886120   -0.258548    0.137570
    104          6           0      -33.820328    0.739042    0.360172
    105          6           0      -35.246634    0.189943    0.583445
    106          6           0      -34.925461   -1.352064    0.418383
    107          6           0      -33.473091   -1.437967    0.256355
    108          6           0      -35.965397    0.505947    1.857008
    109          6           0      -35.643722   -2.009135   -0.866447
    110          6           0      -36.294915   -3.320636   -0.512332
    111          7           0      -30.510350   -1.787760    0.355074
    112          6           0      -31.388844   -2.854640    0.394005
    113          6           0      -30.635318   -4.129128    0.367657
    114          6           0      -29.279585   -3.694789    0.162376
    115          6           0      -29.287795   -2.295064    0.161170
    116          6           0      -31.110899   -5.520104    0.249943
    117          6           0      -27.879631   -4.088458   -0.103933
    118          8           0      -27.414195   -5.190104   -0.283187
    119          6           0      -27.014189   -2.796802   -0.260357
    120          6           0      -25.905788   -2.809133    0.695053
    121          8           0      -24.690402   -2.813401    0.497998
    122          8           0      -26.463144   -3.112291    1.964961
    123          6           0      -25.507032   -3.116441    3.092854
    124          1           0      -28.303302    3.945040   -0.261576
    125          1           0      -34.548140    2.666388    0.274498
    126          1           0      -33.451637   -3.490406    0.499303
    127          1           0      -25.718331   -0.041374    0.263982
    128          1           0      -26.298708    2.372356   -1.021205
    129          1           0      -25.396344    2.057688    1.721662
    130          1           0      -26.858566    2.902714    1.890702
    131          1           0      -25.487288    3.461559    0.808397
    132          1           0      -25.009965   -0.760621   -1.777174
    133          1           0      -25.021233    0.921745   -2.031215
    134          1           0      -27.609850    0.262755   -2.922186
    135          1           0      -26.683269   -1.145130   -3.375032
    136          1           0      -30.512385    6.608394   -1.443318
    137          1           0      -29.135889    5.628844   -1.175616
    138          1           0      -30.112610    6.269523    0.255887
    139          1           0      -34.871944    4.971955    0.589913
    140          1           0      -35.054670    4.194698   -1.037965
    141          1           0      -35.362189    5.951093   -0.819010
    142          1           0      -35.828376    0.426819   -0.307684
    143          1           0      -35.126442   -1.739007    1.417354
    144          1           0      -36.836745   -0.148883    1.874932
    145          1           0      -36.367809    1.513642    1.753303
    146          1           0      -35.294943    0.400535    2.710757
    147          1           0      -34.873518   -2.104998   -1.631646
    148          1           0      -36.360782   -1.388985   -1.405836
    149          1           0      -35.731350   -4.114797   -1.001442
    150          1           0      -37.256303   -3.454451   -1.009355
    151          1           0      -36.205377   -3.499908    0.558895
    152          1           0      -32.193547   -5.651629    0.220137
    153          1           0      -30.774629   -6.026120    1.154246
    154          1           0      -30.760852   -5.759749   -0.753917
    155          1           0      -26.653662   -2.834706   -1.288042
    156          1           0      -26.054324   -2.556643    3.852137
    157          1           0      -24.516400   -2.672854    2.992566
    158          1           0      -25.542906   -4.138108    3.471475
 ---------------------------------------------------------------------

 SCF Done:  E(RPBE1PBE) =  -4067.32690142     A.U. after   16 cycles

 Excitation energies and oscillator strengths:

 Excited State   1:      Singlet-A      1.7943 eV  691.01 nm  f=0.0000  <S**2>=0.000
     312 -> 313        0.70711
 This state for optimization and/or second-order correction.
 Total Energy, E(TD-HF/TD-DFT) =  -4067.26096386
 Copying the excited state density for this state as the 1-particle RhoCI density.

 Excited State   2:      Singlet-A      1.7944 eV  690.97 nm  f=0.3697  <S**2>=0.000
     309 -> 316       -0.16553
     311 -> 313        0.69591
     311 <- 313       -0.11768

 Excited State   3:      Singlet-A      1.8711 eV  662.62 nm  f=0.3586  <S**2>=0.000
     310 -> 315       -0.17705
     312 -> 314        0.68992
     312 <- 314       -0.10398

 Excited State   4:      Singlet-A      2.1559 eV  575.10 nm  f=0.1300  <S**2>=0.000
     308 -> 313       -0.10038
     309 -> 313        0.65391
     311 -> 316        0.23175

 Excited State   5:      Singlet-A      2.1725 eV  570.69 nm  f=0.0000  <S**2>=0.000
     311 -> 314        0.70711

 The electronic state is 1-A.
 Alpha  occ. eigenvalues --  -46.93346 -46.92483 -19.26761 -19.25002 -19.20745
 Alpha  occ. eigenvalues --  -19.20496 -19.19163 -19.19095 -19.18509 -19.17612
 Alpha  occ. eigenvalues --  -14.42109 -14.41739 -14.41670 -14.41501 -14.39825
 Alpha  occ. eigenvalues --  -14.39232 -14.39217 -14.38874 -10.37429 -10.36724
 Alpha  occ. eigenvalues --  -10.32338 -10.32161 -10.31247 -10.30908 -10.29934
 Alpha  occ. eigenvalues --  -10.29650 -10.29317 -10.29196 -10.28950 -10.28886
 Alpha  occ. eigenvalues --  -10.28776 -10.28648 -10.28512 -10.28253 -10.28239
 Alpha  occ. eigenvalues --  -10.28230 -10.28172 -10.27942 -10.27889 -10.26912
 Alpha  occ. eigenvalues --  -10.26855 -10.26765 -10.26705 -10.26455 -10.26331
 Alpha  occ. eigenvalues --  -10.26280 -10.26232 -10.26227 -10.26114 -10.26022
 Alpha  occ. eigenvalues --  -10.25970 -10.25952 -10.25907 -10.25891 -10.25865
 Alpha  occ. eigenvalues --  -10.25804 -10.25772 -10.25723 -10.25557 -10.25390
 Alpha  occ. eigenvalues --  -10.25244 -10.25136 -10.25004 -10.24938 -10.24840
 Alpha  occ. eigenvalues --  -10.24750 -10.24743 -10.24587 -10.24530 -10.24412
 Alpha  occ. eigenvalues --  -10.24393 -10.24349 -10.24301 -10.24041 -10.23829
 Alpha  occ. eigenvalues --  -10.23683 -10.23640 -10.23610 -10.23551 -10.23331
 Alpha  occ. eigenvalues --  -10.23262 -10.23206 -10.23199 -10.22973 -10.22700
 Alpha  occ. eigenvalues --  -10.22617  -3.15397  -3.14589  -1.88194  -1.87808
 Alpha  occ. eigenvalues --   -1.87595  -1.87414  -1.86979  -1.86804  -1.10319
 Alpha  occ. eigenvalues --   -1.09527  -1.06378  -1.05173  -1.04015  -1.03903
 Alpha  occ. eigenvalues --   -1.01975  -1.01711  -0.99747  -0.99677  -0.98934
 Alpha  occ. eigenvalues --   -0.98346  -0.97832  -0.97626  -0.96952  -0.96907
 Alpha  occ. eigenvalues --   -0.87930  -0.86811  -0.84106  -0.83944  -0.83507
 Alpha  occ. eigenvalues --   -0.83000  -0.82736  -0.82268  -0.82175  -0.81938
 Alpha  occ. eigenvalues --   -0.81573  -0.81237  -0.80422  -0.80354  -0.79026
 Alpha  occ. eigenvalues --   -0.78865  -0.78754  -0.78223  -0.77376  -0.76941
 Alpha  occ. eigenvalues --   -0.76565  -0.76421  -0.75309  -0.75180  -0.74870
 Alpha  occ. eigenvalues --   -0.74487  -0.72791  -0.72678  -0.72114  -0.71769
 Alpha  occ. eigenvalues --   -0.71382  -0.71083  -0.70952  -0.70498  -0.70084
 Alpha  occ. eigenvalues --   -0.69869  -0.68062  -0.67102  -0.66569  -0.66210
 Alpha  occ. eigenvalues --   -0.64368  -0.63825  -0.63736  -0.63654  -0.62715
 Alpha  occ. eigenvalues --   -0.62572  -0.61235  -0.61167  -0.60854  -0.60658
 Alpha  occ. eigenvalues --   -0.60089  -0.59358  -0.59233  -0.59064  -0.58833
 Alpha  occ. eigenvalues --   -0.58536  -0.58106  -0.57061  -0.54838  -0.54783
 Alpha  occ. eigenvalues --   -0.54002  -0.53969  -0.53531  -0.53517  -0.52882
 Alpha  occ. eigenvalues --   -0.52620  -0.52103  -0.51980  -0.51837  -0.51761
 Alpha  occ. eigenvalues --   -0.51138  -0.50880  -0.50363  -0.50351  -0.49894
 Alpha  occ. eigenvalues --   -0.49868  -0.49648  -0.49628  -0.49101  -0.48973
 Alpha  occ. eigenvalues --   -0.48499  -0.48367  -0.47952  -0.47725  -0.47596
 Alpha  occ. eigenvalues --   -0.47247  -0.47066  -0.47015  -0.46709  -0.46484
 Alpha  occ. eigenvalues --   -0.46480  -0.46388  -0.46375  -0.46247  -0.45998
 Alpha  occ. eigenvalues --   -0.45708  -0.45656  -0.45378  -0.45370  -0.45173
 Alpha  occ. eigenvalues --   -0.45048  -0.44774  -0.44629  -0.44313  -0.44288
 Alpha  occ. eigenvalues --   -0.44197  -0.44136  -0.43869  -0.43837  -0.43633
 Alpha  occ. eigenvalues --   -0.43475  -0.43173  -0.42948  -0.42931  -0.42778
 Alpha  occ. eigenvalues --   -0.42480  -0.42392  -0.42314  -0.42002  -0.41926
 Alpha  occ. eigenvalues --   -0.41886  -0.41831  -0.41669  -0.41634  -0.41233
 Alpha  occ. eigenvalues --   -0.41179  -0.40967  -0.40925  -0.40914  -0.40450
 Alpha  occ. eigenvalues --   -0.40286  -0.40142  -0.40137  -0.40134  -0.39878
 Alpha  occ. eigenvalues --   -0.39794  -0.39753  -0.39694  -0.39558  -0.39503
 Alpha  occ. eigenvalues --   -0.39398  -0.38972  -0.38793  -0.38722  -0.38324
 Alpha  occ. eigenvalues --   -0.38264  -0.37949  -0.37939  -0.37823  -0.37675
 Alpha  occ. eigenvalues --   -0.37505  -0.37462  -0.37317  -0.37097  -0.36987
 Alpha  occ. eigenvalues --   -0.36893  -0.36767  -0.36760  -0.36587  -0.36538
 Alpha  occ. eigenvalues --   -0.36510  -0.36408  -0.36198  -0.36082  -0.35471
 Alpha  occ. eigenvalues --   -0.35318  -0.35122  -0.34856  -0.34044  -0.33935
 Alpha  occ. eigenvalues --   -0.33673  -0.33505  -0.33046  -0.32951  -0.32429
 Alpha  occ. eigenvalues --   -0.32322  -0.31942  -0.31826  -0.31589  -0.31140
 Alpha  occ. eigenvalues --   -0.30660  -0.30551  -0.30293  -0.29804  -0.29697
 Alpha  occ. eigenvalues --   -0.28974  -0.28877  -0.28579  -0.27151  -0.26903
 Alpha  occ. eigenvalues --   -0.26324  -0.25876  -0.25737  -0.25520  -0.25331
 Alpha  occ. eigenvalues --   -0.25264  -0.24937  -0.23738  -0.21406  -0.20991
 Alpha  occ. eigenvalues --   -0.19351  -0.18857
 Alpha virt. eigenvalues --   -0.12048  -0.11151  -0.05703  -0.05476  -0.03881
 Alpha virt. eigenvalues --   -0.03521  -0.01946  -0.01882  -0.01785  -0.01102
 Alpha virt. eigenvalues --   -0.00492  -0.00041   0.00620   0.00809   0.01827

 Mulliken charges:
               1
     1  Mg  12.000000
     2  C    6.000000
     3  C    6.000000
     4  C    6.000000
     5  C    6.000000
     6  N    7.000000
     7  C    6.000000
     8  C    6.000000
     9  C    6.000000
    10  C    6.000000
    11  C    6.000000
    12  C    6.000000
    13  C    6.000000
    14  H    1.000000
    15  N    7.000000
    16  C    6.000000
    17  C    6.000000
    18  C    6.000000
    19  C    6.000000
    20  C    6.000000
    21  C    6.000000
    22  O    8.000000
    23  C    6.000000
    24  N    7.000000
    25  C    6.000000
    26  C    6.000000
    27  C    6.000000
    28  C    6.000000
    29  C    6.000000
    30  C    6.000000
    31  C    6.000000
    32  N    7.000000
    33  C    6.000000
    34  C    6.000000
    35  C    6.000000
    36  C    6.000000
    37  C    6.000000
    38  C    6.000000
    39  O    8.000000
    40  C    6.000000
    41  C    6.000000
    42  O    8.000000
    43  O    8.000000
    44  C    6.000000
    45  H    1.000000
    46  H    1.000000
    47  H    1.000000
    48  H    1.000000
    49  H    1.000000
    50  H    1.000000
    51  H    1.000000
    52  H    1.000000
    53  H    1.000000
    54  H    1.000000
    55  H    1.000000
    56  H    1.000000
    57  H    1.000000
    58  H    1.000000
    59  H    1.000000
    60  H    1.000000
    61  H    1.000000
    62  H    1.000000
    63  H    1.000000
    64  H    1.000000
    65  H    1.000000
    66  H    1.000000
    67  H    1.000000
    68  H    1.000000
    69  H    1.000000
    70  H    1.000000
    71  H    1.000000
    72  H    1.000000
    73  H    1.000000
    74  H    1.000000
    75  H    1.000000
    76  H    1.000000
    77  H    1.000000
    78  H    1.000000
    79  H    1.000000
    80  Mg  12.000000
    81  C    6.000000
    82  C    6.000000
    83  C    6.000000
    84  C    6.000000
    85  N    7.000000
    86  C    6.000000
    87  C    6.000000
    88  C    6.000000
    89  C    6.000000
    90  C    6.000000
    91  C    6.000000
    92  C    6.000000
    93  H    1.000000
    94  N    7.000000
    95  C    6.000000
    96  C    6.000000
    97  C    6.000000
    98  C    6.000000
    99  C    6.000000
   100  C    6.000000
   101  O    8.000000
   102  C    6.000000
   103  N    7.000000
   104  C    6.000000
   105  C    6.000000
   106  C    6.000000
   107  C    6.000000
   108  C    6.000000
   109  C    6.000000
   110  C    6.000000
   111  N    7.000000
   112  C    6.000000
   113  C    6.000000
   114  C    6.000000
   115  C    6.000000
   116  C    6.000000
   117  C    6.000000
   118  O    8.000000
   119  C    6.000000
   120  C    6.000000
   121  O    8.000000
   122  O    8.000000
   123  C    6.000000
   124  H    1.000000
   125  H    1.000000
   126  H    1.000000
   127  H    1.000000
   128  H    1.000000
   129  H    1.000000
   130  H    1.000000
   131  H    1.000000
   132  H    1.000000
   133  H    1.000000
   134  H    1.000000
   135  H    1.000000
   136  H    1.000000
   137  H    1.000000
   138  H    1.000000
   139  H    1.000000
   140  H    1.000000
   141  H    1.000000
   142  H    1.000000
   143  H    1.000000
   144  H    1.000000
   145  H    1.000000
   146  H    1.000000
   147  H    1.000000
   148  H    1.000000
   149  H    1.000000
   150  H    1.000000
   151  H    1.000000
   152  H    1.000000
   153  H    1.000000
   154  H    1.000000
   155  H    1.000000
   156  H    1.000000
   157  H    1.000000
   158  H    1.000000
 Sum of Mulliken charges = 624.00000

 Dipole moment (field-independent basis, Debye):
    X=             -0.0000    Y=              0.0000    Z=              0.0000  Tot=              0.0000
 Quadrupole moment (field-independent basis, Debye-Ang):
   XX=             -0.0000   YY=             -0.0000   ZZ=              0.0000
   XY=              0.0000   XZ=              0.0000   YZ=             -0.0000

 Normal termination of Gaussian 16 at Thu Oct 14 06:22:43 2021.
